      -----------------------------------------------------------      
     |                   =====================                   |     
     |                           x T B                           |     
     |                   =====================                   |     
     |                         S. Grimme                         |     
     |          Mulliken Center for Theoretical Chemistry        |     
     |                    University of Bonn                     |     
      -----------------------------------------------------------      

   * xtb version 6.5.1 (579679a) compiled by 'ehlert@majestix' on 2022-07-11

   xtb is free software: you can redistribute it and/or modify it under
   the terms of the GNU Lesser General Public License as published by
   the Free Software Foundation, either version 3 of the License, or
   (at your option) any later version.
   
   xtb is distributed in the hope that it will be useful,
   but WITHOUT ANY WARRANTY; without even the implied warranty of
   MERCHANTABILITY or FITNESS FOR A PARTICULAR PURPOSE.  See the
   GNU Lesser General Public License for more details.
   
   Cite this work as:
   * C. Bannwarth, E. Caldeweyher, S. Ehlert, A. Hansen, P. Pracht,
     J. Seibert, S. Spicher, S. Grimme, WIREs Comput. Mol. Sci., 2020, 11,
     e01493. DOI: 10.1002/wcms.1493
   
   for GFN2-xTB:
   * C. Bannwarth, S. Ehlert and S. Grimme., J. Chem. Theory Comput., 2019,
     15, 1652-1671. DOI: 10.1021/acs.jctc.8b01176
   for GFN1-xTB:
   * S. Grimme, C. Bannwarth, P. Shushkov, J. Chem. Theory Comput., 2017,
     13, 1989-2009. DOI: 10.1021/acs.jctc.7b00118
   for GFN0-xTB:
   * P. Pracht, E. Caldeweyher, S. Ehlert, S. Grimme, ChemRxiv, 2019, preprint.
     DOI: 10.26434/chemrxiv.8326202.v1
   for GFN-FF:
   * S. Spicher and S. Grimme, Angew. Chem. Int. Ed., 2020, 59, 15665-15673.
     DOI: 10.1002/anie.202004239
   
   for ALPB and GBSA implicit solvation:
   * S. Ehlert, M. Stahn, S. Spicher, S. Grimme, J. Chem. Theory Comput.,
     2021, 17, 4250-4261. DOI: 10.1021/acs.jctc.1c00471
   
   for DFT-D4:
   * E. Caldeweyher, C. Bannwarth and S. Grimme, J. Chem. Phys., 2017,
     147, 034112. DOI: 10.1063/1.4993215
   * E. Caldeweyher, S. Ehlert, A. Hansen, H. Neugebauer, S. Spicher,
     C. Bannwarth and S. Grimme, J. Chem. Phys., 2019, 150, 154122.
     DOI: 10.1063/1.5090222
   * E. Caldeweyher, J.-M. Mewes, S. Ehlert and S. Grimme, Phys. Chem. Chem. Phys.
     2020, 22, 8499-8512. DOI: 10.1039/D0CP00502A
   
   for sTDA-xTB:
   * S. Grimme and C. Bannwarth, J. Chem. Phys., 2016, 145, 054103.
     DOI: 10.1063/1.4959605
   
   in the mass-spec context:
   * V. Asgeirsson, C. Bauer and S. Grimme, Chem. Sci., 2017, 8, 4879.
     DOI: 10.1039/c7sc00601b
   * J. Koopman and S. Grimme, ACS Omega 2019, 4, 12, 15120-15133.
     DOI: 10.1021/acsomega.9b02011
   
   for metadynamics refer to:
   * S. Grimme, J. Chem. Theory Comput., 2019, 155, 2847-2862
     DOI: 10.1021/acs.jctc.9b00143
   
   for SPH calculations refer to:
   * S. Spicher and S. Grimme, J. Chem. Theory Comput., 2021, 17, 1701-1714
     DOI: 10.1021/acs.jctc.0c01306
   
   with help from (in alphabetical order)
   P. Atkinson, C. Bannwarth, F. Bohle, G. Brandenburg, E. Caldeweyher
   M. Checinski, S. Dohm, S. Ehlert, S. Ehrlich, I. Gerasimov, C. Hölzer
   A. Katbashev, J. Koopman, C. Lavigne, S. Lehtola, F. März, M. Müller,
   F. Musil, H. Neugebauer, J. Pisarek, C. Plett, P. Pracht, F. Pultar,
   J. Seibert, P. Shushkov, S. Spicher, M. Stahn, M. Steiner, T. Strunk,
   J. Stückrath, T. Rose, and J. Unsleber
   
 * started run on 2022/11/17 at 06:48:47.985     

           -------------------------------------------------
          |                Calculation Setup                |
           -------------------------------------------------

          program call               : xtb solvent_cluster.coord --gfn2 --input xcontrol --opt 1
          hostname                   : cn0363
          coordinate file            : solvent_cluster.coord
          omp threads                :                     2

   ID    Z sym.   atoms
    1    8 o      1, 4, 7, 10, 13, 16, 19, 22, 25, 28, 31, 34, 37, 40, 43,
                  46, 49, 52, 55, 58, 61, 64, 67, 70, 73, 76, 79, 82, 85, 88,
                  91, 94, 97, 100, 103, 106, 109, 112, 115, 118, 121, 124,
                  127, 130, 133, 136, 139, 142, 145, 148, 151, 154, 157, 160,
                  163, 166, 169, 172, 175, 178, 181, 184, 187, 190, 193, 196,
                  199, 202, 205, 208, 211, 214, 217, 220, 223, 226, 229, 232,
                  235, 238, 241, 244, 247, 250, 253, 256, 259, 262, 265, 268,
                  271, 274, 277, 280, 283, 286, 289, 292, 295, 298, 301, 304,
                  307, 310, 313, 316, 319, 322, 325, 328, 331, 334, 337, 340,
                  343, 346, 349, 352, 355, 358, 361, 364, 367, 370, 373, 376,
                  379, 382, 385, 388, 391, 394, 397, 400, 403, 406, 409, 412,
                  415, 418, 421, 424, 427, 430, 433, 436, 439, 442, 445, 448,
                  451, 454, 457, 460, 463, 466, 469, 472, 475, 478, 481, 484,
                  487, 490, 493, 496, 499, 502, 505, 508, 511, 514, 517, 520,
                  523, 526, 529
    2    1 h      2, 3, 5, 6, 8, 9, 11, 12, 14, 15, 17, 18, 20, 21, 23, 24,
                  26, 27, 29, 30, 32, 33, 35, 36, 38, 39, 41, 42, 44, 45, 47,
                  48, 50, 51, 53, 54, 56, 57, 59, 60, 62, 63, 65, 66, 68, 69,
                  71, 72, 74, 75, 77, 78, 80, 81, 83, 84, 86, 87, 89, 90, 92,
                  93, 95, 96, 98, 99, 101, 102, 104, 105, 107, 108, 110, 111,
                  113, 114, 116, 117, 119, 120, 122, 123, 125, 126, 128, 129,
                  131, 132, 134, 135, 137, 138, 140, 141, 143, 144, 146, 147,
                  149, 150, 152, 153, 155, 156, 158, 159, 161, 162, 164, 165,
                  167, 168, 170, 171, 173, 174, 176, 177, 179, 180, 182, 183,
                  185, 186, 188, 189, 191, 192, 194, 195, 197, 198, 200, 201,
                  203, 204, 206, 207, 209, 210, 212, 213, 215, 216, 218, 219,
                  221, 222, 224, 225, 227, 228, 230, 231, 233, 234, 236, 237,
                  239, 240, 242, 243, 245, 246, 248, 249, 251, 252, 254, 255,
                  257, 258, 260, 261, 263, 264, 266, 267, 269, 270, 272, 273,
                  275, 276, 278, 279, 281, 282, 284, 285, 287, 288, 290, 291,
                  293, 294, 296, 297, 299, 300, 302, 303, 305, 306, 308, 309,
                  311, 312, 314, 315, 317, 318, 320, 321, 323, 324, 326, 327,
                  329, 330, 332, 333, 335, 336, 338, 339, 341, 342, 344, 345,
                  347, 348, 350, 351, 353, 354, 356, 357, 359, 360, 362, 363,
                  365, 366, 368, 369, 371, 372, 374, 375, 377, 378, 380, 381,
                  383, 384, 386, 387, 389, 390, 392, 393, 395, 396, 398, 399,
                  401, 402, 404, 405, 407, 408, 410, 411, 413, 414, 416, 417,
                  419, 420, 422, 423, 425, 426, 428, 429, 431, 432, 434, 435,
                  437, 438, 440, 441, 443, 444, 446, 447, 449, 450, 452, 453,
                  455, 456, 458, 459, 461, 462, 464, 465, 467, 468, 470, 471,
                  473, 474, 476, 477, 479, 480, 482, 483, 485, 486, 488, 489,
                  491, 492, 494, 495, 497, 498, 500, 501, 503, 504, 506, 507,
                  509, 510, 512, 513, 515, 516, 518, 519, 521, 522, 524, 525,
                  527, 528, 530, 531

molecular fragmentation (1/2 indicates fragments):
111222222222222222222222222222222222222222222222222222222222222222222222
222222222222222222222222222222222222222222222222222222222222222222222222
222222222222222222222222222222222222222222222222222222222222222222222222
222222222222222222222222222222222222222222222222222222222222222222222222
222222222222222222222222222222222222222222222222222222222222222222222222
222222222222222222222222222222222222222222222222222222222222222222222222
222222222222222222222222222222222222222222222222222222222222222222222222
222222222222222222222222222
# atoms in fragment 1/2:     3   528
 fragment masses (1/2) :       18.02     3170.69
CMA distance (Bohr)    :   6.888
constraining FC (au)   :  0.0500

           -------------------------------------------------
          |                 G F N 2 - x T B                 |
           -------------------------------------------------

        Reference                      10.1021/acs.jctc.8b01176
      * Hamiltonian:
        H0-scaling (s, p, d)           1.850000    2.230000    2.230000
        zeta-weighting                 0.500000
      * Dispersion:
        s8                             2.700000
        a1                             0.520000
        a2                             5.000000
        s9                             5.000000
      * Repulsion:
        kExp                           1.500000    1.000000
        rExp                           1.000000
      * Coulomb:
        alpha                          2.000000
        third order                    shell-resolved
        anisotropic                    true
        a3                             3.000000
        a5                             4.000000
        cn-shift                       1.200000
        cn-exp                         4.000000
        max-rad                        5.000000


          ...................................................
          :                      SETUP                      :
          :.................................................:
          :  # basis functions                1062          :
          :  # atomic orbitals                1062          :
          :  # shells                          708          :
          :  # electrons                      1416          :
          :  max. iterations                   250          :
          :  Hamiltonian                  GFN2-xTB          :
          :  restarted?                      false          :
          :  GBSA solvation                  false          :
          :  PC potential                    false          :
          :  electronic temp.          300.0000000     K    :
          :  accuracy                    1.0000000          :
          :  -> integral cutoff          0.2500000E+02      :
          :  -> integral neglect         0.1000000E-07      :
          :  -> SCF convergence          0.1000000E-05 Eh   :
          :  -> wf. convergence          0.1000000E-03 e    :
          :  Broyden damping             0.4000000          :
          ...................................................

 iter      E             dE          RMSdq      gap      omega  full diag
   1   -906.5085981 -0.906509E+03  0.407E+00    8.81       0.0  T
   2   -906.5714205 -0.628224E-01  0.241E+00    7.83       1.0  T
   3   -906.5947100 -0.232895E-01  0.221E-01    6.33       1.0  T
   4   -906.5990099 -0.429992E-02  0.473E-02    6.75       1.0  T
   5   -906.5990903 -0.803381E-04  0.314E-02    6.68       1.0  T
   6   -906.5991213 -0.310102E-04  0.456E-03    6.72       1.0  T
   7   -906.5991233 -0.200632E-05  0.743E-04    6.72       5.8  T
   8   -906.5991233 -0.184718E-07  0.393E-04    6.72      11.0  T
   9   -906.5991233 -0.108183E-07  0.675E-05    6.72      64.3  T

   *** convergence criteria satisfied after 9 iterations ***

         #    Occupation            Energy/Eh            Energy/eV
      -------------------------------------------------------------
         1        2.0000           -0.7030974             -19.1323
       ...           ...                  ...                  ...
       702        2.0000           -0.3571854              -9.7195
       703        2.0000           -0.3561874              -9.6924
       704        2.0000           -0.3525374              -9.5930
       705        2.0000           -0.3513760              -9.5614
       706        2.0000           -0.3476423              -9.4598
       707        2.0000           -0.3332082              -9.0671
       708        2.0000           -0.3319489              -9.0328 (HOMO)
       709                         -0.0850994              -2.3157 (LUMO)
       710                         -0.0650155              -1.7692
       711                         -0.0587218              -1.5979
       712                         -0.0558122              -1.5187
       713                         -0.0441142              -1.2004
       ...                                ...                  ...
      1062                          0.4914149              13.3721
      -------------------------------------------------------------
                  HL-Gap            0.2468495 Eh            6.7171 eV
             Fermi-level           -0.2085241 Eh           -5.6742 eV

 SCC (total)                   0 d,  0 h,  0 min,  7.842 sec
 SCC setup                      ...        0 min,  0.028 sec (  0.359%)
 Dispersion                     ...        0 min,  0.054 sec (  0.693%)
 classical contributions        ...        0 min,  0.016 sec (  0.200%)
 integral evaluation            ...        0 min,  0.319 sec (  4.068%)
 iterations                     ...        0 min,  2.613 sec ( 33.324%)
 molecular gradient             ...        0 min,  4.783 sec ( 61.000%)
 printout                       ...        0 min,  0.028 sec (  0.356%)

         :::::::::::::::::::::::::::::::::::::::::::::::::::::
         ::                     SUMMARY                     ::
         :::::::::::::::::::::::::::::::::::::::::::::::::::::
         :: total energy            -901.131322200518 Eh    ::
         :: gradient norm              0.099735535799 Eh/a0 ::
         :: HOMO-LUMO gap              6.717117537400 eV    ::
         ::.................................................::
         :: SCC energy              -906.599123327716 Eh    ::
         :: -> isotropic ES            5.106760808442 Eh    ::
         :: -> anisotropic ES         -1.087375464997 Eh    ::
         :: -> anisotropic XC         -0.093489600220 Eh    ::
         :: -> dispersion             -0.527419879825 Eh    ::
         :: repulsion energy           5.377193698012 Eh    ::
         :: add. restraining           0.000000000000 Eh    ::
         :: total charge              -0.000000000000 e     ::
         :::::::::::::::::::::::::::::::::::::::::::::::::::::

      ----------------------------------------------------------- 
     |                       L-ANC optimizer                     |
      ----------------------------------------------------------- 
          low memory version by Sebastian Ehlert

          ...................................................
          :                      SETUP                      :
          :.................................................:
          :   energy convergence        0.1000000E-05 Eh    :
          :   grad. convergence         0.8000000E-03 Eh/a0 :
          :   optimization log               true           :
          :   writing optlog all                1     steps :
          :   Hessian reset                    20     steps :
          :   maximium step len.        1.0000000     a0    :
          :   LBFGS images                     20           :
          ...................................................
 * calculating model hessian...
Using Lindh-Hessian (1995)
 Shifting diagonal of input Hessian by   1.054536468815058E-002
 Lowest  eigenvalues of input Hessian
    0.010000   -0.000000   -0.000000   -0.000000   -0.000000   -0.000000
   -0.000000   -0.000000   -0.000000   -0.000000   -0.000000   -0.000000
   -0.000000   -0.000000   -0.000000   -0.000000   -0.000000   -0.000000
 Highest eigenvalues
    0.302832    0.313739    1.220272    1.245604    1.398219    1.446009
 

........................................................................
.............................. CYCLE    1 ..............................
........................................................................
   1   -906.5939356 -0.906594E+03  0.428E-02    6.70       0.0  T
   2   -906.5939485 -0.128602E-04  0.265E-02    6.72       1.0  T
   3   -906.5939546 -0.609937E-05  0.199E-03    6.73       2.2  T
   4   -906.5939548 -0.213727E-06  0.530E-04    6.73       8.2  T
   5   -906.5939548 -0.348916E-08  0.585E-05    6.73      74.2  T
     SCC iter.                  ...        0 min,  1.424 sec
     gradient                   ...        0 min,  4.781 sec
 * total energy  :  -901.1316367 Eh     change       -0.3145288E-03 Eh
   gradient norm :     0.0243416 Eh/a0  converged?    E=F G=F D=F
   step length   :     0.3294246 a0

........................................................................
.............................. CYCLE    2 ..............................
........................................................................
   1   -906.5958175 -0.906596E+03  0.306E-02    6.75       0.0  T
   2   -906.5958291 -0.115339E-04  0.187E-02    6.74       1.0  T
   3   -906.5958327 -0.361175E-05  0.231E-03    6.73       1.9  T
   4   -906.5958330 -0.347378E-06  0.504E-04    6.74       8.6  T
   5   -906.5958330 -0.207797E-08  0.571E-05    6.74      76.0  T
     SCC iter.                  ...        0 min,  1.412 sec
     gradient                   ...        0 min,  4.786 sec
 * total energy  :  -901.1321466 Eh     change       -0.5098459E-03 Eh
   gradient norm :     0.0252735 Eh/a0  converged?    E=F G=F D=F
   step length   :     0.2447370 a0

........................................................................
.............................. CYCLE    3 ..............................
........................................................................
   1   -906.6039581 -0.906604E+03  0.371E-02    6.74       0.0  T
   2   -906.6039701 -0.120205E-04  0.228E-02    6.74       1.0  T
   3   -906.6039758 -0.565621E-05  0.225E-03    6.74       1.9  T
   4   -906.6039760 -0.244419E-06  0.629E-04    6.74       6.9  T
   5   -906.6039761 -0.534726E-08  0.649E-05    6.74      66.8  T
     SCC iter.                  ...        0 min,  1.410 sec
     gradient                   ...        0 min,  4.793 sec
 * total energy  :  -901.1319294 Eh     change        0.2172068E-03 Eh
   gradient norm :     0.0178771 Eh/a0  converged?    E=F G=F D=F
   step length   :     0.2576752 a0

........................................................................
.............................. CYCLE    4 ..............................
........................................................................
   1   -906.6009952 -0.906601E+03  0.205E-02    6.74       0.0  T
   2   -906.6009983 -0.312152E-05  0.127E-02    6.75       1.0  T
   3   -906.6009998 -0.148984E-05  0.101E-03    6.75       4.3  T
   4   -906.6009999 -0.552118E-07  0.270E-04    6.75      16.1  T
   5   -906.6009999 -0.888576E-09  0.293E-05    6.75     148.3  T
     SCC iter.                  ...        0 min,  1.407 sec
     gradient                   ...        0 min,  4.799 sec
 * total energy  :  -901.1325688 Eh     change       -0.6393826E-03 Eh
   gradient norm :     0.0047151 Eh/a0  converged?    E=F G=F D=F
   step length   :     0.1509454 a0

........................................................................
.............................. CYCLE    5 ..............................
........................................................................
   1   -906.5901012 -0.906590E+03  0.439E-02    6.76       0.0  T
   2   -906.5901287 -0.274729E-04  0.264E-02    6.77       1.0  T
   3   -906.5901363 -0.758731E-05  0.368E-03    6.77       1.2  T
   4   -906.5901371 -0.831035E-06  0.752E-04    6.77       5.8  T
   5   -906.5901371 -0.627438E-08  0.971E-05    6.77      44.7  T
     SCC iter.                  ...        0 min,  1.390 sec
     gradient                   ...        0 min,  4.820 sec
 * total energy  :  -901.1318228 Eh     change        0.7459668E-03 Eh
   gradient norm :     0.0435991 Eh/a0  converged?    E=F G=F D=F
   step length   :     0.3724291 a0

........................................................................
.............................. CYCLE    6 ..............................
........................................................................
   1   -906.5998612 -0.906600E+03  0.339E-02    6.76       0.0  T
   2   -906.5998780 -0.168853E-04  0.205E-02    6.76       1.0  T
   3   -906.5998833 -0.524156E-05  0.295E-03    6.76       1.5  T
   4   -906.5998838 -0.528720E-06  0.700E-04    6.76       6.2  T
   5   -906.5998838 -0.546640E-08  0.747E-05    6.76      58.1  T
     SCC iter.                  ...        0 min,  1.384 sec
     gradient                   ...        0 min,  4.837 sec
 * total energy  :  -901.1328612 Eh     change       -0.1038439E-02 Eh
   gradient norm :     0.0033996 Eh/a0  converged?    E=F G=F D=F
   step length   :     0.2204446 a0

........................................................................
.............................. CYCLE    7 ..............................
........................................................................
   1   -906.5996982 -0.906600E+03  0.572E-03    6.77       0.0  T
   2   -906.5996985 -0.316542E-06  0.351E-03    6.77       1.2  T
   3   -906.5996987 -0.124775E-06  0.358E-04    6.77      12.1  T
   4   -906.5996987 -0.942134E-08  0.104E-04    6.77      41.8  T
     SCC iter.                  ...        0 min,  1.103 sec
     gradient                   ...        0 min,  4.843 sec
 * total energy  :  -901.1330143 Eh     change       -0.1531209E-03 Eh
   gradient norm :     0.0047211 Eh/a0  converged?    E=F G=F D=F
   step length   :     0.1235991 a0

........................................................................
.............................. CYCLE    8 ..............................
........................................................................
   1   -906.5926623 -0.906593E+03  0.456E-02    6.78       0.0  T
   2   -906.5926970 -0.347319E-04  0.273E-02    6.79       1.0  T
   3   -906.5927054 -0.835563E-05  0.421E-03    6.79       1.0  T
   4   -906.5927065 -0.113502E-05  0.886E-04    6.79       4.9  T
   5   -906.5927065 -0.169839E-07  0.130E-04    6.79      33.3  T
   6   -906.5927065 -0.772275E-09  0.493E-05    6.79      87.9  T
     SCC iter.                  ...        0 min,  1.648 sec
     gradient                   ...        0 min,  4.893 sec
 * total energy  :  -901.1331035 Eh     change       -0.8916229E-04 Eh
   gradient norm :     0.0391950 Eh/a0  converged?    E=F G=F D=F
   step length   :     1.4913139 a0

........................................................................
.............................. CYCLE    9 ..............................
........................................................................
   1   -906.5994427 -0.906599E+03  0.259E-02    6.78       0.0  T
   2   -906.5994549 -0.121720E-04  0.154E-02    6.78       1.0  T
   3   -906.5994580 -0.317709E-05  0.256E-03    6.78       1.7  T
   4   -906.5994584 -0.391089E-06  0.572E-04    6.78       7.6  T
   5   -906.5994584 -0.528712E-08  0.605E-05    6.78      71.8  T
     SCC iter.                  ...        0 min,  1.234 sec
     gradient                   ...        0 min,  4.827 sec
 * total energy  :  -901.1337258 Eh     change       -0.6222863E-03 Eh
   gradient norm :     0.0089592 Eh/a0  converged?    E=F G=F D=F
   step length   :     0.2951356 a0

........................................................................
.............................. CYCLE   10 ..............................
........................................................................
   1   -906.5997043 -0.906600E+03  0.103E-02    6.78       0.0  T
   2   -906.5997054 -0.108417E-05  0.620E-03    6.78       1.0  T
   3   -906.5997057 -0.255077E-06  0.687E-04    6.78       6.3  T
   4   -906.5997057 -0.396983E-07  0.146E-04    6.78      29.7  T
     SCC iter.                  ...        0 min,  0.986 sec
     gradient                   ...        0 min,  4.836 sec
 * total energy  :  -901.1341973 Eh     change       -0.4714762E-03 Eh
   gradient norm :     0.0075635 Eh/a0  converged?    E=F G=F D=F
   step length   :     0.4217913 a0

........................................................................
.............................. CYCLE   11 ..............................
........................................................................
   1   -906.5977975 -0.906598E+03  0.250E-02    6.77       0.0  T
   2   -906.5978062 -0.873614E-05  0.150E-02    6.78       1.0  T
   3   -906.5978080 -0.178424E-05  0.203E-03    6.78       2.1  T
   4   -906.5978083 -0.306715E-06  0.397E-04    6.78      10.9  T
   5   -906.5978083 -0.428633E-08  0.683E-05    6.78      63.5  T
     SCC iter.                  ...        0 min,  1.223 sec
     gradient                   ...        0 min,  4.845 sec
 * total energy  :  -901.1353638 Eh     change       -0.1166539E-02 Eh
   gradient norm :     0.0187072 Eh/a0  converged?    E=F G=F D=F
   step length   :    35.5820658 a0

........................................................................
.............................. CYCLE   12 ..............................
........................................................................
   1   -906.5935345 -0.906594E+03  0.243E-02    6.76       0.0  T
   2   -906.5935481 -0.135824E-04  0.142E-02    6.77       1.0  T
   3   -906.5935502 -0.213488E-05  0.257E-03    6.78       1.7  T
   4   -906.5935506 -0.381839E-06  0.410E-04    6.78      10.6  T
   5   -906.5935506 -0.438354E-08  0.791E-05    6.78      54.8  T
     SCC iter.                  ...        0 min,  1.337 sec
     gradient                   ...        0 min,  4.928 sec
 * total energy  :  -901.1361576 Eh     change       -0.7938181E-03 Eh
   gradient norm :     0.0382009 Eh/a0  converged?    E=F G=F D=F
   step length   :    34.3317393 a0

........................................................................
.............................. CYCLE   13 ..............................
........................................................................
   1   -906.5931256 -0.906593E+03  0.168E-02    6.76       0.0  T
   2   -906.5931412 -0.156076E-04  0.945E-03    6.77       1.0  T
   3   -906.5931433 -0.208836E-05  0.258E-03    6.78       1.7  T
   4   -906.5931435 -0.209744E-06  0.276E-04    6.78      15.7  T
   5   -906.5931435 -0.288958E-08  0.594E-05    6.78      73.1  T
     SCC iter.                  ...        0 min,  1.336 sec
     gradient                   ...        0 min,  4.959 sec
 * total energy  :  -901.1370571 Eh     change       -0.8994833E-03 Eh
   gradient norm :     0.0458153 Eh/a0  converged?    E=F G=F D=F
   step length   :     1.0286549 a0

........................................................................
.............................. CYCLE   14 ..............................
........................................................................
   1   -906.5952793 -0.906595E+03  0.164E-02    6.75       0.0  T
   2   -906.5952994 -0.200954E-04  0.932E-03    6.76       1.0  T
   3   -906.5953023 -0.286713E-05  0.290E-03    6.77       1.5  T
   4   -906.5953025 -0.233936E-06  0.359E-04    6.78      12.1  T
   5   -906.5953025 -0.465661E-08  0.801E-05    6.77      54.1  T
     SCC iter.                  ...        0 min,  1.315 sec
     gradient                   ...        0 min,  4.952 sec
 * total energy  :  -901.1386092 Eh     change       -0.1552051E-02 Eh
   gradient norm :     0.0420671 Eh/a0  converged?    E=F G=F D=F
   step length   :     1.6959937 a0

........................................................................
.............................. CYCLE   15 ..............................
........................................................................
   1   -906.6030244 -0.906603E+03  0.153E-02    6.75       0.0  T
   2   -906.6030427 -0.183042E-04  0.853E-03    6.77       1.0  T
   3   -906.6030454 -0.268236E-05  0.267E-03    6.78       1.6  T
   4   -906.6030456 -0.208229E-06  0.368E-04    6.78      11.8  T
   5   -906.6030456 -0.442253E-08  0.831E-05    6.78      52.2  T
     SCC iter.                  ...        0 min,  1.318 sec
     gradient                   ...        0 min,  4.944 sec
 * total energy  :  -901.1406429 Eh     change       -0.2033743E-02 Eh
   gradient norm :     0.0270693 Eh/a0  converged?    E=F G=F D=F
   step length   :     3.2022494 a0

........................................................................
.............................. CYCLE   16 ..............................
........................................................................
   1   -906.6048535 -0.906605E+03  0.182E-02    6.75       0.0  T
   2   -906.6048646 -0.110793E-04  0.106E-02    6.76       1.0  T
   3   -906.6048663 -0.172351E-05  0.224E-03    6.77       1.9  T
   4   -906.6048666 -0.279693E-06  0.391E-04    6.77      11.1  T
   5   -906.6048666 -0.362820E-08  0.720E-05    6.76      60.3  T
     SCC iter.                  ...        0 min,  1.310 sec
     gradient                   ...        0 min,  4.882 sec
 * total energy  :  -901.1425316 Eh     change       -0.1888730E-02 Eh
   gradient norm :     0.0210489 Eh/a0  converged?    E=F G=F D=F
   step length   :     3.9559713 a0

........................................................................
.............................. CYCLE   17 ..............................
........................................................................
   1   -906.6200534 -0.906620E+03  0.284E-02    6.76       0.0  T
   2   -906.6201093 -0.558741E-04  0.156E-02    6.75       1.0  T
   3   -906.6201172 -0.790489E-05  0.471E-03    6.75       1.0  T
   4   -906.6201178 -0.607192E-06  0.680E-04    6.75       6.4  T
   5   -906.6201178 -0.106485E-07  0.150E-04    6.75      29.0  T
     SCC iter.                  ...        0 min,  1.305 sec
     gradient                   ...        0 min,  4.829 sec
 * total energy  :  -901.1438964 Eh     change       -0.1364805E-02 Eh
   gradient norm :     0.0426435 Eh/a0  converged?    E=F G=F D=F
   step length   :     0.9320380 a0

........................................................................
.............................. CYCLE   18 ..............................
........................................................................
   1   -906.6055540 -0.906606E+03  0.375E-02    6.72       0.0  T
   2   -906.6055860 -0.319901E-04  0.223E-02    6.73       1.0  T
   3   -906.6055972 -0.112353E-04  0.418E-03    6.73       1.0  T
   4   -906.6055983 -0.108873E-05  0.126E-03    6.73       3.5  T
   5   -906.6055984 -0.437132E-07  0.147E-04    6.73      29.5  T
   6   -906.6055984 -0.964633E-09  0.574E-05    6.73      75.6  T
     SCC iter.                  ...        0 min,  1.569 sec
     gradient                   ...        0 min,  4.780 sec
 * total energy  :  -901.1429892 Eh     change        0.9071998E-03 Eh
   gradient norm :     0.0566246 Eh/a0  converged?    E=F G=F D=F
   step length   :     0.6632276 a0

........................................................................
.............................. CYCLE   19 ..............................
........................................................................
   1   -906.6064135 -0.906606E+03  0.286E-02    6.75       0.0  T
   2   -906.6064271 -0.135497E-04  0.173E-02    6.75       1.0  T
   3   -906.6064330 -0.592557E-05  0.257E-03    6.74       1.7  T
   4   -906.6064334 -0.406205E-06  0.875E-04    6.74       5.0  T
   5   -906.6064334 -0.282449E-07  0.122E-04    6.74      35.6  T
     SCC iter.                  ...        0 min,  1.320 sec
     gradient                   ...        0 min,  4.778 sec
 * total energy  :  -901.1449915 Eh     change       -0.2002297E-02 Eh
   gradient norm :     0.0234057 Eh/a0  converged?    E=F G=F D=F
   step length   :     0.9151168 a0

........................................................................
.............................. CYCLE   20 ..............................
........................................................................
   1   -906.6132594 -0.906613E+03  0.172E-02    6.75       0.0  T
   2   -906.6132616 -0.218399E-05  0.102E-02    6.74       1.0  T
   3   -906.6132621 -0.442941E-06  0.941E-04    6.74       4.6  T
   4   -906.6132621 -0.786771E-07  0.235E-04    6.74      18.4  T
     SCC iter.                  ...        0 min,  1.048 sec
     gradient                   ...        0 min,  4.821 sec
 * total energy  :  -901.1452102 Eh     change       -0.2186625E-03 Eh
   gradient norm :     0.0117742 Eh/a0  converged?    E=F G=F D=F
   step length   :     0.2462956 a0
 * RMSD in coord.:     0.3132172 a0     energy gain  -0.1388800E-01 Eh
 * calculating model hessian...
Using Lindh-Hessian (1995)
 Shifting diagonal of input Hessian by   1.000014339561005E-002
 Lowest  eigenvalues of input Hessian
    0.010000   -0.000000   -0.000000   -0.000000   -0.000000   -0.000000
   -0.000000   -0.000000   -0.000000   -0.000000   -0.000000   -0.000000
   -0.000000   -0.000000   -0.000000   -0.000000   -0.000000   -0.000000
 Highest eigenvalues
    0.304431    0.322938    1.225412    1.251764    1.409299    1.455059
 

........................................................................
.............................. CYCLE   21 ..............................
........................................................................
   1   -906.6110325 -0.906611E+03  0.166E-02    6.74       0.0  T
   2   -906.6110347 -0.212499E-05  0.102E-02    6.74       1.0  T
   3   -906.6110357 -0.105711E-05  0.937E-04    6.74       4.6  T
   4   -906.6110358 -0.477033E-07  0.294E-04    6.74      14.8  T
   5   -906.6110358 -0.211298E-08  0.367E-05    6.74     118.2  T
     SCC iter.                  ...        0 min,  1.313 sec
     gradient                   ...        0 min,  4.785 sec
 * total energy  :  -901.1456799 Eh     change       -0.4696686E-03 Eh
   gradient norm :     0.0031066 Eh/a0  converged?    E=F G=F D=F
   step length   :     0.1848947 a0

........................................................................
.............................. CYCLE   22 ..............................
........................................................................
   1   -906.6037182 -0.906604E+03  0.329E-02    6.74       0.0  T
   2   -906.6037302 -0.120766E-04  0.199E-02    6.74       1.0  T
   3   -906.6037347 -0.447689E-05  0.248E-03    6.74       1.8  T
   4   -906.6037351 -0.393979E-06  0.737E-04    6.74       5.9  T
   5   -906.6037351 -0.130725E-07  0.878E-05    6.74      49.4  T
     SCC iter.                  ...        0 min,  1.333 sec
     gradient                   ...        0 min,  4.775 sec
 * total energy  :  -901.1454022 Eh     change        0.2776258E-03 Eh
   gradient norm :     0.0360180 Eh/a0  converged?    E=F G=F D=F
   step length   :     0.4218574 a0

........................................................................
.............................. CYCLE   23 ..............................
........................................................................
   1   -906.6101207 -0.906610E+03  0.273E-02    6.75       0.0  T
   2   -906.6101296 -0.881093E-05  0.166E-02    6.75       1.0  T
   3   -906.6101324 -0.285101E-05  0.211E-03    6.75       2.1  T
   4   -906.6101327 -0.283959E-06  0.503E-04    6.75       8.6  T
   5   -906.6101327 -0.312150E-08  0.518E-05    6.75      83.8  T
     SCC iter.                  ...        0 min,  1.310 sec
     gradient                   ...        0 min,  4.786 sec
 * total energy  :  -901.1460466 Eh     change       -0.6443092E-03 Eh
   gradient norm :     0.0081309 Eh/a0  converged?    E=F G=F D=F
   step length   :     0.2123497 a0

........................................................................
.............................. CYCLE   24 ..............................
........................................................................
   1   -906.6105464 -0.906611E+03  0.446E-03    6.74       0.0  T
   2   -906.6105466 -0.232635E-06  0.270E-03    6.74       1.6  T
   3   -906.6105467 -0.803784E-07  0.331E-04    6.74      13.1  T
   4   -906.6105467 -0.834302E-08  0.101E-04    6.74      43.1  T
     SCC iter.                  ...        0 min,  1.057 sec
     gradient                   ...        0 min,  4.781 sec
 * total energy  :  -901.1461929 Eh     change       -0.1463447E-03 Eh
   gradient norm :     0.0067675 Eh/a0  converged?    E=F G=F D=F
   step length   :     0.1182885 a0

........................................................................
.............................. CYCLE   25 ..............................
........................................................................
   1   -906.6096136 -0.906610E+03  0.240E-02    6.73       0.0  T
   2   -906.6096188 -0.515424E-05  0.147E-02    6.74       1.0  T
   3   -906.6096211 -0.228562E-05  0.154E-03    6.74       2.8  T
   4   -906.6096212 -0.161401E-06  0.519E-04    6.74       8.4  T
   5   -906.6096212 -0.836462E-08  0.678E-05    6.74      64.0  T
     SCC iter.                  ...        0 min,  1.307 sec
     gradient                   ...        0 min,  4.799 sec
 * total energy  :  -901.1465682 Eh     change       -0.3753211E-03 Eh
   gradient norm :     0.0110930 Eh/a0  converged?    E=F G=F D=F
   step length   :     0.6470912 a0

........................................................................
.............................. CYCLE   26 ..............................
........................................................................
   1   -906.6128940 -0.906613E+03  0.113E-02    6.74       0.0  T
   2   -906.6128952 -0.121223E-05  0.688E-03    6.73       1.0  T
   3   -906.6128956 -0.433977E-06  0.733E-04    6.73       5.9  T
   4   -906.6128957 -0.344149E-07  0.184E-04    6.73      23.6  T
     SCC iter.                  ...        0 min,  1.051 sec
     gradient                   ...        0 min,  4.800 sec
 * total energy  :  -901.1466635 Eh     change       -0.9525113E-04 Eh
   gradient norm :     0.0047877 Eh/a0  converged?    E=F G=F D=F
   step length   :     0.1511431 a0

........................................................................
.............................. CYCLE   27 ..............................
........................................................................
   1   -906.6122505 -0.906612E+03  0.753E-03    6.74       0.0  T
   2   -906.6122508 -0.280665E-06  0.461E-03    6.74       1.0  T
   3   -906.6122510 -0.144208E-06  0.346E-04    6.74      12.6  T
   4   -906.6122510 -0.672890E-08  0.121E-04    6.74      35.9  T
     SCC iter.                  ...        0 min,  1.035 sec
     gradient                   ...        0 min,  4.793 sec
 * total energy  :  -901.1467792 Eh     change       -0.1157456E-03 Eh
   gradient norm :     0.0037155 Eh/a0  converged?    E=F G=F D=F
   step length   :     0.1428936 a0

........................................................................
.............................. CYCLE   28 ..............................
........................................................................
   1   -906.6095128 -0.906610E+03  0.217E-02    6.75       0.0  T
   2   -906.6095161 -0.331097E-05  0.134E-02    6.75       1.0  T
   3   -906.6095180 -0.191525E-05  0.117E-03    6.75       3.7  T
   4   -906.6095181 -0.586039E-07  0.388E-04    6.75      11.2  T
   5   -906.6095181 -0.474722E-08  0.502E-05    6.75      86.4  T
     SCC iter.                  ...        0 min,  1.284 sec
     gradient                   ...        0 min,  4.791 sec
 * total energy  :  -901.1467998 Eh     change       -0.2058357E-04 Eh
   gradient norm :     0.0162162 Eh/a0  converged?    E=F G=F D=F
   step length   :     0.3927151 a0

........................................................................
.............................. CYCLE   29 ..............................
........................................................................
   1   -906.6124695 -0.906612E+03  0.121E-02    6.74       0.0  T
   2   -906.6124708 -0.128367E-05  0.742E-03    6.74       1.0  T
   3   -906.6124716 -0.766253E-06  0.792E-04    6.74       5.5  T
   4   -906.6124716 -0.230659E-07  0.249E-04    6.74      17.4  T
     SCC iter.                  ...        0 min,  1.045 sec
     gradient                   ...        0 min,  4.745 sec
 * total energy  :  -901.1469105 Eh     change       -0.1107268E-03 Eh
   gradient norm :     0.0022233 Eh/a0  converged?    E=F G=F D=F
   step length   :     0.1975161 a0

........................................................................
.............................. CYCLE   30 ..............................
........................................................................
   1   -906.6125262 -0.906613E+03  0.459E-03    6.74       0.0  T
   2   -906.6125263 -0.117125E-06  0.281E-03    6.74       1.5  T
   3   -906.6125264 -0.666521E-07  0.230E-04    6.74      18.9  T
   4   -906.6125264 -0.215493E-08  0.744E-05    6.74      58.3  T
     SCC iter.                  ...        0 min,  1.044 sec
     gradient                   ...        0 min,  4.743 sec
 * total energy  :  -901.1469498 Eh     change       -0.3925726E-04 Eh
   gradient norm :     0.0043993 Eh/a0  converged?    E=F G=F D=F
   step length   :     0.0777426 a0

........................................................................
.............................. CYCLE   31 ..............................
........................................................................
   1   -906.6113880 -0.906611E+03  0.116E-02    6.75       0.0  T
   2   -906.6113889 -0.863667E-06  0.714E-03    6.75       1.0  T
   3   -906.6113894 -0.519804E-06  0.622E-04    6.75       7.0  T
   4   -906.6113894 -0.144996E-07  0.200E-04    6.75      21.7  T
     SCC iter.                  ...        0 min,  1.047 sec
     gradient                   ...        0 min,  4.743 sec
 * total energy  :  -901.1469864 Eh     change       -0.3662917E-04 Eh
   gradient norm :     0.0091891 Eh/a0  converged?    E=F G=F D=F
   step length   :     0.1997958 a0

........................................................................
.............................. CYCLE   32 ..............................
........................................................................
   1   -906.6120975 -0.906612E+03  0.318E-03    6.75       0.0  T
   2   -906.6120976 -0.981019E-07  0.196E-03    6.75       2.2  T
   3   -906.6120977 -0.524786E-07  0.209E-04    6.75      20.8  T
   4   -906.6120977 -0.178363E-08  0.659E-05    6.75      65.9  T
     SCC iter.                  ...        0 min,  1.054 sec
     gradient                   ...        0 min,  4.750 sec
 * total energy  :  -901.1470278 Eh     change       -0.4139630E-04 Eh
   gradient norm :     0.0046488 Eh/a0  converged?    E=F G=F D=F
   step length   :     0.0344787 a0

........................................................................
.............................. CYCLE   33 ..............................
........................................................................
   1   -906.6124900 -0.906612E+03  0.671E-03    6.75       0.0  T
   2   -906.6124901 -0.158659E-06  0.405E-03    6.75       1.1  T
   3   -906.6124902 -0.421971E-07  0.249E-04    6.75      17.4  T
   4   -906.6124902 -0.579348E-08  0.705E-05    6.75      61.6  T
     SCC iter.                  ...        0 min,  1.052 sec
     gradient                   ...        0 min,  4.749 sec
 * total energy  :  -901.1470820 Eh     change       -0.5414965E-04 Eh
   gradient norm :     0.0013434 Eh/a0  converged?    E=F G=F D=F
   step length   :     0.0871645 a0

........................................................................
.............................. CYCLE   34 ..............................
........................................................................
   1   -906.6111601 -0.906611E+03  0.153E-02    6.75       0.0  T
   2   -906.6111607 -0.613872E-06  0.929E-03    6.75       1.0  T
   3   -906.6111610 -0.307794E-06  0.522E-04    6.75       8.3  T
   4   -906.6111610 -0.155931E-07  0.194E-04    6.75      22.3  T
     SCC iter.                  ...        0 min,  1.054 sec
     gradient                   ...        0 min,  4.756 sec
 * total energy  :  -901.1471080 Eh     change       -0.2605572E-04 Eh
   gradient norm :     0.0067513 Eh/a0  converged?    E=F G=F D=F
   step length   :     0.1986881 a0

........................................................................
.............................. CYCLE   35 ..............................
........................................................................
   1   -906.6121047 -0.906612E+03  0.332E-03    6.75       0.0  T
   2   -906.6121047 -0.642005E-07  0.202E-03    6.75       2.1  T
   3   -906.6121047 -0.220031E-07  0.164E-04    6.75      26.5  T
   4   -906.6121047 -0.187526E-08  0.486E-05    6.75      89.3  T
     SCC iter.                  ...        0 min,  1.047 sec
     gradient                   ...        0 min,  4.747 sec
 * total energy  :  -901.1471366 Eh     change       -0.2857190E-04 Eh
   gradient norm :     0.0043714 Eh/a0  converged?    E=F G=F D=F
   step length   :     0.0644265 a0

........................................................................
.............................. CYCLE   36 ..............................
........................................................................
   1   -906.6129285 -0.906613E+03  0.459E-03    6.75       0.0  T
   2   -906.6129287 -0.159340E-06  0.279E-03    6.75       1.6  T
   3   -906.6129287 -0.455786E-07  0.254E-04    6.75      17.1  T
   4   -906.6129287 -0.524665E-08  0.644E-05    6.75      67.4  T
     SCC iter.                  ...        0 min,  1.054 sec
     gradient                   ...        0 min,  4.742 sec
 * total energy  :  -901.1471610 Eh     change       -0.2445438E-04 Eh
   gradient norm :     0.0017323 Eh/a0  converged?    E=F G=F D=F
   step length   :     0.0554593 a0

........................................................................
.............................. CYCLE   37 ..............................
........................................................................
   1   -906.6127538 -0.906613E+03  0.689E-03    6.75       0.0  T
   2   -906.6127541 -0.347849E-06  0.419E-03    6.75       1.0  T
   3   -906.6127543 -0.175777E-06  0.408E-04    6.75      10.6  T
   4   -906.6127543 -0.973102E-08  0.148E-04    6.75      29.4  T
     SCC iter.                  ...        0 min,  1.055 sec
     gradient                   ...        0 min,  4.747 sec
 * total energy  :  -901.1471987 Eh     change       -0.3768801E-04 Eh
   gradient norm :     0.0025492 Eh/a0  converged?    E=F G=F D=F
   step length   :     0.0862893 a0

........................................................................
.............................. CYCLE   38 ..............................
........................................................................
   1   -906.6121560 -0.906612E+03  0.848E-03    6.75       0.0  T
   2   -906.6121563 -0.327133E-06  0.513E-03    6.75       1.0  T
   3   -906.6121564 -0.134400E-06  0.388E-04    6.75      11.2  T
   4   -906.6121564 -0.110094E-07  0.137E-04    6.75      31.7  T
     SCC iter.                  ...        0 min,  1.045 sec
     gradient                   ...        0 min,  4.750 sec
 * total energy  :  -901.1472281 Eh     change       -0.2941114E-04 Eh
   gradient norm :     0.0044567 Eh/a0  converged?    E=F G=F D=F
   step length   :     0.1247871 a0

........................................................................
.............................. CYCLE   39 ..............................
........................................................................
   1   -906.6123667 -0.906612E+03  0.316E-03    6.75       0.0  T
   2   -906.6123668 -0.450708E-07  0.192E-03    6.75       2.3  T
   3   -906.6123668 -0.189891E-07  0.142E-04    6.75      30.7  T
   4   -906.6123668 -0.139573E-08  0.498E-05    6.75      87.1  T
     SCC iter.                  ...        0 min,  1.045 sec
     gradient                   ...        0 min,  4.747 sec
 * total energy  :  -901.1472460 Eh     change       -0.1785361E-04 Eh
   gradient norm :     0.0028068 Eh/a0  converged?    E=F G=F D=F
   step length   :     0.0765137 a0

........................................................................
.............................. CYCLE   40 ..............................
........................................................................
   1   -906.6124637 -0.906612E+03  0.490E-03    6.76       0.0  T
   2   -906.6124638 -0.841316E-07  0.297E-03    6.76       1.5  T
   3   -906.6124638 -0.395474E-07  0.196E-04    6.76      22.1  T
   4   -906.6124638 -0.240630E-08  0.699E-05    6.76      62.1  T
     SCC iter.                  ...        0 min,  1.041 sec
     gradient                   ...        0 min,  4.744 sec
 * total energy  :  -901.1472596 Eh     change       -0.1363714E-04 Eh
   gradient norm :     0.0018196 Eh/a0  converged?    E=F G=F D=F
   step length   :     0.0692869 a0

........................................................................
.............................. CYCLE   41 ..............................
........................................................................
   1   -906.6129550 -0.906613E+03  0.426E-03    6.76       0.0  T
   2   -906.6129551 -0.102190E-06  0.256E-03    6.76       1.7  T
   3   -906.6129551 -0.271082E-07  0.220E-04    6.76      19.7  T
   4   -906.6129551 -0.398632E-08  0.601E-05    6.76      72.3  T
     SCC iter.                  ...        0 min,  1.035 sec
     gradient                   ...        0 min,  4.744 sec
 * total energy  :  -901.1472672 Eh     change       -0.7615601E-05 Eh
   gradient norm :     0.0012671 Eh/a0  converged?    E=F G=F D=F
   step length   :     0.0514986 a0

........................................................................
.............................. CYCLE   42 ..............................
........................................................................
   1   -906.6035482 -0.906604E+03  0.422E-02    6.76       0.0  T
   2   -906.6035582 -0.993396E-05  0.257E-02    6.76       1.0  T
   3   -906.6035642 -0.602298E-05  0.219E-03    6.76       2.0  T
   4   -906.6035644 -0.198627E-06  0.747E-04    6.76       5.8  T
   5   -906.6035644 -0.221471E-07  0.970E-05    6.76      44.8  T
     SCC iter.                  ...        0 min,  1.269 sec
     gradient                   ...        0 min,  4.758 sec
 * total energy  :  -901.1454528 Eh     change        0.1814446E-02 Eh
   gradient norm :     0.0422768 Eh/a0  converged?    E=F G=F D=F
   step length   :     0.5875318 a0
 * RMSD in coord.:     0.0987283 a0     energy gain  -0.2425991E-03 Eh
 * calculating model hessian...
Using Lindh-Hessian (1995)
 Shifting diagonal of input Hessian by   1.000003183973263E-002
 Lowest  eigenvalues of input Hessian
    0.010000   -0.000000   -0.000000   -0.000000   -0.000000   -0.000000
   -0.000000   -0.000000   -0.000000   -0.000000   -0.000000   -0.000000
   -0.000000   -0.000000   -0.000000   -0.000000   -0.000000   -0.000000
 Highest eigenvalues
    0.271848    0.298248    1.096511    1.200397    1.377335    1.400914
 

........................................................................
.............................. CYCLE   43 ..............................
........................................................................
   1   -906.6101583 -0.906610E+03  0.151E-02    6.76       0.0  T
   2   -906.6101603 -0.198940E-05  0.911E-03    6.76       1.0  T
   3   -906.6101614 -0.106826E-05  0.992E-04    6.76       4.4  T
   4   -906.6101614 -0.412913E-07  0.332E-04    6.76      13.1  T
   5   -906.6101614 -0.357545E-08  0.389E-05    6.76     111.7  T
     SCC iter.                  ...        0 min,  1.279 sec
     gradient                   ...        0 min,  4.801 sec
 * total energy  :  -901.1469469 Eh     change       -0.1494074E-02 Eh
   gradient norm :     0.0143091 Eh/a0  converged?    E=F G=F D=F
   step length   :     0.1211599 a0

........................................................................
.............................. CYCLE   44 ..............................
........................................................................
   1   -906.6134201 -0.906613E+03  0.869E-03    6.77       0.0  T
   2   -906.6134210 -0.864855E-06  0.529E-03    6.77       1.0  T
   3   -906.6134215 -0.526155E-06  0.685E-04    6.77       6.3  T
   4   -906.6134215 -0.169845E-07  0.208E-04    6.77      20.9  T
     SCC iter.                  ...        0 min,  1.028 sec
     gradient                   ...        0 min,  4.787 sec
 * total energy  :  -901.1471548 Eh     change       -0.2079753E-03 Eh
   gradient norm :     0.0052533 Eh/a0  converged?    E=F G=F D=F
   step length   :     0.1153198 a0

........................................................................
.............................. CYCLE   45 ..............................
........................................................................
   1   -906.6126969 -0.906613E+03  0.850E-03    6.76       0.0  T
   2   -906.6126975 -0.560300E-06  0.523E-03    6.76       1.0  T
   3   -906.6126977 -0.238344E-06  0.458E-04    6.76       9.5  T
   4   -906.6126977 -0.128305E-07  0.120E-04    6.76      36.1  T
     SCC iter.                  ...        0 min,  1.025 sec
     gradient                   ...        0 min,  4.792 sec
 * total energy  :  -901.1472229 Eh     change       -0.6807631E-04 Eh
   gradient norm :     0.0017490 Eh/a0  converged?    E=F G=F D=F
   step length   :     0.0831305 a0

........................................................................
.............................. CYCLE   46 ..............................
........................................................................
   1   -906.6108026 -0.906611E+03  0.174E-02    6.75       0.0  T
   2   -906.6108055 -0.288284E-05  0.105E-02    6.75       1.0  T
   3   -906.6108064 -0.891196E-06  0.115E-03    6.75       3.8  T
   4   -906.6108065 -0.890327E-07  0.273E-04    6.75      15.9  T
   5   -906.6108065 -0.665864E-09  0.272E-05    6.75     159.7  T
     SCC iter.                  ...        0 min,  1.234 sec
     gradient                   ...        0 min,  4.731 sec
 * total energy  :  -901.1471787 Eh     change        0.4426705E-04 Eh
   gradient norm :     0.0123082 Eh/a0  converged?    E=F G=F D=F
   step length   :     0.2254752 a0

........................................................................
.............................. CYCLE   47 ..............................
........................................................................
   1   -906.6124210 -0.906612E+03  0.889E-03    6.76       0.0  T
   2   -906.6124219 -0.950630E-06  0.541E-03    6.76       1.0  T
   3   -906.6124222 -0.305463E-06  0.674E-04    6.76       6.4  T
   4   -906.6124223 -0.284601E-07  0.151E-04    6.76      28.8  T
     SCC iter.                  ...        0 min,  0.909 sec
     gradient                   ...        0 min,  4.729 sec
 * total energy  :  -901.1472699 Eh     change       -0.9124782E-04 Eh
   gradient norm :     0.0031818 Eh/a0  converged?    E=F G=F D=F
   step length   :     0.0630220 a0

........................................................................
.............................. CYCLE   48 ..............................
........................................................................
   1   -906.6128299 -0.906613E+03  0.122E-03    6.76       0.0  T
   2   -906.6128299 -0.245673E-07  0.729E-04    6.76       6.0  T
   3   -906.6128299 -0.698367E-08  0.114E-04    6.76      38.1  T
     SCC iter.                  ...        0 min,  0.687 sec
     gradient                   ...        0 min,  4.728 sec
 * total energy  :  -901.1472763 Eh     change       -0.6401691E-05 Eh
   gradient norm :     0.0012876 Eh/a0  converged?    E=F G=F D=F
   step length   :     0.0156474 a0

........................................................................
.............................. CYCLE   49 ..............................
........................................................................
   1   -906.6131187 -0.906613E+03  0.151E-03    6.76       0.0  T
   2   -906.6131187 -0.256067E-07  0.904E-04    6.76       4.8  T
   3   -906.6131187 -0.752732E-08  0.113E-04    6.76      38.3  T
     SCC iter.                  ...        0 min,  0.762 sec
     gradient                   ...        0 min,  4.744 sec
 * total energy  :  -901.1472792 Eh     change       -0.2869755E-05 Eh
   gradient norm :     0.0007641 Eh/a0  converged?    E=F G=T D=F
   step length   :     0.0306594 a0

........................................................................
.............................. CYCLE   50 ..............................
........................................................................
   1   -906.6130157 -0.906613E+03  0.112E-03    6.76       0.0  T
   2   -906.6130157 -0.711088E-08  0.684E-04    6.76       6.3  T
   3   -906.6130157 -0.278169E-08  0.519E-05    6.76      83.6  T
     SCC iter.                  ...        0 min,  0.763 sec
     gradient                   ...        0 min,  4.742 sec
 * total energy  :  -901.1472807 Eh     change       -0.1482377E-05 Eh
   gradient norm :     0.0003735 Eh/a0  converged?    E=F G=T D=F
   step length   :     0.0129931 a0

........................................................................
.............................. CYCLE   51 ..............................
........................................................................
   1   -906.6128167 -0.906613E+03  0.220E-03    6.76       0.0  T
   2   -906.6128167 -0.240912E-07  0.134E-03    6.76       3.2  T
   3   -906.6128167 -0.107780E-07  0.952E-05    6.76      45.6  T
   4   -906.6128167 -0.474074E-09  0.282E-05    6.76     154.1  T
     SCC iter.                  ...        0 min,  1.025 sec
     gradient                   ...        0 min,  4.743 sec
 * total energy  :  -901.1472818 Eh     change       -0.1121426E-05 Eh
   gradient norm :     0.0006347 Eh/a0  converged?    E=F G=T D=F
   step length   :     0.0242985 a0

........................................................................
.............................. CYCLE   52 ..............................
........................................................................
   1   -906.6128719 -0.906613E+03  0.545E-04    6.75       0.0  T
   2   -906.6128719 -0.104615E-08  0.330E-04    6.75      13.2  T
   3   -906.6128719 -0.347427E-09  0.202E-05    6.75     215.3  T
     SCC iter.                  ...        0 min,  0.782 sec
     gradient                   ...        0 min,  4.740 sec
 * total energy  :  -901.1472822 Eh     change       -0.4198259E-06 Eh
   gradient norm :     0.0003685 Eh/a0  converged?    E=T G=T D=F
   step length   :     0.0066013 a0

   *** GEOMETRY OPTIMIZATION CONVERGED AFTER 52 CYCLES ***

------------------------------------------------------------------------
 total energy gain   :        -0.0159600 Eh      -10.0151 kcal/mol
 total RMSD          :         0.3102544 a0        0.1642 Å
 total power (kW/mol):        -0.8058263 (step)   -0.1208 (real)
------------------------------------------------------------------------

 L-ANCopt (total)              0 d,  0 h,  5 min, 46.764 sec
 setup                          ...        0 min,  0.029 sec (  0.008%)
 model hessian                  ...        0 min, 11.482 sec (  3.311%)
 ANC generation                 ...        0 min,  2.964 sec (  0.855%)
 coordinate transformation      ...        0 min,  0.004 sec (  0.001%)
 Rational function              ...        0 min,  0.000 sec (  0.000%)
 singlepoint calculation        ...        5 min, 32.028 sec ( 95.750%)
 optimization log               ...        0 min,  0.248 sec (  0.072%)
 hessian update                 ...        0 min,  0.001 sec (  0.000%)

================
 final structure:
================
$coord
        3.39503581389649       -5.66227814494704       -1.69582537598106      o
        1.64257327024995       -5.82590077529014       -2.27049269350684      h
        3.99595595264185       -7.39735742934251       -1.60384742515187      h
        0.45827965566721       -9.43207886125082        1.28270351488042      o
        1.77547155182022       -9.09855672161674        2.53890999397588      h
        1.32469713531838      -10.01064240647928       -0.21329946472177      h
        5.47773169693409        6.73100879126992        0.91414135293763      o
        6.05828033124525        5.32747972938334       -0.12425499198530      h
        4.85423155031243        5.96404058575826        2.48953787942211      h
        8.22015141939424       -1.98687663147078       -1.29081698276503      o
        8.01522495467825       -2.58155946629304       -3.00678509673837      h
        9.99152117383123       -1.63377123121305       -0.99508967467721      h
       -9.80250259110644        2.24551587478824       11.20590966758384      o
       -8.92549809812326        3.84585340042939       11.54028889317532      h
       -8.79634759267434        0.93537853346332       12.00338725723004      h
        4.01034230816945      -10.59905862489282       -2.64339204447242      o
        3.17711164969553      -10.37570756611917       -4.27826112350632      h
        5.66557239251528      -11.35190269060236       -2.99660707774799      h
       -6.06040792266787       -7.81718445252218        5.35910003936891      o
       -5.46477405397214       -9.42350786199841        6.04236635432839      h
       -4.86093456529026       -7.28652578135881        4.03434404229629      h
        8.31590776500214       -5.93058874789916        8.08870027426988      o
        8.01793827213969       -5.01987028675469        6.51005649335536      h
        6.68655745373761       -6.52171485656925        8.72867183238536      h
       -3.53066082979399       -6.27889207862193        1.43962107385230      o
       -4.70112225929880       -6.78178776389576        0.09657221438345      h
       -1.98035653119348       -7.23389166571478        1.16830967755584      h
        3.66184448061771        4.72898720250904        5.05009145082891      o
        1.83295592614950        4.58208706133292        4.96922285625032      h
        4.01149259663975        6.16031647505075        6.17384159459158      h
       -0.88363731389414       -1.14366863345692       -4.52415790712565      o
       -0.96711302957298       -0.24466487996931       -6.12087715390587      h
       -2.33845803559393       -0.62698405067494       -3.54737205790001      h
        5.00970189120539        8.60159099599610        7.97229745473228      o
        5.98455794547908        7.52947997143452        9.12239322567846      h
        6.11870699583918        9.75236955325610        7.07217955888593      h
       -1.93192694599374        4.75027738682498       -0.22627756056541      o
       -0.89318652279219        6.10864109939183       -0.87927798768296      h
       -3.12390456158264        5.54729327068906        0.92823970364926      h
       -9.32094914679393        5.54929512277278        6.64363372284755      o
      -10.27771892560142        5.89603472416800        8.16604848647646      h
       -8.96503775842469        7.23143437361655        5.97162283239521      h
       -0.63864095104623        0.34200731509303       -9.38768439142677      o
       -1.45126166834725       -1.25165184743485       -9.84439236202379      h
       -0.88701699710231        1.48743854677383      -10.77690477175946      h
       -1.85539488450152       10.36111588770448       -5.33922110144623      o
       -2.33088709537644        9.91309591345664       -3.61139633343770      h
       -1.32791679086877       12.13046410309043       -5.19465494700142      h
       -5.50547334497979        0.40594045878129       -7.05690396427802      o
       -7.21169960685663        0.84904112092804       -7.52303062229090      h
       -5.38604744145688        0.73871947690996       -5.24309271981867      h
        1.58616721682431       -4.63383127196391       -7.58101364956622      o
        1.51567376440250       -6.44005624221022       -7.24966846912455      h
        0.38525471483738       -3.85814561948527       -6.45123345870794      h
        7.34798252649816        1.50255819911569        2.50460987893022      o
        8.36814151367621        3.01866563748414        2.64539845495247      h
        7.59819381996912        0.85868307625377        0.81538935271107      h
        7.30432981644006       -3.35357335800958        3.79755551702774      o
        7.56108955437700       -1.53425182593752        3.59167496880024      h
        7.59277742584750       -4.06877714851176        2.14443697977273      h
       -6.34708748879259       10.78635387960793       -7.52332830817144      o
       -4.61617178485842       10.54367172296927       -6.89210517644014      h
       -6.74660192106668        9.21505456640557       -8.40017161943069      h
        3.94690468483169        0.10314922262551       -7.10171265768405      o
        3.39404401069710        1.47802275895296       -6.02596151901934      h
        2.57481022181649       -0.09563871225325       -8.30829870788445      h
       10.35975897849414        5.73022338016015        2.43895665225049      o
       11.80642550891100        4.84014558146470        3.17133801346460      h
        9.98934859426904        7.10582408265132        3.55609974018880      h
       16.63174633996888       -2.30754577511462        1.48781483901965      o
       17.67435117109940       -3.69206482096450        0.96904062033931      h
       15.56541584421218       -2.91019159534398        2.86662294861591      h
       -9.52419965892005        2.64385988751838       -0.70407876615899      o
      -11.23098787068165        2.05544188879164       -0.46358110097154      h
       -9.57554001432313        4.49091473394017       -0.65386143085565      h
        6.37527153150800        3.17443765062662       -2.70680466276956      o
        5.83934387921404        4.62551925492742       -3.74021626590725      h
        8.11330661071896        2.86157648743239       -3.18053311587919      h
       -9.06213006016248       -5.31686821330800        8.68442584418833      o
       -7.84289025420315       -6.12163705749624        7.55408663062797      h
       -9.24377303627935       -3.59049442354872        8.00954836721495      h
       -2.63413852685424       -4.05587830115358      -11.05140304517220      o
       -4.18271597819488       -3.56349196429921      -11.90946719573774      h
       -1.25365700465393       -4.09840350679493      -12.25440081552279      h
      -13.10553094439430        6.58632994849616       -8.49974968765544      o
      -13.39734094922936        5.97876059262306       -6.78322071454485      h
      -13.80505237318586        5.32284660020835       -9.60175690467575      h
       14.39879594240479       -5.84678276235666        9.38696796721926      o
       13.70679642205348       -7.53580866456697        9.36746370620723      h
       13.39039287024819       -4.86313738670670       10.55725002090918      h
       10.18675401282371      -10.56329299108257       -7.79129848059103      o
       11.58563135101513      -10.05182291676714       -8.81827604005134      h
        8.67913730911128       -9.72268182404641       -8.50151701908167      h
      -17.43400747756992       -5.46586694087766        0.73542679348052      o
      -15.67337926368948       -5.11484855263825        0.29792280170883      h
      -17.40597807868785       -6.08915073183488        2.45636301680576      h
       -4.72584660459492        1.13949706210005       -1.99586245183745      o
       -6.46191306614303        1.61635306815722       -1.64370989694459      h
       -3.73536475055572        2.68112456457602       -1.64545664736215      h
       -2.55083883441963      -11.66973661320822       -2.89692988545955      o
       -3.38078454901704      -11.84733417853130       -1.28580863338592      h
       -1.23285089480211      -12.97134716181922       -2.84625804442241      h
        2.85161146834271       -3.55595670210766        6.27239946005923      o
        4.46827180687958       -3.02303475058480        5.57696884650604      h
        2.08491771963163       -2.04425694747125        7.01769452867255      h
       12.76566070205000      -11.87314252260224       -1.13963018081888      o
       12.68429177171937      -10.95389016224854        0.44714962582090      h
       14.05153360104548      -11.04306144485587       -2.13597132253409      h
        5.68596316572588        0.96051289071469        7.77494270313170      o
        5.05683918541733        2.12453283706674        6.48712131337761      h
        7.42464982017722        0.53291530932336        7.30691846735699      h
      -12.63075377086306       -4.08310032520967        0.04118399551070      o
      -11.78990440764729       -5.42591380702797        0.97326804311491      h
      -11.36826495492237       -3.44876923358273       -1.15931136062377      h
       11.13289590712931        2.47162839555969       -4.32027328404799      o
       12.61912746307532        2.74467138534960       -5.39364226724342      h
       11.75765442944346        1.64427093862660       -2.80034599710066      h
       -2.76761532307777        4.72745959397458       -7.09503669356563      o
       -3.58947768390700        3.17697449262979       -7.65357718205891      h
       -3.83978721156645        5.36376473717152       -5.71221382963069      h
        8.11421866124752       -8.16698386340203        0.93275727399860      o
        9.77317078685398       -8.26596648975395        1.70473316370310      h
        8.42571520930345       -8.03192748531900       -0.88372204372434      h
        0.70741353681702       -3.30022030690155       12.16348892524461      o
        0.73131637383637       -1.97005125617248       10.90657567749584      h
       -0.45109032859698       -2.65318529466030       13.47930834820823      h
        5.73397962395140       -1.49901775295448       12.45759981466655      o
        4.09589283276927       -2.18254739215811       12.87314842667302      h
        5.54102427322873       -0.63837003747724       10.85499896027386      h
       -4.18005103771752       -2.01357953911204        7.25530629396294      o
       -3.67631199042724       -3.76472850988189        7.57157145320116      h
       -4.14675500417418       -1.73980720656831        5.43763753019163      h
        1.61049341897229        4.06211496559843       -4.96483757483897      o
       -0.03352102337059        4.17728420718634       -5.83801074086150      h
        1.64427395444010        5.51873825776663       -3.86900689288973      h
       -3.51992995485291        9.90287970858704       -0.60887390720365      o
       -4.74082038200133       11.10950691286266        0.03555811922242      h
       -2.41552433035544        9.49704872711341        0.81704158130025      h
       -7.29032621375432       -7.66700139061285       -1.69631809046414      o
       -6.59031915128159       -8.30974745872434       -3.28216381577193      h
       -7.87894469029109       -9.14934342530188       -0.75963693224558      h
       -9.44197899905972       -0.61284497542777        6.97946768782297      o
      -10.90486024739412       -0.64920131110683        5.84738172195768      h
       -9.80055832217624        0.56904675117956        8.34820207901729      h
       15.03669365460291        6.97922081553754       -4.74875261477730      o
       13.23217366955669        7.12125668551986       -4.42952824087799      h
       15.64861216617695        6.05671985205874       -3.26334300532818      h
       -6.32751857345459        2.70829582700148      -11.91379964531842      o
       -6.66574389364433        0.92157573078291      -12.12000827076416      h
       -4.63858968089815        2.99194639448335      -12.54395588672952      h
      -13.20520031605198       -0.74445562248990        3.71421146989356      o
      -14.77682082086950       -1.06793053805536        4.62866336660219      h
      -13.07148054075500       -1.92997623972065        2.29003268432396      h
        1.63663737610248        3.85430896142546       11.89196282092520      o
        1.54784532521268        2.42072342923103       10.75924570832860      h
        0.04174502623641        3.84782678189951       12.80083011579119      h
      -13.18916716565173        5.38809173622410       -3.53027644989858      o
      -14.11115490809181        6.95175188177955       -3.23119833890822      h
      -13.98413744196279        4.11648975486785       -2.48154698616293      h
       -6.74075347738796        1.97506383210907        3.47028453773929      o
       -7.56516820923175        0.85307952027240        4.66450579433427      h
       -7.79775182648656        1.93722851601690        1.96899700603358      h
       10.56878696393299       -2.99475508717462       11.51706158519010      o
        9.23472848360805       -2.28541680173527       12.54780203971512      h
        9.66491445682685       -4.17213063275052       10.40385311681935      h
       15.70006582161027        4.47894674518081       -0.49321235421388      o
       14.51829907902665        3.07918084537583       -0.37118940617401      h
       17.34169825533018        3.79668275862428        0.08831877357067      h
      -15.58617977801251        6.36956938814771        6.91080897958103      o
      -14.60793419448786        5.68571035289831        5.47917416406000      h
      -17.00003115345812        7.23645396856200        6.19099026874214      h
        3.63890288464156        1.83295099547833      -12.63532503078046      o
        2.10110152522323        2.42570081979915      -13.42261305710670      h
        4.00007408840584        3.07742053466105      -11.31004539858172      h
       -6.02455933197287       -8.95632402911625       11.40136572327236      o
       -7.56042099636109       -8.05814820141556       11.03420867555807      h
       -4.65737604295791       -7.84426029606725       10.84918603815179      h
        6.46702092943071       11.61793233008672       -0.08919208205867      o
        8.12327339349165       11.98889781715147       -0.80872814735445      h
        6.33257244179339        9.78776887956180        0.17904522352242      h
      -10.47908479476405        1.28898608776511       -5.84506466774405      o
      -10.86863823834840        2.90172484206662       -5.08082255443107      h
       -9.70347308272520        0.27316462785799       -4.50023021529588      h
      -11.94480109670163        8.78065093783266        9.78375127249878      o
      -11.22336587517171        9.91348667476519        8.54296307857149      h
      -13.50863992719327        8.16911776216598        9.05110586838099      h
      -12.80747538924875       13.39267979844202       -1.51596524064852      o
      -11.98588647535676       12.36388212751463       -2.81043635000729      h
      -11.50565966855963       14.42199873818738       -0.78077854271413      h
       -9.73471150139825        7.80993791551087       -0.21536583185641      o
      -11.31954556456298        8.11271101369705        0.69192047689169      h
      -10.07523162559983        8.26285395691263       -1.97250364386647      h
       12.64686635910956        0.33624884164533        0.09787336213030      o
       14.14085229890583       -0.75165044866067        0.20292370367381      h
       12.52571137845200        1.01879059674546        1.82509758318122      h
        7.32940322737693       12.02570523362897        4.96526175841279      o
        9.08442443067187       11.52685092193934        5.15754638927561      h
        7.01078886893156       12.06802800634307        3.14710603513320      h
        9.60512161784797       -7.47979866613965       -3.84385722546257      o
        8.65164515364943       -6.22725823365830       -4.78094034104780      h
       10.07182131031055       -8.76781179731623       -5.08521890680035      h
       -0.29968443447607        8.62212664146029        3.15852261527676      o
        0.29368996751654        9.88920369801970        4.32371949259668      h
       -0.91438480651860        7.21113912906533        4.14494196556788      h
       -2.70565137624776       -1.09599833069155       15.00234650710546      o
       -4.28971288108182       -1.71082471004049       14.31353779846988      h
       -2.74495039620657        0.70780295754555       14.66186463756994      h
       -7.38019778760102       -2.93393552738956        2.16881546818451      o
       -5.72511744495594       -3.69098495275512        2.03393043514416      h
       -8.50514029079769       -4.25198936382868        2.72390125380657      h
       10.75479971021724       -4.84295424996131       -9.03900652288258      o
        9.98164647777731       -5.07310902097254      -10.67554642578696      h
       10.14359864877849       -3.20005287546560       -8.46849508763754      h
      -10.42346731622710       -7.40616110337208        3.07329728889015      o
      -11.50530550859370       -7.67863077260664        4.55596812323334      h
       -8.72822021792857       -7.87853514000247        3.67786694273481      h
        6.18837979451379       -4.23384691341464       -5.53525585150905      o
        5.20451035764468       -2.93449784973761       -6.39054459917741      h
        5.04114467957200       -4.88258478302612       -4.21501148499730      h
        8.68942097889796        0.33535174243954      -13.01767985778254      o
        7.00967115480794        1.00885183274981      -13.29050598035877      h
        8.83638169712667        0.13962274399313      -11.18515909603210      h
      -17.38553656122664        2.22105543027290       -5.81091387429957      o
      -16.30161807482054        1.86748192656693       -4.36842923276490      h
      -16.31380338962247        2.07145478133370       -7.31591744512529      h
       14.74235286414075       -1.71989777753976       -4.24506007438724      o
       14.84609497581185       -0.27987831903738       -5.36807640487177      h
       14.99417013894380       -3.19230930085772       -5.34940636526771      h
       13.00231544908138       -5.32115479962502       -0.93574068281014      o
       11.63250961917642       -6.04069498810287       -1.94917955998296      h
       13.53309706070940       -3.80647245348091       -1.80773352373375      h
      -18.18954764553003       -6.29309316504484       -4.46726786294159      o
      -19.01387734178090       -4.72399441011338       -4.90798630613983      h
      -18.14380203299008       -6.29343099474736       -2.63964200237965      h
        0.18079451184158        0.19459473409558        8.32359263151302      o
        0.09001910191399        1.64636428860085        7.17625639430741      h
       -1.49161300052602       -0.59671559318498        8.10835820968616      h
        8.87798243522355       -0.18938729207719       -7.97941045407229      o
        9.71990216642716        0.75815494962879       -6.64546983386857      h
        7.06456686725346        0.03854477382521       -7.72333847017529      h
        0.06360604214491        7.56714378429224        8.68589327156710      o
        0.48593814745560        6.26719110454577        9.92168451852793      h
        1.61422630613358        8.49927999494789        8.46889486010814      h
        9.27872252825174        6.32273984298067       -8.15959789258140      o
        7.47682055914801        5.97815570079363       -8.48795711232817      h
        9.64909593167358        5.60641066454804       -6.52632375396539      h
        4.26983095230357       -8.23698869996777        4.30809803448656      o
        3.67146549324473       -6.60735825080434        4.86615698376752      h
        5.61308361984659       -7.93260508227360        3.09447845037786      h
      -14.84097249435476        1.03220591999582       -1.28114118717168      o
[...]
   157   8 o      158   1 h                                       0.9735340
   157   8 o      159   1 h                                       0.9683774
   160   8 o      161   1 h                                       0.9706722
   160   8 o      162   1 h                                       0.9718065
   163   8 o      164   1 h                                       0.9678736
   163   8 o      165   1 h                                       0.9818245
   166   8 o      167   1 h                                       0.9715566
   166   8 o      168   1 h                                       0.9898048
   169   8 o      170   1 h                                       0.9863452
   169   8 o      171   1 h                                       0.9567144
   172   8 o      173   1 h                                       0.9665286
   172   8 o      174   1 h                                       0.9808376
   175   8 o      176   1 h                                       0.9613558
   175   8 o      177   1 h                                       0.9773000
   178   8 o      179   1 h                                       0.9755422
   178   8 o      180   1 h                                       0.9814100
   181   8 o      182   1 h                                       0.9666353
   181   8 o      183   1 h                                       0.9817695
   184   8 o      185   1 h                                       0.9675903
   184   8 o      186   1 h                                       0.9694686
   187   8 o      188   1 h                                       0.9770579
   187   8 o      189   1 h                                       0.9605290
   190   8 o      191   1 h                                       0.9795554
   190   8 o      192   1 h                                       0.9769908
   193   8 o      194   1 h                                       0.9795576
   193   8 o      195   1 h                                       0.9848734
   196   8 o      197   1 h                                       0.9708533
   196   8 o      198   1 h                                       0.9770447
   199   8 o      200   1 h                                       0.9694348
   199   8 o      201   1 h                                       0.9783005
   202   8 o      203   1 h                                       0.9635185
   202   8 o      204   1 h                                       0.9673623
   205   8 o      206   1 h                                       0.9702461
   205   8 o      207   1 h                                       0.9716091
   208   8 o      209   1 h                                       0.9657461
   208   8 o      210   1 h                                       0.9628819
   211   8 o      212   1 h                                       0.9655129
   211   8 o      213   1 h                                       0.9754927
   214   8 o      215   1 h                                       0.9818950
   214   8 o      216   1 h                                       0.9846828
   217   8 o      218   1 h                                       0.9740062
   217   8 o      219   1 h                                       0.9871751
   220   8 o      221   1 h                                       0.9684950
   220   8 o      222   1 h                                       0.9783398
   223   8 o      224   1 h                                       0.9729749
   223   8 o      225   1 h                                       0.9809108
   226   8 o      227   1 h                                       0.9679148
   226   8 o      228   1 h                                       0.9830439
   229   8 o      230   1 h                                       0.9787869
   229   8 o      231   1 h                                       0.9665801
   232   8 o      233   1 h                                       0.9665018
   232   8 o      234   1 h                                       0.9674410
   235   8 o      236   1 h                                       0.9803722
   235   8 o      237   1 h                                       0.9856691
   238   8 o      239   1 h                                       0.9737527
   238   8 o      240   1 h                                       0.9766155
   241   8 o      242   1 h                                       0.9750974
   241   8 o      243   1 h                                       0.9642634
   244   8 o      245   1 h                                       0.9862321
   244   8 o      246   1 h                                       0.9639002
   247   8 o      248   1 h                                       0.9649568
   247   8 o      249   1 h                                       0.9714186
   250   8 o      251   1 h                                       0.9756297
   250   8 o      252   1 h                                       0.9805545
   253   8 o      254   1 h                                       0.9562905 (min)
   253   8 o      255   1 h                                       0.9799916
   256   8 o      257   1 h                                       0.9636381
   256   8 o      258   1 h                                       0.9748564
   259   8 o      260   1 h                                       0.9784528
   259   8 o      261   1 h                                       0.9768548
   262   8 o      263   1 h                                       0.9669552
   262   8 o      264   1 h                                       0.9681216
   265   8 o      267   1 h                                       0.9574816
   268   8 o      269   1 h                                       0.9852508
   268   8 o      270   1 h                                       0.9841656
   271   8 o      272   1 h                                       0.9714271
   271   8 o      273   1 h                                       0.9672696
   274   8 o      275   1 h                                       0.9771565
   274   8 o      276   1 h                                       0.9699042
   277   8 o      278   1 h                                       0.9817670
   277   8 o      279   1 h                                       0.9571813
   280   8 o      281   1 h                                       0.9875085
   280   8 o      282   1 h                                       0.9746919
   283   8 o      284   1 h                                       0.9808562
   283   8 o      285   1 h                                       0.9707088
   286   8 o      287   1 h                                       0.9738369
   286   8 o      288   1 h                                       0.9568184
   289   8 o      290   1 h                                       0.9829982
   289   8 o      291   1 h                                       0.9691318
   292   8 o      293   1 h                                       0.9710549
   292   8 o      294   1 h                                       0.9913082
   295   8 o      296   1 h                                       0.9867228
   295   8 o      297   1 h                                       0.9568003
   298   8 o      299   1 h                                       0.9687558
   298   8 o      300   1 h                                       0.9644307
   301   8 o      302   1 h                                       0.9685531
   301   8 o      303   1 h                                       0.9671219
   304   8 o      305   1 h                                       0.9658216
   304   8 o      306   1 h                                       0.9700651
   307   8 o      308   1 h                                       0.9723899
   307   8 o      309   1 h                                       0.9748066
   310   8 o      311   1 h                                       0.9824385
   310   8 o      312   1 h                                       0.9741007
   313   8 o      314   1 h                                       0.9678066
   313   8 o      315   1 h                                       0.9616926
   316   8 o      317   1 h                                       0.9973523 (max)
   316   8 o      318   1 h                                       0.9723725
   319   8 o      320   1 h                                       0.9681070
   319   8 o      321   1 h                                       0.9661773
   322   8 o      323   1 h                                       0.9698361
   322   8 o      324   1 h                                       0.9687812
   325   8 o      326   1 h                                       0.9651992
   325   8 o      327   1 h                                       0.9828913
   328   8 o      329   1 h                                       0.9904051
   328   8 o      330   1 h                                       0.9563722
   331   8 o      332   1 h                                       0.9815052
   331   8 o      333   1 h                                       0.9567795
   334   8 o      335   1 h                                       0.9693175
   334   8 o      336   1 h                                       0.9718165
   337   8 o      338   1 h                                       0.9816995
   337   8 o      339   1 h                                       0.9739085
   340   8 o      341   1 h                                       0.9719949
   340   8 o      342   1 h                                       0.9822249
   343   8 o      344   1 h                                       0.9708575
   343   8 o      345   1 h                                       0.9694757
   346   8 o      347   1 h                                       0.9655996
   346   8 o      348   1 h                                       0.9625190
   349   8 o      350   1 h                                       0.9700527
   349   8 o      351   1 h                                       0.9681283
   352   8 o      353   1 h                                       0.9786275
   352   8 o      354   1 h                                       0.9750538
   355   8 o      356   1 h                                       0.9604865
   355   8 o      357   1 h                                       0.9794932
   358   8 o      359   1 h                                       0.9693715
   358   8 o      360   1 h                                       0.9738625
   361   8 o      363   1 h                                       0.9570442
   364   8 o      365   1 h                                       0.9817340
   364   8 o      366   1 h                                       0.9756234
   367   8 o      368   1 h                                       0.9817231
   367   8 o      369   1 h                                       0.9655370
   370   8 o      371   1 h                                       0.9702908
   370   8 o      372   1 h                                       0.9662995
   373   8 o      374   1 h                                       0.9701817
   373   8 o      375   1 h                                       0.9647095
   376   8 o      377   1 h                                       0.9567067
   376   8 o      378   1 h                                       0.9860818
   379   8 o      380   1 h                                       0.9768800
   379   8 o      381   1 h                                       0.9683783
   382   8 o      383   1 h                                       0.9637329
   382   8 o      384   1 h                                       0.9712670
   385   8 o      386   1 h                                       0.9715603
   385   8 o      387   1 h                                       0.9838316
   388   8 o      389   1 h                                       0.9811469
   388   8 o      390   1 h                                       0.9610577
   391   8 o      392   1 h                                       0.9786393
   391   8 o      393   1 h                                       0.9646464
   394   8 o      395   1 h                                       0.9817477
   394   8 o      396   1 h                                       0.9748344
   397   8 o      398   1 h                                       0.9566863
   397   8 o      399   1 h                                       0.9866055
   400   8 o      401   1 h                                       0.9765844
   400   8 o      402   1 h                                       0.9597957
   403   8 o      404   1 h                                       0.9812993
   403   8 o      405   1 h                                       0.9720149
   406   8 o      407   1 h                                       0.9797226
   406   8 o      408   1 h                                       0.9689171
   409   8 o      410   1 h                                       0.9717886
   409   8 o      411   1 h                                       0.9705969
   412   8 o      413   1 h                                       0.9812252
   412   8 o      414   1 h                                       0.9790792
   415   8 o      416   1 h                                       0.9752473
   415   8 o      417   1 h                                       0.9848473
   418   8 o      419   1 h                                       0.9798741
   418   8 o      420   1 h                                       0.9617213
   421   8 o      422   1 h                                       0.9719906
   421   8 o      423   1 h                                       0.9689855
   424   8 o      425   1 h                                       0.9716871
   424   8 o      426   1 h                                       0.9935853
   427   8 o      428   1 h                                       0.9566208
   430   8 o      431   1 h                                       0.9782377
   430   8 o      432   1 h                                       0.9797865
   433   8 o      434   1 h                                       0.9688918
   433   8 o      435   1 h                                       0.9713000
   436   8 o      437   1 h                                       0.9573989
   436   8 o      438   1 h                                       0.9804890
   439   8 o      440   1 h                                       0.9748914
   439   8 o      441   1 h                                       0.9921844
   442   8 o      443   1 h                                       0.9644441
   442   8 o      444   1 h                                       0.9824798
   445   8 o      446   1 h                                       0.9846859
   445   8 o      447   1 h                                       0.9603069
   448   8 o      449   1 h                                       0.9571405
   448   8 o      450   1 h                                       0.9669986
   451   8 o      452   1 h                                       0.9638195
   451   8 o      453   1 h                                       0.9793059
   454   8 o      455   1 h                                       0.9707727
   454   8 o      456   1 h                                       0.9743864
   457   8 o      458   1 h                                       0.9802554
   457   8 o      459   1 h                                       0.9564096
   460   8 o      461   1 h                                       0.9888576
   460   8 o      462   1 h                                       0.9563792
   463   8 o      464   1 h                                       0.9683361
   463   8 o      465   1 h                                       0.9754214
   466   8 o      467   1 h                                       0.9795609
   466   8 o      468   1 h                                       0.9774783
   469   8 o      470   1 h                                       0.9646657
   469   8 o      471   1 h                                       0.9693057
   472   8 o      473   1 h                                       0.9621363
   472   8 o      474   1 h                                       0.9704973
   475   8 o      476   1 h                                       0.9733657
   475   8 o      477   1 h                                       0.9750181
   478   8 o      479   1 h                                       0.9648480
   478   8 o      480   1 h                                       0.9716776
   481   8 o      482   1 h                                       0.9646668
   481   8 o      483   1 h                                       0.9833669
   484   8 o      485   1 h                                       0.9785897
   484   8 o      486   1 h                                       0.9737862
   487   8 o      488   1 h                                       0.9646520
   487   8 o      489   1 h                                       0.9799198
   490   8 o      491   1 h                                       0.9682606
   490   8 o      492   1 h                                       0.9653847
   493   8 o      494   1 h                                       0.9866019
   493   8 o      495   1 h                                       0.9612959
   496   8 o      497   1 h                                       0.9737343
   496   8 o      498   1 h                                       0.9733785
   499   8 o      500   1 h                                       0.9766447
   499   8 o      501   1 h                                       0.9771767
   502   8 o      503   1 h                                       0.9722067
   502   8 o      504   1 h                                       0.9852720
   505   8 o      506   1 h                                       0.9690945
   505   8 o      507   1 h                                       0.9738977
   508   8 o      509   1 h                                       0.9788537
   508   8 o      510   1 h                                       0.9684341
   511   8 o      512   1 h                                       0.9789354
   511   8 o      513   1 h                                       0.9696250
   514   8 o      515   1 h                                       0.9739241
   514   8 o      516   1 h                                       0.9733746
   517   8 o      518   1 h                                       0.9822159
   517   8 o      519   1 h                                       0.9629488
   520   8 o      521   1 h                                       0.9749200
   520   8 o      522   1 h                                       0.9819819
   523   8 o      524   1 h                                       0.9870707
   523   8 o      525   1 h                                       0.9622093
   526   8 o      527   1 h                                       0.9728474
   526   8 o      528   1 h                                       0.9598984
   529   8 o      530   1 h                                       0.9612831
   529   8 o      531   1 h                                       0.9579680

 * 1 distinct bonds (by element types)

   Z      Z             #   av. dist./Å        max./Å        min./Å
   1 H    8 O         351     0.9731084     0.9973523     0.9562905


optimized geometry written to: xtbopt.coord


           -------------------------------------------------
          | TOTAL ENERGY             -901.147282198682 Eh   |
          | GRADIENT NORM               0.001151766011 Eh/α |
          | HOMO-LUMO GAP               6.754946096070 eV   |
           -------------------------------------------------

------------------------------------------------------------------------
 * finished run on 2022/11/17 at 06:54:49.155     
------------------------------------------------------------------------
 total:
 * wall-time:     0 d,  0 h,  6 min,  1.170 sec
 *  cpu-time:     0 d,  0 h,  9 min, 22.983 sec
 * ratio c/w:     1.559 speedup
 SCF:
 * wall-time:     0 d,  0 h,  0 min,  7.849 sec
 *  cpu-time:     0 d,  0 h,  0 min, 12.930 sec
 * ratio c/w:     1.647 speedup
 ANC optimizer:
 * wall-time:     0 d,  0 h,  5 min, 52.713 sec
 *  cpu-time:     0 d,  0 h,  9 min,  9.012 sec
 * ratio c/w:     1.557 speedup

