      -----------------------------------------------------------      
     |                   =====================                   |     
     |                           x T B                           |     
     |                   =====================                   |     
     |                         S. Grimme                         |     
     |          Mulliken Center for Theoretical Chemistry        |     
     |                    University of Bonn                     |     
      -----------------------------------------------------------      

   * xtb version 6.5.1 (579679a) compiled by 'ehlert@majestix' on 2022-07-11

   xtb is free software: you can redistribute it and/or modify it under
   the terms of the GNU Lesser General Public License as published by
   the Free Software Foundation, either version 3 of the License, or
   (at your option) any later version.
   
   xtb is distributed in the hope that it will be useful,
   but WITHOUT ANY WARRANTY; without even the implied warranty of
   MERCHANTABILITY or FITNESS FOR A PARTICULAR PURPOSE.  See the
   GNU Lesser General Public License for more details.
   
   Cite this work as:
   * C. Bannwarth, E. Caldeweyher, S. Ehlert, A. Hansen, P. Pracht,
     J. Seibert, S. Spicher, S. Grimme, WIREs Comput. Mol. Sci., 2020, 11,
     e01493. DOI: 10.1002/wcms.1493
   
   for GFN2-xTB:
   * C. Bannwarth, S. Ehlert and S. Grimme., J. Chem. Theory Comput., 2019,
     15, 1652-1671. DOI: 10.1021/acs.jctc.8b01176
   for GFN1-xTB:
   * S. Grimme, C. Bannwarth, P. Shushkov, J. Chem. Theory Comput., 2017,
     13, 1989-2009. DOI: 10.1021/acs.jctc.7b00118
   for GFN0-xTB:
   * P. Pracht, E. Caldeweyher, S. Ehlert, S. Grimme, ChemRxiv, 2019, preprint.
     DOI: 10.26434/chemrxiv.8326202.v1
   for GFN-FF:
   * S. Spicher and S. Grimme, Angew. Chem. Int. Ed., 2020, 59, 15665-15673.
     DOI: 10.1002/anie.202004239
   
   for ALPB and GBSA implicit solvation:
   * S. Ehlert, M. Stahn, S. Spicher, S. Grimme, J. Chem. Theory Comput.,
     2021, 17, 4250-4261. DOI: 10.1021/acs.jctc.1c00471
   
   for DFT-D4:
   * E. Caldeweyher, C. Bannwarth and S. Grimme, J. Chem. Phys., 2017,
     147, 034112. DOI: 10.1063/1.4993215
   * E. Caldeweyher, S. Ehlert, A. Hansen, H. Neugebauer, S. Spicher,
     C. Bannwarth and S. Grimme, J. Chem. Phys., 2019, 150, 154122.
     DOI: 10.1063/1.5090222
   * E. Caldeweyher, J.-M. Mewes, S. Ehlert and S. Grimme, Phys. Chem. Chem. Phys.
     2020, 22, 8499-8512. DOI: 10.1039/D0CP00502A
   
   for sTDA-xTB:
   * S. Grimme and C. Bannwarth, J. Chem. Phys., 2016, 145, 054103.
     DOI: 10.1063/1.4959605
   
   in the mass-spec context:
   * V. Asgeirsson, C. Bauer and S. Grimme, Chem. Sci., 2017, 8, 4879.
     DOI: 10.1039/c7sc00601b
   * J. Koopman and S. Grimme, ACS Omega 2019, 4, 12, 15120-15133.
     DOI: 10.1021/acsomega.9b02011
   
   for metadynamics refer to:
   * S. Grimme, J. Chem. Theory Comput., 2019, 155, 2847-2862
     DOI: 10.1021/acs.jctc.9b00143
   
   for SPH calculations refer to:
   * S. Spicher and S. Grimme, J. Chem. Theory Comput., 2021, 17, 1701-1714
     DOI: 10.1021/acs.jctc.0c01306
   
   with help from (in alphabetical order)
   P. Atkinson, C. Bannwarth, F. Bohle, G. Brandenburg, E. Caldeweyher
   M. Checinski, S. Dohm, S. Ehlert, S. Ehrlich, I. Gerasimov, C. Hölzer
   A. Katbashev, J. Koopman, C. Lavigne, S. Lehtola, F. März, M. Müller,
   F. Musil, H. Neugebauer, J. Pisarek, C. Plett, P. Pracht, F. Pultar,
   J. Seibert, P. Shushkov, S. Spicher, M. Stahn, M. Steiner, T. Strunk,
   J. Stückrath, T. Rose, and J. Unsleber
   
 * started run on 2022/11/17 at 06:54:59.740     

           -------------------------------------------------
          |                Calculation Setup                |
           -------------------------------------------------

          program call               : xtb solvent_cluster.coord --gfn2 --sp --lmo --chrg 0
          hostname                   : cn0363
          coordinate file            : solvent_cluster.coord
          omp threads                :                     2

   ID    Z sym.   atoms
    1    8 o      1, 4, 7, 10, 13, 16, 19, 22, 25, 28, 31, 34, 37, 40, 43,
                  46, 49, 52, 55, 58, 61, 64, 67, 70, 73, 76, 79, 82, 85, 88,
                  91, 94, 97, 100, 103, 106, 109, 112, 115, 118, 121, 124,
                  127, 130, 133, 136, 139, 142, 145, 148, 151, 154, 157, 160,
                  163, 166, 169, 172, 175, 178, 181, 184, 187, 190, 193, 196,
                  199, 202, 205, 208, 211, 214, 217, 220, 223, 226, 229, 232,
                  235, 238, 241, 244, 247, 250, 253, 256, 259, 262, 265, 268,
                  271, 274, 277, 280, 283, 286, 289, 292, 295, 298, 301, 304,
                  307, 310, 313, 316, 319, 322, 325, 328, 331, 334, 337, 340,
                  343, 346, 349, 352, 355, 358, 361, 364, 367, 370, 373, 376,
                  379, 382, 385, 388, 391, 394, 397, 400, 403, 406, 409, 412,
                  415, 418, 421, 424, 427, 430, 433, 436, 439, 442, 445, 448,
                  451, 454, 457, 460, 463, 466, 469, 472, 475, 478, 481, 484,
                  487, 490, 493, 496, 499, 502, 505, 508, 511, 514, 517, 520,
                  523, 526, 529
    2    1 h      2, 3, 5, 6, 8, 9, 11, 12, 14, 15, 17, 18, 20, 21, 23, 24,
                  26, 27, 29, 30, 32, 33, 35, 36, 38, 39, 41, 42, 44, 45, 47,
                  48, 50, 51, 53, 54, 56, 57, 59, 60, 62, 63, 65, 66, 68, 69,
                  71, 72, 74, 75, 77, 78, 80, 81, 83, 84, 86, 87, 89, 90, 92,
                  93, 95, 96, 98, 99, 101, 102, 104, 105, 107, 108, 110, 111,
                  113, 114, 116, 117, 119, 120, 122, 123, 125, 126, 128, 129,
                  131, 132, 134, 135, 137, 138, 140, 141, 143, 144, 146, 147,
                  149, 150, 152, 153, 155, 156, 158, 159, 161, 162, 164, 165,
                  167, 168, 170, 171, 173, 174, 176, 177, 179, 180, 182, 183,
                  185, 186, 188, 189, 191, 192, 194, 195, 197, 198, 200, 201,
                  203, 204, 206, 207, 209, 210, 212, 213, 215, 216, 218, 219,
                  221, 222, 224, 225, 227, 228, 230, 231, 233, 234, 236, 237,
                  239, 240, 242, 243, 245, 246, 248, 249, 251, 252, 254, 255,
                  257, 258, 260, 261, 263, 264, 266, 267, 269, 270, 272, 273,
                  275, 276, 278, 279, 281, 282, 284, 285, 287, 288, 290, 291,
                  293, 294, 296, 297, 299, 300, 302, 303, 305, 306, 308, 309,
                  311, 312, 314, 315, 317, 318, 320, 321, 323, 324, 326, 327,
                  329, 330, 332, 333, 335, 336, 338, 339, 341, 342, 344, 345,
                  347, 348, 350, 351, 353, 354, 356, 357, 359, 360, 362, 363,
                  365, 366, 368, 369, 371, 372, 374, 375, 377, 378, 380, 381,
                  383, 384, 386, 387, 389, 390, 392, 393, 395, 396, 398, 399,
                  401, 402, 404, 405, 407, 408, 410, 411, 413, 414, 416, 417,
                  419, 420, 422, 423, 425, 426, 428, 429, 431, 432, 434, 435,
                  437, 438, 440, 441, 443, 444, 446, 447, 449, 450, 452, 453,
                  455, 456, 458, 459, 461, 462, 464, 465, 467, 468, 470, 471,
                  473, 474, 476, 477, 479, 480, 482, 483, 485, 486, 488, 489,
                  491, 492, 494, 495, 497, 498, 500, 501, 503, 504, 506, 507,
                  509, 510, 512, 513, 515, 516, 518, 519, 521, 522, 524, 525,
                  527, 528, 530, 531

molecular fragmentation (1/2 indicates fragments):
111222222222222222222222222222222222222222222222222222222222222222222222
222222222222222222222222222222222222222222222222222222222222222222222222
222222222222222222222222222222222222222222222222222222222222222222222222
222222222222222222222222222222222222222222222222222222222222222222222222
222222222222222222222222222222222222222222222222222222222222222222222222
222222222222222222222222222222222222222222222222222222222222222222222222
222222222222222222222222222222222222222222222222222222222222222222222222
222222222222222222222222222
# atoms in fragment 1/2:     3   528
 fragment masses (1/2) :       18.02     3170.69
CMA distance (Bohr)    :   6.898
constraining FC (au)   :  0.0500

           -------------------------------------------------
          |                 G F N 2 - x T B                 |
           -------------------------------------------------

        Reference                      10.1021/acs.jctc.8b01176
      * Hamiltonian:
        H0-scaling (s, p, d)           1.850000    2.230000    2.230000
        zeta-weighting                 0.500000
      * Dispersion:
        s8                             2.700000
        a1                             0.520000
        a2                             5.000000
        s9                             5.000000
      * Repulsion:
        kExp                           1.500000    1.000000
        rExp                           1.000000
      * Coulomb:
        alpha                          2.000000
        third order                    shell-resolved
        anisotropic                    true
        a3                             3.000000
        a5                             4.000000
        cn-shift                       1.200000
        cn-exp                         4.000000
        max-rad                        5.000000


          ...................................................
          :                      SETUP                      :
          :.................................................:
          :  # basis functions                1062          :
          :  # atomic orbitals                1062          :
          :  # shells                          708          :
          :  # electrons                      1416          :
          :  max. iterations                   250          :
          :  Hamiltonian                  GFN2-xTB          :
          :  restarted?                      false          :
          :  GBSA solvation                  false          :
          :  PC potential                    false          :
          :  electronic temp.          300.0000000     K    :
          :  accuracy                    1.0000000          :
          :  -> integral cutoff          0.2500000E+02      :
          :  -> integral neglect         0.1000000E-07      :
          :  -> SCF convergence          0.1000000E-05 Eh   :
          :  -> wf. convergence          0.1000000E-03 e    :
          :  Broyden damping             0.4000000          :
          ...................................................

 iter      E             dE          RMSdq      gap      omega  full diag
   1   -906.5245613 -0.906525E+03  0.406E+00    8.78       0.0  T
   2   -906.5856239 -0.610625E-01  0.241E+00    7.80       1.0  T
   3   -906.6085415 -0.229176E-01  0.219E-01    6.35       1.0  T
   4   -906.6127619 -0.422049E-02  0.472E-02    6.80       1.0  T
   5   -906.6128386 -0.766393E-04  0.315E-02    6.72       1.0  T
   6   -906.6128698 -0.311855E-04  0.465E-03    6.76       1.0  T
   7   -906.6128719 -0.209256E-05  0.747E-04    6.76       5.8  T
   8   -906.6128719 -0.194076E-07  0.392E-04    6.75      11.1  T
   9   -906.6128719 -0.107044E-07  0.668E-05    6.75      65.0  T

   *** convergence criteria satisfied after 9 iterations ***

         #    Occupation            Energy/Eh            Energy/eV
      -------------------------------------------------------------
         1        2.0000           -0.7025360             -19.1170
       ...           ...                  ...                  ...
       702        2.0000           -0.3609501              -9.8220
       703        2.0000           -0.3593841              -9.7793
       704        2.0000           -0.3582410              -9.7482
       705        2.0000           -0.3534981              -9.6192
       706        2.0000           -0.3516611              -9.5692
       707        2.0000           -0.3496640              -9.5148
       708        2.0000           -0.3338501              -9.0845 (HOMO)
       709                         -0.0856134              -2.3297 (LUMO)
       710                         -0.0651699              -1.7734
       711                         -0.0593772              -1.6157
       712                         -0.0537143              -1.4616
       713                         -0.0453638              -1.2344
       ...                                ...                  ...
      1062                          0.4761098              12.9556
      -------------------------------------------------------------
                  HL-Gap            0.2482367 Eh            6.7549 eV
             Fermi-level           -0.2097318 Eh           -5.7071 eV
 
 localization/xTB-IFF output generation
 averaging CT terms over            1  occ. levels
 averaging CT terms over            1  virt. levels
 dipole moment from electron density (au)
     X       Y       Z   
  -4.3768  -0.0409   2.8288  total (Debye):   13.247
cpu  time for init local    0.42 s
wall time for init local    0.21 s
 doing rotations ...
 initialization of trafo matrix to unity

 converged in     16 iterations, threshold :   0.99996761D-06
 doing transformations ...
 lmo centers(Z=2) and atoms on file <lmocent.coord>
 LMO Fii/eV  ncent    charge center   contributions...
    1 LP   *******   0.00   5.38888   1.81022  -3.04416   76O : 13.78   28O :  7.73   73O :  5.37  310O :  4.59    7O :  4.56  238O :  4.32   70O :  4.24   97O :  4.23  217O :  4.20   37O :  4.08   16O :  4.03  361O :  4.02
  241O :  4.00  142O :  3.93  490O :  3.84  469O :  3.53  181O :  3.48  160O :  3.48   43O :  3.44  175O :  3.37  292O :  3.32  151O :  3.31  448O :  3.23   55O :  3.12
  202O :  3.03  457O :  2.95  190O :  2.92  520O :  2.87    4O :  2.85  367O :  2.83  166O :  2.77  211O :  2.76  139O :  2.72   58O :  2.69  154O :  2.68    1O :  2.60
  418O :  2.54  355O :  2.53  364O :  2.52   10O :  2.46  451O :  2.25  382O :  2.19  478O :  2.17  526O :  2.17  412O :  2.13  481O :  2.07  307O :  2.06  409O :  2.02
  127O :  2.01  199O :  2.00  427O :  1.95  346O :  1.95  172O :  1.94   64O :  1.89   49O :  1.88  337O :  1.87   91O :  1.86  130O :  1.83  394O :  1.77  178O :  1.75
  343O :  1.69   82O :  1.69  205O :  1.66  232O :  1.62   67O :  1.59  220O :  1.59  403O :  1.59  235O :  1.58  421O :  1.56   52O :  1.56  358O :  1.56  106O :  1.50
   31O :  1.50  415O :  1.48  103O :  1.47  466O :  1.45  193O :  1.42  256O :  1.41  340O :  1.40  499O :  1.40  289O :  1.39  424O :  1.35  250O :  1.34  460O :  1.33
  304O :  1.33  115O :  1.29  463O :  1.28  487O :  1.28  352O :  1.25   77H :  1.24  268O :  1.17  397O :  1.15  283O :  1.13  484O :  1.13  493O :  1.12  505O :  1.09
  100O :  1.09  385O :  1.05   40O :  1.05   34O :  1.04  301O :  1.02  445O :  1.02  244O :  1.00  157O :  1.00  274O :  0.98  262O :  0.96   51H :  0.96  511O :  0.94
  334O :  0.92  247O :  0.91  271O :  0.88  286O :  0.87  442O :  0.87  148O :  0.86  133O :  0.85  430O :  0.83   13O :  0.82  316O :  0.81  169O :  0.80  229O :  0.78
   22O :  0.77  406O :  0.76  194H :  0.75   19O :  0.73  433O :  0.73   18H :  0.72   25O :  0.71   61O :  0.70  163O :  0.70   94O :  0.70  118O :  0.68  370O :  0.68
   79O :  0.68  253O :  0.66  313O :  0.66  265O :  0.65  472O :  0.64   46O :  0.61  436O :  0.61  277O :  0.58  219H :  0.58   85O :  0.57  184O :  0.56  517O :  0.54
  349O :  0.54  514O :  0.54  322O :  0.54  208O :  0.53  523O :  0.53  454O :  0.50  136O :  0.44  226O :  0.44  207H :  0.42  384H :  0.40   50H :  0.40  121O :  0.39
   44H :  0.39   99H :  0.38  373O :  0.37  508O :  0.36  161H :  0.35  214O :  0.35  109O :  0.35  341H :  0.35  376O :  0.35  468H :  0.34  391O :  0.34  431H :  0.33
  223O :  0.33  488H :  0.33  105H :  0.32  239H :  0.32  259O :  0.31  120H :  0.30  174H :  0.29  196O :  0.29  475O :  0.29  251H :  0.28  527H :  0.28  298O :  0.28
  483H :  0.27  101H :  0.27  339H :  0.27  117H :  0.27  404H :  0.27  183H :  0.26  379O :  0.26  187O :  0.26   98H :  0.25  144H :  0.25   14H :  0.24   66H :  0.24
  453H :  0.23  319O :  0.23  162H :  0.22  141H :  0.22  500H :  0.21   56H :  0.21  502O :  0.21  240H :  0.20  348H :  0.20  331O :  0.19  156H :  0.19  233H :  0.19
  112O :  0.19  124O :  0.19  155H :  0.19  388O :  0.18  496O :  0.18  269H :  0.18  387H :  0.18   88O :  0.18  275H :  0.17   83H :  0.17   33H :  0.17   39H :  0.17
   45H :  0.17  168H :  0.16  529O :  0.16  119H :  0.16   65H :  0.16  290H :  0.16  188H :  0.15  276H :  0.15  400O :  0.14   86H :  0.14  383H :  0.14  254H :  0.13
  464H :  0.13  234H :  0.13  145O :  0.13  492H :  0.13  357H :  0.13  354H :  0.12  315H :  0.12    3H :  0.12  129H :  0.12  147H :  0.11  191H :  0.11  264H :  0.11
  353H :  0.11  395H :  0.11  366H :  0.11  413H :  0.11   53H :  0.11  474H :  0.11   54H :  0.10  328O :  0.10  425H :  0.10  470H :  0.10  213H :  0.10  308H :  0.10
  171H :  0.10  524H :  0.10  410H :  0.10  198H :  0.10    9H :  0.10  368H :  0.09  176H :  0.09  150H :  0.09   89H :  0.09   41H :  0.09  510H :  0.09  116H :  0.09
   87H :  0.09  327H :  0.09  249H :  0.08   21H :  0.08  236H :  0.08  516H :  0.08  522H :  0.08  519H :  0.08  439O :  0.08  515H :  0.08   23H :  0.08  450H :  0.08
  140H :  0.08  110H :  0.08  125H :  0.08  335H :  0.08  528H :  0.08  414H :  0.08  507H :  0.07  295O :  0.07  279H :  0.07  173H :  0.07
    2 LP   *******   0.00   4.33105   5.19538   3.34661   28O :  9.44   76O :  8.25   73O :  4.38  310O :  3.75    7O :  3.75  238O :  3.53   70O :  3.46   97O :  3.45  217O :  3.43   37O :  3.34   16O :  3.29  361O :  3.28
  241O :  3.24  142O :  3.21  490O :  3.14  469O :  2.88  181O :  2.85  160O :  2.84   43O :  2.81  175O :  2.76  292O :  2.71  151O :  2.71  448O :  2.64   55O :  2.56
  202O :  2.47  457O :  2.41  190O :  2.38    4O :  2.33  520O :  2.32  367O :  2.31  166O :  2.26  211O :  2.25  139O :  2.23   58O :  2.19  154O :  2.19    1O :  2.13
  418O :  2.07  355O :  2.07  364O :  2.06   10O :  2.01  451O :  1.83  382O :  1.79  478O :  1.78  526O :  1.77  412O :  1.74  481O :  1.69  307O :  1.68  409O :  1.65
  127O :  1.65  199O :  1.63  427O :  1.60  346O :  1.59  172O :  1.58   64O :  1.55   49O :  1.54  337O :  1.53   91O :  1.52  130O :  1.50  394O :  1.45  178O :  1.43
  343O :  1.38   82O :  1.38  205O :  1.36  232O :  1.33  220O :  1.30   67O :  1.30  403O :  1.30  235O :  1.29  421O :  1.27   52O :  1.27  358O :  1.27  106O :  1.23
   31O :  1.23  415O :  1.21  103O :  1.20  466O :  1.19  193O :  1.16  256O :  1.15  499O :  1.15  340O :  1.15  289O :  1.14  424O :  1.10  250O :  1.10   77H :  1.09
  460O :  1.09  304O :  1.09  115O :  1.05  463O :  1.05  487O :  1.04  352O :  1.02  268O :  0.96  397O :  0.94  484O :  0.93  283O :  0.93  493O :  0.92  505O :  0.89
  100O :  0.89   34O :  0.87  385O :  0.86   40O :  0.85  301O :  0.83  445O :  0.83  157O :  0.82  244O :  0.82  274O :  0.80  262O :  0.78   51H :  0.78  511O :  0.77
  334O :  0.75  247O :  0.75  271O :  0.72  286O :  0.71  442O :  0.71  148O :  0.70  133O :  0.70  430O :  0.67   13O :  0.67  316O :  0.66  169O :  0.66  229O :  0.64
   22O :  0.63  406O :  0.62  194H :  0.61   19O :  0.60  433O :  0.59   18H :  0.59   25O :  0.58  163O :  0.57   61O :  0.57   94O :  0.57  118O :  0.55  370O :  0.55
   79O :  0.55  253O :  0.54  313O :  0.54  265O :  0.53  472O :  0.52   46O :  0.50  436O :  0.49  277O :  0.47  219H :  0.47   85O :  0.47  184O :  0.45  517O :  0.44
  514O :  0.44  322O :  0.44  208O :  0.43  523O :  0.43  349O :  0.43  454O :  0.40  136O :  0.36  226O :  0.36  207H :  0.35  384H :  0.32   50H :  0.32  121O :  0.32
   44H :  0.32   99H :  0.31  373O :  0.30  109O :  0.30  508O :  0.29  161H :  0.29  214O :  0.29  341H :  0.28  376O :  0.28  468H :  0.28  391O :  0.28  431H :  0.27
  223O :  0.27  488H :  0.27  105H :  0.26  239H :  0.26  259O :  0.25  120H :  0.25  174H :  0.23  196O :  0.23  475O :  0.23  251H :  0.23  527H :  0.23  298O :  0.23
  483H :  0.22  101H :  0.22  339H :  0.22  404H :  0.22  117H :  0.22  183H :  0.22  379O :  0.22  187O :  0.21   98H :  0.21  144H :  0.21   14H :  0.20   66H :  0.19
  453H :  0.19    9H :  0.19  319O :  0.18  162H :  0.18  141H :  0.18  500H :  0.17  502O :  0.17   56H :  0.16  240H :  0.16  348H :  0.16  331O :  0.16  156H :  0.16
  233H :  0.15  112O :  0.15  124O :  0.15  387H :  0.15  388O :  0.15  496O :  0.15  269H :  0.15  155H :  0.15   88O :  0.15  275H :  0.14   83H :  0.14   33H :  0.14
   39H :  0.14   45H :  0.14  168H :  0.13  529O :  0.13  119H :  0.13  290H :  0.13  188H :  0.13  276H :  0.12   65H :  0.12  400O :  0.12   86H :  0.11  383H :  0.11
  254H :  0.11  464H :  0.11  234H :  0.11  492H :  0.11  145O :  0.11  357H :  0.10  354H :  0.10  315H :  0.10    3H :  0.10  129H :  0.10  147H :  0.09  191H :  0.09
  264H :  0.09  353H :  0.09  395H :  0.09  366H :  0.09  413H :  0.09   53H :  0.09  474H :  0.09   54H :  0.08  328O :  0.08  425H :  0.08  470H :  0.08  213H :  0.08
  308H :  0.08  171H :  0.08  410H :  0.08  198H :  0.08  524H :  0.08  236H :  0.08  368H :  0.07  110H :  0.07  176H :  0.07  150H :  0.07   89H :  0.07   41H :  0.07
  510H :  0.07
    3 LP   *******   0.00 -28.97682  -3.80687  -2.20170   76O :  6.30   97O :  5.30   28O :  4.83   73O :  3.36    7O :  2.86  310O :  2.86  238O :  2.69   70O :  2.65  217O :  2.62   37O :  2.58   16O :  2.51  361O :  2.51
  241O :  2.50  142O :  2.46  490O :  2.39  469O :  2.20  160O :  2.18  181O :  2.17   43O :  2.15  175O :  2.11  292O :  2.07  151O :  2.07  448O :  2.02   55O :  1.95
  202O :  1.89  457O :  1.84  190O :  1.82  520O :  1.80    4O :  1.78  367O :  1.76  166O :  1.73  211O :  1.72  139O :  1.70   58O :  1.68  154O :  1.67    1O :  1.63
  418O :  1.58  355O :  1.58  364O :  1.57   10O :  1.54  451O :  1.40  526O :  1.39  382O :  1.37  478O :  1.36  412O :  1.33  481O :  1.29  307O :  1.29  409O :  1.26
  127O :  1.25  199O :  1.25   49O :  1.23  427O :  1.22  346O :  1.22  172O :  1.21   64O :  1.18  337O :  1.17   91O :  1.16  130O :  1.14  394O :  1.11  178O :  1.09
   82O :  1.05  343O :  1.05  205O :  1.04  232O :  1.01   67O :  0.99  220O :  0.99  403O :  0.99  235O :  0.99  421O :  0.97  358O :  0.97   52O :  0.97  106O :  0.94
   31O :  0.94  415O :  0.92  103O :  0.92  466O :  0.91  193O :  0.89  256O :  0.88  340O :  0.88  499O :  0.87  289O :  0.87  424O :  0.84  250O :  0.84   77H :  0.84
  460O :  0.83  304O :  0.83  115O :  0.80  463O :  0.80  487O :  0.80   51H :  0.80  352O :  0.78  268O :  0.73  397O :  0.72  484O :  0.71  283O :  0.71  493O :  0.70
  505O :  0.68  100O :  0.68  385O :  0.66   40O :  0.65   34O :  0.65  301O :  0.64  445O :  0.63  244O :  0.62  157O :  0.62  274O :  0.61  262O :  0.60  511O :  0.59
  334O :  0.57  247O :  0.57  271O :  0.55  286O :  0.54  442O :  0.54  148O :  0.54  133O :  0.53  430O :  0.52   13O :  0.51  316O :  0.51  169O :  0.50  229O :  0.49
   22O :  0.48  406O :  0.47  194H :  0.47   19O :  0.46  433O :  0.45   18H :  0.45   25O :  0.44  163O :  0.44   61O :  0.44   94O :  0.44  370O :  0.42   79O :  0.42
  118O :  0.42  253O :  0.41  313O :  0.41  265O :  0.41  472O :  0.40   46O :  0.38  436O :  0.38  277O :  0.36  219H :  0.36   85O :  0.36  184O :  0.35  517O :  0.34
  514O :  0.34  322O :  0.34  208O :  0.33  523O :  0.33  349O :  0.33  454O :  0.31  136O :  0.27  226O :  0.27  207H :  0.26  384H :  0.25   50H :  0.25  121O :  0.24
   44H :  0.24  373O :  0.23  508O :  0.22  161H :  0.22  214O :  0.22  109O :  0.22  341H :  0.22  376O :  0.22  468H :  0.21  391O :  0.21   99H :  0.21  527H :  0.21
  431H :  0.21  223O :  0.20  488H :  0.20  105H :  0.20  239H :  0.20  259O :  0.19  120H :  0.19  174H :  0.18  475O :  0.18  196O :  0.18  251H :  0.18  298O :  0.17
  483H :  0.17  101H :  0.17   33H :  0.17  339H :  0.17  183H :  0.17  404H :  0.17  117H :  0.17  379O :  0.16  187O :  0.16  144H :  0.16   14H :  0.15   66H :  0.15
  453H :  0.15  319O :  0.14  141H :  0.14  500H :  0.13   56H :  0.13  502O :  0.13  162H :  0.13   98H :  0.13  240H :  0.12  348H :  0.12  331O :  0.12  156H :  0.12
  233H :  0.12  112O :  0.12  124O :  0.12  155H :  0.12  388O :  0.12  496O :  0.11  387H :  0.11  269H :  0.11   88O :  0.11  275H :  0.11   83H :  0.11   45H :  0.10
  119H :  0.10   39H :  0.10  168H :  0.10  529O :  0.10  290H :  0.10  188H :  0.10  276H :  0.09   65H :  0.09  400O :  0.09   86H :  0.08  383H :  0.08  254H :  0.08
  464H :  0.08  234H :  0.08  492H :  0.08  145O :  0.08  357H :  0.08  354H :  0.08  315H :  0.08    3H :  0.08  129H :  0.07
    4 LP   *******   0.00   5.47396   5.52054  -4.42651   76O :  7.10   28O :  4.30   73O :  2.99  310O :  2.56    7O :  2.53  238O :  2.40   70O :  2.36   97O :  2.35  217O :  2.34   37O :  2.27   16O :  2.24  361O :  2.24
  241O :  2.23  142O :  2.19  490O :  2.14  469O :  1.96  181O :  1.94  160O :  1.93   43O :  1.91  175O :  1.88  292O :  1.85  151O :  1.84  448O :  1.80   77H :  1.78
   55O :  1.72  202O :  1.69  457O :  1.64  190O :  1.62  520O :  1.60    4O :  1.59  367O :  1.57  166O :  1.54  211O :  1.53  139O :  1.52   58O :  1.50  154O :  1.49
    1O :  1.45  418O :  1.41  355O :  1.41  364O :  1.40   10O :  1.38  451O :  1.25  382O :  1.22  478O :  1.21  526O :  1.21  412O :  1.19  481O :  1.15  307O :  1.15
  409O :  1.12  127O :  1.12  199O :  1.11  427O :  1.09  346O :  1.08  172O :  1.08   64O :  1.06   49O :  1.05  337O :  1.04   91O :  1.03  130O :  1.02  394O :  0.99
  178O :  0.97  343O :  0.94   82O :  0.94  205O :  0.92  232O :  0.90  220O :  0.89   67O :  0.89  403O :  0.88  235O :  0.88  421O :  0.87   52O :  0.87  358O :  0.87
  106O :  0.84   31O :  0.84  415O :  0.82  103O :  0.82  466O :  0.81  193O :  0.79  256O :  0.78  340O :  0.78  499O :  0.78  289O :  0.77  424O :  0.75  250O :  0.75
  460O :  0.74  304O :  0.74  463O :  0.71  487O :  0.71  115O :  0.71  352O :  0.69  268O :  0.65  397O :  0.64  283O :  0.63  484O :  0.63  493O :  0.62  505O :  0.61
  100O :  0.61  385O :  0.58   40O :  0.58   34O :  0.58  301O :  0.57  445O :  0.57  244O :  0.56  157O :  0.56  274O :  0.54  262O :  0.53   51H :  0.53  511O :  0.52
  334O :  0.51  247O :  0.51  271O :  0.49  286O :  0.49  442O :  0.49  148O :  0.48  133O :  0.47  430O :  0.46   13O :  0.45  316O :  0.45  169O :  0.45  229O :  0.43
   22O :  0.43  406O :  0.42  194H :  0.41   19O :  0.41  433O :  0.40   18H :  0.40   25O :  0.40   61O :  0.39  163O :  0.39   94O :  0.39  118O :  0.38  370O :  0.38
   79O :  0.38  253O :  0.37  313O :  0.37  265O :  0.36  472O :  0.36  349O :  0.34   46O :  0.34  436O :  0.34  277O :  0.32  219H :  0.32   85O :  0.32  184O :  0.31
  517O :  0.30  514O :  0.30  322O :  0.30  208O :  0.29  523O :  0.29  454O :  0.28  136O :  0.24  226O :  0.24  207H :  0.24   50H :  0.22  384H :  0.22  121O :  0.22
   44H :  0.22   99H :  0.21  373O :  0.21  508O :  0.20  161H :  0.20  214O :  0.20  109O :  0.19  341H :  0.19  376O :  0.19  468H :  0.19  391O :  0.19  431H :  0.18
  223O :  0.18  488H :  0.18  105H :  0.18  239H :  0.17  259O :  0.17  120H :  0.17  174H :  0.16  196O :  0.16  475O :  0.16  251H :  0.16  527H :  0.16  298O :  0.15
  483H :  0.15  101H :  0.15  339H :  0.15  404H :  0.15  183H :  0.15  379O :  0.15  117H :  0.15  187O :  0.14   98H :  0.14  144H :  0.14   14H :  0.13   66H :  0.13
  453H :  0.13  319O :  0.13  162H :  0.12  141H :  0.12  500H :  0.12   56H :  0.11  502O :  0.11  348H :  0.11  331O :  0.11  240H :  0.11  156H :  0.11  233H :  0.11
  112O :  0.10  124O :  0.10  155H :  0.10  388O :  0.10  496O :  0.10  269H :  0.10   88O :  0.10  387H :  0.10  275H :  0.10   83H :  0.10   33H :  0.10   39H :  0.09
   45H :  0.09  168H :  0.09  529O :  0.09  119H :  0.09  290H :  0.09  188H :  0.09  276H :  0.08  400O :  0.08   86H :  0.08  383H :  0.08  254H :  0.07  464H :  0.07
  234H :  0.07  145O :  0.07  492H :  0.07   65H :  0.07  357H :  0.07
    5 LP   *******   0.00 -43.85076   0.92416   2.15547   76O :  5.51   73O :  5.50   28O :  4.22  310O :  2.54    7O :  2.50  238O :  2.36   97O :  2.34   70O :  2.32  217O :  2.30   37O :  2.23   16O :  2.20  361O :  2.19
  241O :  2.19  142O :  2.14  490O :  2.09  160O :  1.93  469O :  1.93   43O :  1.88  181O :  1.88  175O :  1.84  292O :  1.81  151O :  1.81  448O :  1.77   55O :  1.71
  202O :  1.66  190O :  1.62  457O :  1.61  520O :  1.57    4O :  1.56  367O :  1.55  166O :  1.51  211O :  1.51  139O :  1.49   58O :  1.47  154O :  1.46    1O :  1.42
  418O :  1.39  355O :  1.38  364O :  1.37   10O :  1.34  451O :  1.23  382O :  1.20  478O :  1.19  526O :  1.19  412O :  1.13  481O :  1.13  307O :  1.12  409O :  1.10
  127O :  1.10  199O :  1.09  427O :  1.07  346O :  1.06  172O :  1.06   64O :  1.04   49O :  1.03  337O :  1.02   91O :  1.01  130O :  1.00  394O :  0.97  178O :  0.96
  343O :  0.92   82O :  0.92  205O :  0.91  232O :  0.89   67O :  0.87  220O :  0.87  403O :  0.87  235O :  0.86   52O :  0.85  421O :  0.85  358O :  0.85  106O :  0.82
   31O :  0.82  415O :  0.81  103O :  0.80  466O :  0.79  193O :  0.78  256O :  0.77  340O :  0.77  499O :  0.77  289O :  0.76  424O :  0.74  250O :  0.73   77H :  0.73
  460O :  0.73  304O :  0.73  115O :  0.70  463O :  0.70  487O :  0.70  352O :  0.68  268O :  0.64  397O :  0.63  484O :  0.62  283O :  0.62  493O :  0.61  505O :  0.60
  100O :  0.60  385O :  0.57   40O :  0.57   34O :  0.57  301O :  0.56  445O :  0.56  244O :  0.55  157O :  0.54  274O :  0.53  262O :  0.52   51H :  0.52  511O :  0.51
  334O :  0.50  247O :  0.50  271O :  0.48  286O :  0.48  442O :  0.48  148O :  0.47  133O :  0.47  430O :  0.45   13O :  0.45  316O :  0.44  169O :  0.44  229O :  0.43
   22O :  0.42  406O :  0.41  194H :  0.41   19O :  0.40  433O :  0.40   18H :  0.39   25O :  0.39   61O :  0.38  163O :  0.38   94O :  0.38  118O :  0.37   79O :  0.37
  370O :  0.37  253O :  0.36  313O :  0.36  265O :  0.35  472O :  0.35   46O :  0.33  436O :  0.33  277O :  0.32  219H :  0.32   85O :  0.31  184O :  0.30  517O :  0.30
  514O :  0.29  322O :  0.29  523O :  0.29  208O :  0.29  349O :  0.29  454O :  0.27  136O :  0.24  226O :  0.24  207H :  0.23   50H :  0.22  384H :  0.22   98H :  0.22
  121O :  0.21   44H :  0.21   99H :  0.21  373O :  0.20  508O :  0.19  161H :  0.19  214O :  0.19  109O :  0.19  376O :  0.19  341H :  0.19  468H :  0.19  391O :  0.18
  431H :  0.18  488H :  0.18  223O :  0.18  105H :  0.17  239H :  0.17  259O :  0.17  120H :  0.17  174H :  0.16  196O :  0.16  475O :  0.16  251H :  0.15  527H :  0.15
  298O :  0.15  483H :  0.15  101H :  0.15  339H :  0.15  404H :  0.15  117H :  0.15  379O :  0.14  187O :  0.14  162H :  0.14  144H :  0.14   14H :  0.13   66H :  0.13
  453H :  0.13  319O :  0.12  141H :  0.12  500H :  0.12  183H :  0.12   56H :  0.11  502O :  0.11  240H :  0.11  348H :  0.11  331O :  0.11  156H :  0.10  233H :  0.10
  112O :  0.10  124O :  0.10  155H :  0.10  388O :  0.10  496O :  0.10  387H :  0.10  269H :  0.10   88O :  0.10  275H :  0.10   83H :  0.09   39H :  0.09   33H :  0.09
   45H :  0.09  168H :  0.09  529O :  0.09  119H :  0.09  290H :  0.09  188H :  0.08  276H :  0.08   65H :  0.08  400O :  0.08   86H :  0.07  383H :  0.07  254H :  0.07
  464H :  0.07  234H :  0.07  492H :  0.07  145O :  0.07
    6 LP   *******   0.00 -21.20460   7.34201   3.88518   76O :  5.14   37O :  4.12   28O :  3.94   73O :  2.74  310O :  2.35    7O :  2.34   97O :  2.21  238O :  2.20   70O :  2.16  217O :  2.14   16O :  2.05  361O :  2.05
  241O :  2.04  142O :  2.00  490O :  1.95  469O :  1.79  181O :  1.78  160O :  1.77   43O :  1.75  175O :  1.72  292O :  1.69  151O :  1.69  448O :  1.65   55O :  1.59
  202O :  1.55  457O :  1.50  190O :  1.48  520O :  1.47    4O :  1.45  367O :  1.44  166O :  1.41  211O :  1.40  139O :  1.39   58O :  1.37  154O :  1.37    1O :  1.33
  418O :  1.29  355O :  1.29  364O :  1.28   10O :  1.25  451O :  1.15  382O :  1.11  478O :  1.11  526O :  1.11  412O :  1.09  481O :  1.06  307O :  1.05  409O :  1.03
  127O :  1.02  199O :  1.02  427O :  0.99  346O :  0.99  172O :  0.99   64O :  0.97   49O :  0.96  337O :  0.95   91O :  0.95  130O :  0.93  394O :  0.90  178O :  0.89
  343O :  0.86   82O :  0.86  205O :  0.85  232O :  0.83  220O :  0.81   67O :  0.81  403O :  0.81  235O :  0.81  421O :  0.79  358O :  0.79   52O :  0.79  106O :  0.77
   31O :  0.77  415O :  0.75  103O :  0.75  466O :  0.74  193O :  0.72  256O :  0.72  340O :  0.71  499O :  0.71  289O :  0.71  424O :  0.69  250O :  0.68   77H :  0.68
  460O :  0.68  304O :  0.68  115O :  0.66  463O :  0.65  487O :  0.65  352O :  0.64  268O :  0.60  397O :  0.59  484O :  0.58  283O :  0.58  493O :  0.57  505O :  0.56
  100O :  0.56   40O :  0.53   34O :  0.53  385O :  0.52  301O :  0.52  445O :  0.52  157O :  0.51  244O :  0.51  274O :  0.50  262O :  0.49   51H :  0.48  511O :  0.48
  334O :  0.47  247O :  0.47  271O :  0.45  286O :  0.44  442O :  0.44  148O :  0.44  133O :  0.43  430O :  0.42   13O :  0.42  316O :  0.41  169O :  0.41  229O :  0.40
   22O :  0.39  406O :  0.39  194H :  0.38   19O :  0.37  433O :  0.37   18H :  0.37   25O :  0.36  163O :  0.36   61O :  0.36   94O :  0.36  118O :  0.35  370O :  0.34
   79O :  0.34   99H :  0.34  253O :  0.34  313O :  0.33  265O :  0.33  472O :  0.33   46O :  0.31  436O :  0.31  277O :  0.30  219H :  0.29   85O :  0.29  184O :  0.28
  517O :  0.28  514O :  0.27  322O :  0.27  208O :  0.27  523O :  0.27  349O :  0.27  454O :  0.25  136O :  0.23  226O :  0.22  207H :  0.22   50H :  0.20  384H :  0.20
  121O :  0.20   44H :  0.20  373O :  0.19  508O :  0.18  161H :  0.18  214O :  0.18  109O :  0.18  341H :  0.18  376O :  0.18  468H :  0.17  391O :  0.17  431H :  0.17
  223O :  0.17  488H :  0.17  105H :  0.16  239H :  0.16  120H :  0.16  259O :  0.16  527H :  0.15  174H :  0.15  196O :  0.15  475O :  0.14  251H :  0.14  298O :  0.14
  483H :  0.14  101H :  0.14  339H :  0.14  404H :  0.14  117H :  0.14  379O :  0.13  183H :  0.13  187O :  0.13   98H :  0.13  144H :  0.13   14H :  0.12   66H :  0.12
  453H :  0.12  319O :  0.11  162H :  0.11  141H :  0.11  500H :  0.11   56H :  0.11  502O :  0.10  240H :  0.10  348H :  0.10  331O :  0.10  156H :  0.10  233H :  0.10
  387H :  0.10  112O :  0.10  124O :  0.10  155H :  0.09  388O :  0.09  496O :  0.09  269H :  0.09   88O :  0.09  275H :  0.09   83H :  0.09   33H :  0.09   45H :  0.08
  168H :  0.08  529O :  0.08  119H :  0.08  290H :  0.08  188H :  0.08  276H :  0.07   65H :  0.07  400O :  0.07
    7 LP   *******   0.01   7.23922 -19.87121 -10.96826   76O :  4.62  217O :  3.80   28O :  3.54   73O :  2.46  310O :  2.10    7O :  2.10  238O :  1.97   70O :  1.94   97O :  1.93   37O :  1.87   16O :  1.85  361O :  1.84
  241O :  1.83  142O :  1.80  490O :  1.76  469O :  1.62  181O :  1.60  160O :  1.59   43O :  1.57  175O :  1.54  292O :  1.52  151O :  1.52  448O :  1.48   55O :  1.43
  202O :  1.39  457O :  1.35  190O :  1.34  520O :  1.32    4O :  1.30  367O :  1.29  166O :  1.27  211O :  1.26  139O :  1.25   58O :  1.23  154O :  1.23    1O :  1.21
  418O :  1.16  355O :  1.16  364O :  1.15   10O :  1.13  451O :  1.03  382O :  1.00  478O :  1.00  526O :  0.99  412O :  0.97  481O :  0.95  307O :  0.94  409O :  0.92
  127O :  0.92  199O :  0.91  427O :  0.89  346O :  0.89  172O :  0.89   64O :  0.86   49O :  0.86  337O :  0.86   91O :  0.85  130O :  0.84  394O :  0.81  178O :  0.80
  343O :  0.77   82O :  0.77  205O :  0.76  232O :  0.74   52O :  0.73  220O :  0.73   67O :  0.73  403O :  0.73  235O :  0.72  421O :  0.71  358O :  0.71  106O :  0.69
   31O :  0.69  415O :  0.68  103O :  0.67  466O :  0.67  193O :  0.65  256O :  0.64  340O :  0.64  499O :  0.64  289O :  0.64  424O :  0.62  250O :  0.62   77H :  0.61
  460O :  0.61  304O :  0.61  115O :  0.59  463O :  0.59  487O :  0.58  352O :  0.57  268O :  0.54  397O :  0.53  484O :  0.52  283O :  0.52  493O :  0.51  505O :  0.50
  100O :  0.50  385O :  0.48   40O :  0.48   34O :  0.47  301O :  0.47  445O :  0.47  157O :  0.46  244O :  0.46  274O :  0.45  262O :  0.44   51H :  0.44  511O :  0.43
  334O :  0.42  247O :  0.42  271O :  0.40  286O :  0.40  442O :  0.40  148O :  0.39  133O :  0.39  430O :  0.38   13O :  0.37  316O :  0.37  169O :  0.37  229O :  0.36
   22O :  0.35  194H :  0.34  406O :  0.33   19O :  0.33  433O :  0.33   18H :  0.33   25O :  0.33  163O :  0.32   61O :  0.32   94O :  0.32  118O :  0.31  370O :  0.31
   79O :  0.31  253O :  0.30  313O :  0.30  265O :  0.30  472O :  0.29   46O :  0.28  436O :  0.28  277O :  0.27   85O :  0.26  184O :  0.25  517O :  0.25  514O :  0.25
  322O :  0.25  208O :  0.24  523O :  0.24  349O :  0.24  219H :  0.23  454O :  0.23  136O :  0.20  226O :  0.20  207H :  0.19  384H :  0.18   50H :  0.18  121O :  0.18
   44H :  0.18   99H :  0.17  373O :  0.17  508O :  0.16  161H :  0.16  214O :  0.16  109O :  0.16  341H :  0.16  376O :  0.16  468H :  0.16  391O :  0.15  431H :  0.15
  223O :  0.15  488H :  0.15  105H :  0.15  239H :  0.14  259O :  0.14  120H :  0.14  174H :  0.13  196O :  0.13  475O :  0.13  251H :  0.13  527H :  0.13  298O :  0.13
  483H :  0.13  101H :  0.13  404H :  0.12  339H :  0.12  117H :  0.12  183H :  0.12  379O :  0.12  187O :  0.12   98H :  0.12  144H :  0.11   14H :  0.11   66H :  0.11
  453H :  0.11  319O :  0.10  162H :  0.10  141H :  0.10  500H :  0.10   56H :  0.10  502O :  0.09  348H :  0.09  331O :  0.09  156H :  0.09  233H :  0.09  112O :  0.09
  124O :  0.09  155H :  0.08  388O :  0.08  240H :  0.08  496O :  0.08  387H :  0.08  269H :  0.08   88O :  0.08  275H :  0.08   83H :  0.08   33H :  0.08   39H :  0.08
   45H :  0.08  168H :  0.08  529O :  0.07  119H :  0.07  290H :  0.07  188H :  0.07
    8 LP   *******   0.01 -42.16497 -12.39554  -3.09160   76O :  4.50  310O :  4.23   28O :  3.45   73O :  2.42    7O :  2.04  238O :  1.92   70O :  1.89   97O :  1.88  217O :  1.87   37O :  1.82   16O :  1.80  361O :  1.79
  241O :  1.78  142O :  1.75  490O :  1.71  469O :  1.57  160O :  1.55   43O :  1.53  175O :  1.50  181O :  1.50  292O :  1.48  151O :  1.48  448O :  1.44   55O :  1.39
  202O :  1.35  457O :  1.31  190O :  1.30  520O :  1.28    4O :  1.27  367O :  1.26  166O :  1.23  211O :  1.23  139O :  1.22   58O :  1.20  154O :  1.20    1O :  1.16
  364O :  1.13  418O :  1.13  355O :  1.13   10O :  1.10  451O :  1.00  382O :  0.98  478O :  0.97  526O :  0.97  412O :  0.95  481O :  0.92  307O :  0.92  409O :  0.90
  127O :  0.90  199O :  0.89  427O :  0.87  346O :  0.87  172O :  0.86   64O :  0.85   49O :  0.84  337O :  0.83   91O :  0.83  130O :  0.82  394O :  0.79  178O :  0.78
  343O :  0.75   82O :  0.75  205O :  0.74  232O :  0.72   67O :  0.71  220O :  0.71  403O :  0.71  235O :  0.71  421O :  0.69   52O :  0.69  358O :  0.69  106O :  0.67
   31O :  0.67  415O :  0.66  103O :  0.66  466O :  0.65  193O :  0.63  256O :  0.63  340O :  0.62  499O :  0.62  289O :  0.62  424O :  0.60  250O :  0.60   77H :  0.60
  460O :  0.59  304O :  0.59  115O :  0.57  463O :  0.57  487O :  0.57  352O :  0.56  268O :  0.52  397O :  0.51  484O :  0.51  283O :  0.51  493O :  0.50  505O :  0.49
  100O :  0.49  385O :  0.47   40O :  0.47   34O :  0.46  301O :  0.46  445O :  0.45  244O :  0.45  157O :  0.45  274O :  0.43  262O :  0.43  511O :  0.42   51H :  0.41
  334O :  0.41  247O :  0.41  271O :  0.39  286O :  0.39  442O :  0.39  148O :  0.38  133O :  0.38  430O :  0.37   13O :  0.36  316O :  0.36  169O :  0.36  229O :  0.35
   22O :  0.35  406O :  0.34  194H :  0.33   19O :  0.33  433O :  0.32   18H :  0.32   25O :  0.32  163O :  0.31   61O :  0.31   94O :  0.31  118O :  0.30   79O :  0.30
  370O :  0.30  253O :  0.29  313O :  0.29  265O :  0.29  472O :  0.28   46O :  0.27  436O :  0.27  277O :  0.26  219H :  0.26   85O :  0.25  184O :  0.25  517O :  0.24
  514O :  0.24  322O :  0.24  523O :  0.24  349O :  0.23  454O :  0.22  208O :  0.22  136O :  0.20  226O :  0.19  207H :  0.19   50H :  0.18  384H :  0.18  121O :  0.17
   44H :  0.17   99H :  0.17  373O :  0.16  508O :  0.16  161H :  0.16  214O :  0.16  109O :  0.16  341H :  0.15  376O :  0.15  468H :  0.15  391O :  0.15  431H :  0.15
  223O :  0.15  488H :  0.15  105H :  0.14  239H :  0.14  259O :  0.14  120H :  0.14   98H :  0.13  174H :  0.13  196O :  0.13  475O :  0.13  251H :  0.13  527H :  0.12
  298O :  0.12  483H :  0.12  101H :  0.12  339H :  0.12  404H :  0.12  117H :  0.12  379O :  0.12  187O :  0.11  144H :  0.11   14H :  0.11   66H :  0.11  453H :  0.10
  319O :  0.10  162H :  0.10  141H :  0.10  500H :  0.09   56H :  0.09  502O :  0.09  240H :  0.09  348H :  0.09  331O :  0.09  156H :  0.08  233H :  0.08  124O :  0.08
  155H :  0.08  388O :  0.08  496O :  0.08  387H :  0.08  269H :  0.08   88O :  0.08  275H :  0.08   83H :  0.08   39H :  0.08   33H :  0.08  112O :  0.07   45H :  0.07
  168H :  0.07  529O :  0.07  119H :  0.07  290H :  0.07
    9 LP   *******   0.01   4.76899  15.82339   9.12251   76O :  4.47    7O :  4.05   28O :  3.51   73O :  2.38  310O :  2.03  238O :  1.91   70O :  1.88   97O :  1.87  217O :  1.86   37O :  1.81   16O :  1.78  361O :  1.78
  241O :  1.77  142O :  1.74  490O :  1.70  469O :  1.56  181O :  1.54  160O :  1.54   43O :  1.52  175O :  1.49  292O :  1.47  151O :  1.47  448O :  1.43   55O :  1.38
  202O :  1.35  457O :  1.31  190O :  1.29  520O :  1.27    4O :  1.26  367O :  1.25  166O :  1.23  211O :  1.22  139O :  1.21   58O :  1.19  154O :  1.19    1O :  1.15
  418O :  1.12  355O :  1.12  364O :  1.11   10O :  1.09  451O :  1.00  382O :  0.97  478O :  0.96  526O :  0.96  412O :  0.94  481O :  0.92  307O :  0.91  409O :  0.89
  127O :  0.89  199O :  0.88  427O :  0.86  346O :  0.86  172O :  0.86   64O :  0.84   49O :  0.83  337O :  0.83   91O :  0.82  130O :  0.81  394O :  0.78  178O :  0.77
  343O :  0.75   82O :  0.75  205O :  0.73  232O :  0.72   67O :  0.71  220O :  0.70  403O :  0.70  235O :  0.70  421O :  0.69   52O :  0.69  358O :  0.69  106O :  0.67
   31O :  0.66  415O :  0.65  103O :  0.65  466O :  0.64  193O :  0.63  256O :  0.62  340O :  0.62  499O :  0.62  289O :  0.61  424O :  0.60  250O :  0.59  460O :  0.59
  304O :  0.59   77H :  0.59  115O :  0.57  463O :  0.57  487O :  0.57  352O :  0.55  268O :  0.52  397O :  0.51  283O :  0.50  484O :  0.50  493O :  0.50  505O :  0.48
  100O :  0.48  385O :  0.47   40O :  0.46   34O :  0.46  301O :  0.45  445O :  0.45  157O :  0.44  244O :  0.44  274O :  0.43  262O :  0.42   51H :  0.42  511O :  0.42
  334O :  0.41  247O :  0.41  271O :  0.39  286O :  0.39  442O :  0.39  148O :  0.38  133O :  0.38  430O :  0.37   13O :  0.36  316O :  0.36  169O :  0.36  229O :  0.34
   22O :  0.34  406O :  0.34  194H :  0.33   19O :  0.32  433O :  0.32   18H :  0.32   25O :  0.31   61O :  0.31  163O :  0.31   94O :  0.31  118O :  0.30  370O :  0.30
   79O :  0.30  253O :  0.29  313O :  0.29  265O :  0.29  472O :  0.28   46O :  0.27  436O :  0.27  277O :  0.26  219H :  0.26   85O :  0.25  184O :  0.25  517O :  0.24
  514O :  0.24  322O :  0.24  208O :  0.23  523O :  0.23  349O :  0.23  454O :  0.22  136O :  0.19  226O :  0.19  207H :  0.19  384H :  0.17   50H :  0.17  121O :  0.17
   44H :  0.17   99H :  0.17  373O :  0.16  508O :  0.16  161H :  0.16  214O :  0.16  109O :  0.15  341H :  0.15  376O :  0.15  468H :  0.15  391O :  0.15  431H :  0.15
  223O :  0.14  488H :  0.14  105H :  0.14  239H :  0.14  259O :  0.14  120H :  0.13  196O :  0.13  174H :  0.13  475O :  0.13  251H :  0.13  527H :  0.12  298O :  0.12
  483H :  0.12  101H :  0.12  339H :  0.12  404H :  0.12  117H :  0.12  379O :  0.12  183H :  0.12  187O :  0.11   98H :  0.11  144H :  0.11   14H :  0.11   66H :  0.10
  453H :  0.10  319O :  0.10  162H :  0.10  141H :  0.10  500H :  0.09  387H :  0.09   56H :  0.09  502O :  0.09  240H :  0.09  348H :  0.09  331O :  0.09  156H :  0.08
  233H :  0.08  112O :  0.08  124O :  0.08  155H :  0.08  388O :  0.08  496O :  0.08  269H :  0.08   88O :  0.08  275H :  0.08   83H :  0.08   33H :  0.08   39H :  0.08
   45H :  0.07  168H :  0.07  529O :  0.07  119H :  0.07
   10 LP   *******   0.01  14.84218  -9.37995 -19.42815   76O :  4.26  238O :  3.76   28O :  3.26   73O :  2.26  310O :  1.94    7O :  1.93   70O :  1.79   97O :  1.78  217O :  1.78   37O :  1.72   16O :  1.70  361O :  1.69
  241O :  1.69  142O :  1.66  490O :  1.62  469O :  1.49  181O :  1.47  160O :  1.47   43O :  1.45  175O :  1.42  292O :  1.40  151O :  1.40  448O :  1.36   55O :  1.32
  202O :  1.28  457O :  1.24  190O :  1.23  520O :  1.21    4O :  1.20  367O :  1.19  166O :  1.17  139O :  1.15   58O :  1.13  154O :  1.13  211O :  1.12    1O :  1.10
  418O :  1.07  355O :  1.07  364O :  1.06   10O :  1.04  451O :  0.95  382O :  0.92  478O :  0.92  526O :  0.91  412O :  0.90  481O :  0.87  307O :  0.87  409O :  0.85
  127O :  0.85  199O :  0.84  427O :  0.82  346O :  0.82  172O :  0.82   49O :  0.79  337O :  0.79   91O :  0.78   64O :  0.78  130O :  0.77  394O :  0.75  178O :  0.74
  343O :  0.71   82O :  0.71  205O :  0.70  232O :  0.68   67O :  0.67  220O :  0.67  403O :  0.67  235O :  0.67  421O :  0.66   52O :  0.66  358O :  0.65  106O :  0.63
   31O :  0.63  415O :  0.62  103O :  0.62  466O :  0.61  193O :  0.60  256O :  0.59  340O :  0.59  499O :  0.59  289O :  0.59  424O :  0.57  250O :  0.57  460O :  0.56
   77H :  0.56  304O :  0.56  115O :  0.55  463O :  0.54  487O :  0.54  352O :  0.53  268O :  0.50  397O :  0.48  484O :  0.48  283O :  0.48  493O :  0.47  505O :  0.46
  100O :  0.46  385O :  0.44   40O :  0.44   34O :  0.44  301O :  0.43  445O :  0.43  157O :  0.42  244O :  0.42  274O :  0.41  262O :  0.40   51H :  0.40  511O :  0.40
  334O :  0.39  247O :  0.39  271O :  0.37  286O :  0.37  442O :  0.37  148O :  0.36  133O :  0.36  430O :  0.35   13O :  0.34  316O :  0.34  169O :  0.34  229O :  0.33
   22O :  0.33  406O :  0.32  194H :  0.31   19O :  0.31  433O :  0.31   18H :  0.30   25O :  0.30   61O :  0.30  163O :  0.30   94O :  0.29  118O :  0.29  370O :  0.29
   79O :  0.29  253O :  0.28  313O :  0.28  265O :  0.27  472O :  0.27   46O :  0.26  436O :  0.26  277O :  0.24  219H :  0.24   85O :  0.24  184O :  0.23  517O :  0.23
  514O :  0.23  322O :  0.23  208O :  0.22  523O :  0.22  349O :  0.22  454O :  0.21  136O :  0.19  226O :  0.18  207H :  0.18  384H :  0.17   50H :  0.17  121O :  0.16
   44H :  0.16   99H :  0.16  373O :  0.16  508O :  0.15  161H :  0.15  214O :  0.15  109O :  0.15  341H :  0.15  376O :  0.15  468H :  0.14  391O :  0.14  431H :  0.14
  223O :  0.14  488H :  0.14  105H :  0.13  259O :  0.13  120H :  0.13  196O :  0.12  475O :  0.12  174H :  0.12  251H :  0.12  527H :  0.12  298O :  0.12  483H :  0.12
  101H :  0.12  339H :  0.11  117H :  0.11  404H :  0.11  183H :  0.11  379O :  0.11  239H :  0.11  187O :  0.11   98H :  0.11  144H :  0.11   14H :  0.10   66H :  0.10
  453H :  0.10  319O :  0.10  162H :  0.09  141H :  0.09  500H :  0.09   56H :  0.09  502O :  0.09  348H :  0.08  331O :  0.08  156H :  0.08  233H :  0.08  112O :  0.08
  124O :  0.08  155H :  0.08  388O :  0.08  496O :  0.08  387H :  0.08  269H :  0.08   88O :  0.08  275H :  0.07   83H :  0.07   33H :  0.07   39H :  0.07
   11 LP   *******   0.01  -9.83595  33.39472   6.00343   76O :  3.89  469O :  3.44   28O :  2.97   73O :  2.06  310O :  1.77    7O :  1.76  238O :  1.66   70O :  1.63   97O :  1.63  217O :  1.62   37O :  1.57   16O :  1.55
  361O :  1.55  241O :  1.54  142O :  1.51  490O :  1.48  181O :  1.34  160O :  1.34   43O :  1.32  175O :  1.30  292O :  1.28  151O :  1.28  448O :  1.23   55O :  1.20
  202O :  1.16  457O :  1.14  190O :  1.12  520O :  1.10    4O :  1.10  367O :  1.09  166O :  1.07  211O :  1.06  139O :  1.05   58O :  1.03  154O :  1.03    1O :  1.00
  418O :  0.98  355O :  0.97  364O :  0.97   10O :  0.95  451O :  0.86  382O :  0.84  478O :  0.84  526O :  0.83  412O :  0.82  481O :  0.80  307O :  0.79  409O :  0.78
  127O :  0.77  199O :  0.77  427O :  0.75  346O :  0.75  172O :  0.75   64O :  0.73   49O :  0.72  337O :  0.72   91O :  0.71  130O :  0.70  394O :  0.68  178O :  0.67
  343O :  0.65   82O :  0.65  205O :  0.64  232O :  0.62   67O :  0.61  220O :  0.61  403O :  0.61  235O :  0.61  421O :  0.60   52O :  0.60  358O :  0.60  106O :  0.58
   31O :  0.58  415O :  0.57  103O :  0.57  466O :  0.56  256O :  0.55  193O :  0.55  340O :  0.54  499O :  0.54  289O :  0.53  424O :  0.52  250O :  0.52   77H :  0.52
  460O :  0.51  304O :  0.51  115O :  0.50  463O :  0.49  487O :  0.49  352O :  0.48  268O :  0.45  397O :  0.44  283O :  0.44  484O :  0.44  493O :  0.43  505O :  0.42
  100O :  0.42   40O :  0.40   34O :  0.40  301O :  0.39  445O :  0.39  157O :  0.39  244O :  0.38  274O :  0.38  385O :  0.37  262O :  0.37   51H :  0.37  511O :  0.36
  334O :  0.35  247O :  0.35  271O :  0.34  286O :  0.34  442O :  0.34  148O :  0.33  133O :  0.33  430O :  0.32   13O :  0.31  316O :  0.31  169O :  0.31  229O :  0.30
   22O :  0.30  406O :  0.29  194H :  0.29   19O :  0.28  433O :  0.28   18H :  0.28   25O :  0.27  163O :  0.27   61O :  0.27   94O :  0.27  118O :  0.26  370O :  0.26
   79O :  0.26  253O :  0.25  313O :  0.25  265O :  0.25  472O :  0.25   46O :  0.24  436O :  0.23  277O :  0.22  219H :  0.22   85O :  0.22  184O :  0.21  517O :  0.21
  514O :  0.21  322O :  0.21  208O :  0.20  349O :  0.20  523O :  0.20  454O :  0.19  136O :  0.17  226O :  0.17  207H :  0.16   50H :  0.15  384H :  0.15  121O :  0.15
   44H :  0.15   99H :  0.15  373O :  0.14  508O :  0.14  161H :  0.14  214O :  0.13  109O :  0.13  341H :  0.13  376O :  0.13  468H :  0.13  391O :  0.13  431H :  0.13
  223O :  0.13  488H :  0.13  105H :  0.12  239H :  0.12  259O :  0.12  120H :  0.12  174H :  0.11  196O :  0.11  475O :  0.11  251H :  0.11  527H :  0.11  298O :  0.11
  483H :  0.11  101H :  0.11  339H :  0.10  404H :  0.10  117H :  0.10  379O :  0.10  183H :  0.10  187O :  0.10   98H :  0.10  144H :  0.10   14H :  0.09   66H :  0.09
  453H :  0.09  319O :  0.09  162H :  0.09  141H :  0.08  500H :  0.08   56H :  0.08  502O :  0.08  240H :  0.08  348H :  0.08  331O :  0.07  156H :  0.07  233H :  0.07
  112O :  0.07  124O :  0.07  155H :  0.07  388O :  0.07  496O :  0.07  269H :  0.07
   12 LP   *******   0.01  38.05871 -13.84352   9.36605   76O :  3.67   70O :  3.30   28O :  2.81   73O :  1.95  310O :  1.67    7O :  1.67  238O :  1.57   97O :  1.54  217O :  1.53   37O :  1.49   16O :  1.46  361O :  1.46
  241O :  1.46  142O :  1.43  490O :  1.40  469O :  1.28  181O :  1.27  160O :  1.26   43O :  1.25  175O :  1.23  292O :  1.21  151O :  1.21  448O :  1.18   55O :  1.14
  202O :  1.10  457O :  1.07  190O :  1.06  520O :  1.04    4O :  1.04  367O :  1.03  166O :  1.01  211O :  1.00  139O :  0.99   58O :  0.98  154O :  0.98    1O :  0.95
  418O :  0.92  355O :  0.92  364O :  0.91   10O :  0.90  451O :  0.82  382O :  0.79  478O :  0.79  526O :  0.79  412O :  0.77  481O :  0.75  307O :  0.75  409O :  0.73
  127O :  0.73  199O :  0.72  427O :  0.71  346O :  0.71  172O :  0.71   64O :  0.69   49O :  0.68  337O :  0.68   91O :  0.67  130O :  0.67  394O :  0.64  178O :  0.64
  343O :  0.61   82O :  0.61  205O :  0.60  232O :  0.59   67O :  0.58  220O :  0.58  403O :  0.58  235O :  0.58  421O :  0.57   52O :  0.57  358O :  0.57  193O :  0.55
  106O :  0.55   31O :  0.55  415O :  0.54  103O :  0.53  466O :  0.53  256O :  0.51  499O :  0.51  340O :  0.51  289O :  0.51  424O :  0.49  250O :  0.49   77H :  0.49
  460O :  0.49  304O :  0.48  115O :  0.47  463O :  0.47  352O :  0.45  487O :  0.45  194H :  0.43  268O :  0.43  397O :  0.42  484O :  0.41  283O :  0.41  493O :  0.41
  505O :  0.40  100O :  0.40  385O :  0.38   40O :  0.38   34O :  0.38  445O :  0.37  301O :  0.37  157O :  0.36  244O :  0.36  262O :  0.35  274O :  0.35   51H :  0.35
  511O :  0.34  334O :  0.33  247O :  0.33  271O :  0.32  286O :  0.32  442O :  0.32  148O :  0.31  133O :  0.31  430O :  0.30   13O :  0.30  316O :  0.29  169O :  0.29
  229O :  0.28   22O :  0.28  406O :  0.28   19O :  0.27  433O :  0.26   18H :  0.26   25O :  0.26   61O :  0.25  163O :  0.25   94O :  0.25  118O :  0.25  370O :  0.25
   79O :  0.25  253O :  0.24  313O :  0.24  265O :  0.24  472O :  0.23   46O :  0.22  436O :  0.22  277O :  0.21  219H :  0.21   85O :  0.21  184O :  0.20  517O :  0.20
  514O :  0.20  322O :  0.20  208O :  0.19  523O :  0.19  349O :  0.19  454O :  0.18  136O :  0.16  226O :  0.16  207H :  0.15   50H :  0.14  384H :  0.14  121O :  0.14
   44H :  0.14   99H :  0.14  373O :  0.13  508O :  0.13  161H :  0.13  214O :  0.13  109O :  0.13  341H :  0.13  376O :  0.13  468H :  0.12  431H :  0.12  391O :  0.12
  223O :  0.12  488H :  0.12  105H :  0.12  239H :  0.11  259O :  0.11  120H :  0.11  174H :  0.10  196O :  0.10  475O :  0.10  251H :  0.10  527H :  0.10  298O :  0.10
  483H :  0.10  101H :  0.10  117H :  0.10  339H :  0.10  404H :  0.10  183H :  0.10  379O :  0.10  187O :  0.09   98H :  0.09  144H :  0.09   14H :  0.09   66H :  0.09
  453H :  0.08  319O :  0.08  162H :  0.08  141H :  0.08  500H :  0.08   56H :  0.08  502O :  0.07  240H :  0.07  348H :  0.07  331O :  0.07
   13 LP   *******   0.01 -14.28544  -6.17696 -23.88285   76O :  3.62   43O :  3.08   28O :  2.78   73O :  1.93  310O :  1.65    7O :  1.65  238O :  1.54   70O :  1.52   97O :  1.52  217O :  1.51   37O :  1.47   16O :  1.45
  361O :  1.44  241O :  1.44  142O :  1.41  490O :  1.38  469O :  1.27  181O :  1.25  160O :  1.25  175O :  1.21  292O :  1.19  151O :  1.19  448O :  1.16   55O :  1.12
  202O :  1.09  457O :  1.06  190O :  1.05  520O :  1.03    4O :  1.02  367O :  1.02  166O :  0.99  211O :  0.99  139O :  0.98   58O :  0.96  154O :  0.96    1O :  0.94
  418O :  0.91  355O :  0.91  364O :  0.90   10O :  0.88  451O :  0.81  382O :  0.79  478O :  0.78  526O :  0.78  412O :  0.77  481O :  0.74  307O :  0.74  409O :  0.72
  127O :  0.72  199O :  0.72  346O :  0.70  427O :  0.69  172O :  0.69   49O :  0.68  337O :  0.67   91O :  0.67  130O :  0.66   64O :  0.64  394O :  0.64  178O :  0.63
   82O :  0.62  343O :  0.61  205O :  0.60  232O :  0.58  220O :  0.57   67O :  0.57  403O :  0.57  235O :  0.57  421O :  0.56  358O :  0.56   52O :  0.55   31O :  0.54
  106O :  0.54  415O :  0.53  103O :  0.53  466O :  0.52  193O :  0.51  256O :  0.51  340O :  0.50  499O :  0.50  289O :  0.50  424O :  0.49  250O :  0.48   77H :  0.48
  460O :  0.48  304O :  0.48  115O :  0.46  463O :  0.46  487O :  0.46  352O :  0.45  268O :  0.42  397O :  0.41  484O :  0.41  283O :  0.41  493O :  0.40  505O :  0.39
  100O :  0.39  385O :  0.38   40O :  0.38   34O :  0.37  301O :  0.37  445O :  0.37  244O :  0.36  157O :  0.36  274O :  0.35   51H :  0.34  262O :  0.34  511O :  0.34
  334O :  0.33  247O :  0.33  271O :  0.32  286O :  0.31  442O :  0.31  148O :  0.31  133O :  0.31  430O :  0.30   13O :  0.29  316O :  0.29  169O :  0.29  229O :  0.28
   22O :  0.28  406O :  0.27  194H :  0.27   19O :  0.26  433O :  0.26   18H :  0.26   25O :  0.26   61O :  0.25  163O :  0.25   94O :  0.25  118O :  0.25  370O :  0.24
   79O :  0.24  253O :  0.24  313O :  0.24  265O :  0.23  472O :  0.23   46O :  0.22  436O :  0.22  277O :  0.21  219H :  0.21   85O :  0.20  184O :  0.20  517O :  0.19
  514O :  0.19  322O :  0.19  208O :  0.19  523O :  0.19  349O :  0.19  454O :  0.18  136O :  0.16  226O :  0.16  207H :  0.15   50H :  0.14  384H :  0.14  121O :  0.14
   99H :  0.14  373O :  0.13  508O :  0.13  161H :  0.13  214O :  0.13  109O :  0.13  341H :  0.12  376O :  0.12  468H :  0.12  391O :  0.12  431H :  0.12  223O :  0.12
  488H :  0.12  105H :  0.11  239H :  0.11   44H :  0.11  259O :  0.11  120H :  0.11  174H :  0.11  196O :  0.10  475O :  0.10  251H :  0.10  527H :  0.10  298O :  0.10
  483H :  0.10  101H :  0.10  339H :  0.10  117H :  0.10  183H :  0.09  379O :  0.09  187O :  0.09   98H :  0.09  144H :  0.09  404H :  0.09   14H :  0.09  453H :  0.08
  319O :  0.08  162H :  0.08  141H :  0.08  500H :  0.08   56H :  0.07  502O :  0.07  348H :  0.07
   14 LP   *******   0.01 -36.05615 -30.67101   1.46874   76O :  3.61  139O :  3.00   28O :  2.76   73O :  1.92  310O :  1.64    7O :  1.64  238O :  1.54   70O :  1.51   97O :  1.51  217O :  1.50   37O :  1.46   16O :  1.44
  361O :  1.43  241O :  1.43  142O :  1.40  490O :  1.37  469O :  1.26  181O :  1.24  160O :  1.24   43O :  1.23  175O :  1.20  292O :  1.19  151O :  1.18  448O :  1.15
   55O :  1.12  202O :  1.08  457O :  1.05  190O :  1.04  520O :  1.03    4O :  1.02  367O :  1.01  166O :  0.99  211O :  0.98   58O :  0.96  154O :  0.96    1O :  0.93
  364O :  0.92  418O :  0.91  355O :  0.90   10O :  0.88  451O :  0.80  382O :  0.78  478O :  0.78  526O :  0.77  412O :  0.76  307O :  0.75  481O :  0.74  409O :  0.72
  127O :  0.72  199O :  0.71  427O :  0.70  346O :  0.69  172O :  0.69   64O :  0.68   49O :  0.67  337O :  0.67   91O :  0.66  130O :  0.65  394O :  0.64  178O :  0.63
  343O :  0.60   82O :  0.60  205O :  0.59  232O :  0.58  220O :  0.57   67O :  0.57  403O :  0.57  235O :  0.57  421O :  0.56  358O :  0.56   52O :  0.56  106O :  0.54
   31O :  0.54  466O :  0.53  415O :  0.53  103O :  0.53  193O :  0.51  256O :  0.50  340O :  0.50  499O :  0.50  289O :  0.50  424O :  0.48  250O :  0.48   77H :  0.48
  460O :  0.48  304O :  0.48  115O :  0.46  463O :  0.46  487O :  0.46  352O :  0.45  268O :  0.42  397O :  0.41  484O :  0.41  283O :  0.40  493O :  0.40  505O :  0.39
  100O :  0.39  385O :  0.37   40O :  0.37   34O :  0.37  301O :  0.36  445O :  0.36  157O :  0.36  244O :  0.36  274O :  0.35  262O :  0.34   51H :  0.34  511O :  0.34
  247O :  0.33  334O :  0.33  271O :  0.31  442O :  0.31  286O :  0.31  148O :  0.31  133O :  0.30  430O :  0.29   13O :  0.29  316O :  0.29  169O :  0.29  229O :  0.28
   22O :  0.28  406O :  0.27  194H :  0.27   19O :  0.26  433O :  0.26   18H :  0.26  163O :  0.25   61O :  0.25   94O :  0.25  118O :  0.24   79O :  0.24  370O :  0.24
   25O :  0.24  253O :  0.24  313O :  0.23  265O :  0.23  472O :  0.23   46O :  0.22  436O :  0.22  277O :  0.21  219H :  0.21   85O :  0.20  184O :  0.20  517O :  0.19
  514O :  0.19  322O :  0.19  523O :  0.19  349O :  0.19  208O :  0.19  454O :  0.18  136O :  0.16  226O :  0.16  207H :  0.15  384H :  0.14   50H :  0.14  121O :  0.14
   44H :  0.14   99H :  0.14  373O :  0.13  508O :  0.13  161H :  0.13  109O :  0.13  214O :  0.12  341H :  0.12  376O :  0.12  468H :  0.12  391O :  0.12  431H :  0.12
  223O :  0.12  488H :  0.12  105H :  0.11  239H :  0.11  259O :  0.11  120H :  0.11  174H :  0.10  196O :  0.10  475O :  0.10  251H :  0.10  298O :  0.10  527H :  0.10
  483H :  0.10  339H :  0.10  101H :  0.10  404H :  0.10  117H :  0.09  183H :  0.09  379O :  0.09  187O :  0.09   98H :  0.09  144H :  0.09   14H :  0.09   66H :  0.08
  453H :  0.08  319O :  0.08  162H :  0.08  500H :  0.08   56H :  0.07  502O :  0.07  240H :  0.07  348H :  0.07
   15 LP   *******   0.01   1.54073 -42.10395  -3.04649   76O :  3.45   16O :  2.92   28O :  2.64   73O :  1.83  310O :  1.57    7O :  1.57  238O :  1.48   70O :  1.45   97O :  1.44  217O :  1.44   37O :  1.40  361O :  1.37
  241O :  1.37  142O :  1.34  490O :  1.31  469O :  1.21  181O :  1.19  160O :  1.19   43O :  1.18  175O :  1.15  292O :  1.13  151O :  1.13  448O :  1.11   55O :  1.07
  202O :  1.04   18H :  1.02  457O :  1.01  190O :  1.00  520O :  0.98    4O :  0.97  367O :  0.97  166O :  0.95  211O :  0.94  139O :  0.93   58O :  0.92  154O :  0.92
    1O :  0.89  418O :  0.88  355O :  0.87  364O :  0.86   10O :  0.84  451O :  0.77  382O :  0.75  478O :  0.74  526O :  0.74  412O :  0.73  481O :  0.71  307O :  0.70
  409O :  0.69  127O :  0.69  199O :  0.68  427O :  0.67  346O :  0.67  172O :  0.66   64O :  0.65   49O :  0.64  337O :  0.64   91O :  0.63  130O :  0.63  394O :  0.61
  178O :  0.60  343O :  0.58   82O :  0.58  205O :  0.57  232O :  0.55   67O :  0.54  220O :  0.54  403O :  0.54  235O :  0.54  421O :  0.53  358O :  0.53   52O :  0.53
   31O :  0.51  106O :  0.51  415O :  0.51  103O :  0.50  466O :  0.50  193O :  0.49  256O :  0.48  340O :  0.48  499O :  0.48  289O :  0.48  424O :  0.46  250O :  0.46
   77H :  0.46  460O :  0.46  304O :  0.46  115O :  0.44  463O :  0.44  487O :  0.44  352O :  0.43  268O :  0.40  397O :  0.39  484O :  0.39  283O :  0.39  493O :  0.38
  505O :  0.37  100O :  0.37  385O :  0.36   40O :  0.36   34O :  0.35  301O :  0.35  445O :  0.35  157O :  0.34  244O :  0.34  274O :  0.33  262O :  0.33   51H :  0.33
  511O :  0.32  334O :  0.31  247O :  0.31  271O :  0.30  286O :  0.30  442O :  0.30  148O :  0.29  133O :  0.29  430O :  0.28   13O :  0.28  316O :  0.28  169O :  0.28
  229O :  0.27   22O :  0.26  406O :  0.26  194H :  0.26   19O :  0.25  433O :  0.25   25O :  0.24   61O :  0.24  163O :  0.24   94O :  0.24  118O :  0.23  370O :  0.23
   79O :  0.23  253O :  0.22  313O :  0.22  265O :  0.22  472O :  0.22   46O :  0.21  436O :  0.21  219H :  0.20  277O :  0.20   85O :  0.20  184O :  0.19  514O :  0.18
  322O :  0.18  208O :  0.18  523O :  0.18  349O :  0.18  454O :  0.17  517O :  0.17  136O :  0.15  226O :  0.15  207H :  0.14  384H :  0.14   50H :  0.14   44H :  0.13
  121O :  0.13   99H :  0.13  373O :  0.13  508O :  0.12  161H :  0.12  214O :  0.12  109O :  0.12  376O :  0.12  341H :  0.12  468H :  0.12  391O :  0.12  431H :  0.11
  223O :  0.11  488H :  0.11  105H :  0.11  239H :  0.11  259O :  0.11  120H :  0.10  174H :  0.10  196O :  0.10  475O :  0.10  251H :  0.10  527H :  0.10  298O :  0.09
  483H :  0.09  101H :  0.09  339H :  0.09  404H :  0.09  117H :  0.09  183H :  0.09  379O :  0.09  187O :  0.09   98H :  0.09  144H :  0.09   14H :  0.08   66H :  0.08
  453H :  0.08  319O :  0.08  162H :  0.08  141H :  0.07  500H :  0.07   56H :  0.07  502O :  0.07
   16 LP   *******   0.01  -8.29320  35.18757  22.38196   76O :  3.43  448O :  3.17   28O :  2.63   73O :  1.82  310O :  1.56    7O :  1.56  238O :  1.47   70O :  1.44   97O :  1.44  217O :  1.43   37O :  1.39   16O :  1.37
  361O :  1.37  241O :  1.36  142O :  1.34  490O :  1.31  469O :  1.19  181O :  1.18  160O :  1.18   43O :  1.17  175O :  1.15  292O :  1.13  151O :  1.13   55O :  1.06
  202O :  1.03  457O :  1.00  190O :  0.99  520O :  0.98    4O :  0.97  367O :  0.96  166O :  0.94  211O :  0.94  139O :  0.93   58O :  0.91  154O :  0.91    1O :  0.89
  418O :  0.86  355O :  0.86  364O :  0.86   10O :  0.84  451O :  0.76  382O :  0.74  478O :  0.74  526O :  0.74  412O :  0.72  481O :  0.70  307O :  0.70  409O :  0.69
  127O :  0.68  199O :  0.68  427O :  0.66  346O :  0.66  172O :  0.66   64O :  0.64   49O :  0.64  337O :  0.64   91O :  0.63  130O :  0.62  394O :  0.60  178O :  0.60
  343O :  0.57   82O :  0.57  205O :  0.56  232O :  0.55   67O :  0.54  220O :  0.54  403O :  0.54  235O :  0.54  421O :  0.53   52O :  0.53  358O :  0.53  106O :  0.51
   31O :  0.51  415O :  0.50  103O :  0.50  466O :  0.49  193O :  0.48  256O :  0.48  340O :  0.48  499O :  0.48  289O :  0.47  424O :  0.46  250O :  0.46   77H :  0.45
  460O :  0.45  304O :  0.45  115O :  0.44  463O :  0.43  487O :  0.43  352O :  0.42  268O :  0.40  397O :  0.39  484O :  0.39  283O :  0.39  493O :  0.38  505O :  0.37
  100O :  0.37  385O :  0.36   40O :  0.36   34O :  0.35  301O :  0.35  445O :  0.35  157O :  0.34  244O :  0.34  274O :  0.33  262O :  0.33   51H :  0.33  511O :  0.32
  334O :  0.31  247O :  0.31  271O :  0.30  286O :  0.30  442O :  0.30  148O :  0.29  133O :  0.29  430O :  0.28   13O :  0.28  316O :  0.28  169O :  0.27  229O :  0.27
   22O :  0.26  406O :  0.26  194H :  0.25   19O :  0.25  433O :  0.25   18H :  0.24   25O :  0.24  163O :  0.24   61O :  0.24   94O :  0.24  118O :  0.23  370O :  0.23
   79O :  0.23  253O :  0.22  313O :  0.22  265O :  0.22  472O :  0.22   46O :  0.21  436O :  0.21  277O :  0.20  219H :  0.20   85O :  0.19  184O :  0.19  517O :  0.18
  514O :  0.18  322O :  0.18  208O :  0.18  523O :  0.18  349O :  0.18  454O :  0.17  136O :  0.15  226O :  0.15  207H :  0.14  384H :  0.13   50H :  0.13  121O :  0.13
   44H :  0.13   99H :  0.13  373O :  0.13  508O :  0.12  161H :  0.12  214O :  0.12  109O :  0.12  341H :  0.12  376O :  0.12  468H :  0.12  391O :  0.11  431H :  0.11
  223O :  0.11  488H :  0.11  105H :  0.11  239H :  0.11  259O :  0.10  120H :  0.10  196O :  0.10  174H :  0.10  475O :  0.10  251H :  0.10  527H :  0.10  298O :  0.09
  483H :  0.09  101H :  0.09  339H :  0.09  404H :  0.09  117H :  0.09  379O :  0.09  183H :  0.09  187O :  0.09   98H :  0.09  144H :  0.09   14H :  0.08   66H :  0.08
  453H :  0.08  319O :  0.08  162H :  0.08  141H :  0.07  500H :  0.07   56H :  0.07
   17 LP   *******   0.01  19.66768  -6.75559   0.83685  361O :  3.42   76O :  3.38   28O :  2.59   73O :  1.80  310O :  1.54    7O :  1.54  238O :  1.45   70O :  1.42   97O :  1.42  217O :  1.41   37O :  1.37   16O :  1.35
  241O :  1.34  142O :  1.32  490O :  1.29  469O :  1.18  181O :  1.17  160O :  1.17   43O :  1.15  175O :  1.13  292O :  1.11  151O :  1.11  448O :  1.08   55O :  1.05
  202O :  1.02  457O :  0.99  190O :  0.98  520O :  0.96    4O :  0.95  367O :  0.95  166O :  0.93  211O :  0.92  139O :  0.91   58O :  0.90  154O :  0.90    1O :  0.87
  418O :  0.85  355O :  0.85  364O :  0.84   10O :  0.82  451O :  0.75  382O :  0.73  478O :  0.73  526O :  0.73  412O :  0.71  481O :  0.69  307O :  0.69  409O :  0.68
  127O :  0.67  199O :  0.67  427O :  0.65  346O :  0.65  172O :  0.65   64O :  0.64   49O :  0.63  337O :  0.63   91O :  0.62  130O :  0.61  394O :  0.59  178O :  0.59
  343O :  0.57   82O :  0.57  205O :  0.56  232O :  0.54   67O :  0.53  220O :  0.53  403O :  0.53  235O :  0.53  421O :  0.52   52O :  0.52  358O :  0.52  106O :  0.50
   31O :  0.50  415O :  0.50  103O :  0.49  466O :  0.49  193O :  0.48  256O :  0.47  340O :  0.47  499O :  0.47  289O :  0.47  424O :  0.45  250O :  0.45   77H :  0.45
  460O :  0.45  304O :  0.45  115O :  0.43  463O :  0.43  487O :  0.43  352O :  0.42  268O :  0.39  397O :  0.39  484O :  0.38  283O :  0.38  493O :  0.38  505O :  0.37
  100O :  0.37  385O :  0.35   40O :  0.35   34O :  0.35  301O :  0.34  445O :  0.34  157O :  0.34  244O :  0.34  274O :  0.33  262O :  0.32   51H :  0.32  511O :  0.31
  334O :  0.31  247O :  0.31  271O :  0.29  286O :  0.29  442O :  0.29  148O :  0.29  133O :  0.29  430O :  0.28   13O :  0.27  169O :  0.27  229O :  0.26  316O :  0.26
   22O :  0.26  406O :  0.25  194H :  0.25   19O :  0.24  433O :  0.24   18H :  0.24   25O :  0.24  163O :  0.23   61O :  0.23   94O :  0.23  118O :  0.23  370O :  0.23
   79O :  0.23  253O :  0.22  313O :  0.22  265O :  0.22  472O :  0.21   46O :  0.20  436O :  0.20  277O :  0.19  219H :  0.19   85O :  0.19  184O :  0.19  517O :  0.18
  514O :  0.18  322O :  0.18  208O :  0.18  523O :  0.18  349O :  0.18  454O :  0.17  136O :  0.15  226O :  0.15  207H :  0.14  384H :  0.13   50H :  0.13  121O :  0.13
   44H :  0.13   99H :  0.13  373O :  0.12  508O :  0.12  161H :  0.12  214O :  0.12  109O :  0.12  341H :  0.12  376O :  0.12  391O :  0.12  468H :  0.11  431H :  0.11
  223O :  0.11  488H :  0.11  105H :  0.11  239H :  0.11  259O :  0.10  120H :  0.10  174H :  0.10  196O :  0.10  475O :  0.10  251H :  0.09  527H :  0.09  298O :  0.09
  483H :  0.09  101H :  0.09  339H :  0.09  404H :  0.09  117H :  0.09  183H :  0.09  379O :  0.09  187O :  0.09   98H :  0.08  144H :  0.08   14H :  0.08   66H :  0.08
  453H :  0.08  319O :  0.08  162H :  0.07  141H :  0.07  500H :  0.07   56H :  0.07
   18 LP   *******   0.01 -31.54200  11.94605  -6.24620   76O :  3.39  490O :  2.82   28O :  2.59   73O :  1.79  310O :  1.54    7O :  1.54  238O :  1.45   70O :  1.42   97O :  1.41  217O :  1.41   37O :  1.38   16O :  1.35
  361O :  1.35  241O :  1.34  142O :  1.32  469O :  1.18  181O :  1.17  160O :  1.17   43O :  1.15  175O :  1.13  292O :  1.11  151O :  1.11  448O :  1.08   55O :  1.05
  202O :  1.01  457O :  0.99  190O :  0.99  520O :  0.96    4O :  0.95  367O :  0.95  166O :  0.93  211O :  0.92  139O :  0.91   58O :  0.90  154O :  0.90    1O :  0.87
  418O :  0.85  355O :  0.85  364O :  0.84   10O :  0.82  451O :  0.75  382O :  0.73  478O :  0.73  526O :  0.73  412O :  0.71  481O :  0.69  307O :  0.69  409O :  0.68
  127O :  0.67  199O :  0.67  427O :  0.65  346O :  0.65  172O :  0.65   64O :  0.64   49O :  0.63  337O :  0.63   91O :  0.62  130O :  0.61  394O :  0.59  178O :  0.59
  343O :  0.57   82O :  0.57  205O :  0.56  232O :  0.54   67O :  0.53  220O :  0.53  403O :  0.53  235O :  0.53   52O :  0.52  421O :  0.52  358O :  0.52   31O :  0.50
  106O :  0.50  415O :  0.50  103O :  0.49  466O :  0.49  193O :  0.48  256O :  0.47  340O :  0.47  499O :  0.47  289O :  0.47  424O :  0.45  250O :  0.45   77H :  0.45
  460O :  0.45  304O :  0.45  115O :  0.43  463O :  0.43  487O :  0.43  352O :  0.42  268O :  0.39  397O :  0.39  484O :  0.38  283O :  0.38  493O :  0.37  505O :  0.37
  100O :  0.37  385O :  0.35   40O :  0.35   34O :  0.35  301O :  0.34  445O :  0.34  157O :  0.34  244O :  0.34  274O :  0.33  262O :  0.32  511O :  0.31   51H :  0.31
  334O :  0.31  247O :  0.31  271O :  0.29  286O :  0.29  442O :  0.29  148O :  0.29  133O :  0.29  430O :  0.28   13O :  0.27  316O :  0.27  169O :  0.27  118O :  0.27
  229O :  0.26   22O :  0.26  406O :  0.25  194H :  0.25   19O :  0.24  433O :  0.24   18H :  0.24   25O :  0.24   61O :  0.24  163O :  0.23   94O :  0.23  370O :  0.23
   79O :  0.23  120H :  0.22  253O :  0.22  313O :  0.22  265O :  0.22  472O :  0.21   46O :  0.20  436O :  0.20  277O :  0.19  219H :  0.19   85O :  0.19  184O :  0.19
  517O :  0.18  514O :  0.18  322O :  0.18  208O :  0.18  523O :  0.18  349O :  0.18  454O :  0.17  136O :  0.15  226O :  0.15   99H :  0.15  207H :  0.14   50H :  0.13
  384H :  0.13  121O :  0.13   44H :  0.13  373O :  0.12  508O :  0.12  161H :  0.12  214O :  0.12  109O :  0.12  341H :  0.12  376O :  0.12  468H :  0.11  391O :  0.11
  431H :  0.11  223O :  0.11  488H :  0.11  105H :  0.11  239H :  0.11  259O :  0.10  174H :  0.10  196O :  0.10  475O :  0.10  251H :  0.09  527H :  0.09  298O :  0.09
  483H :  0.09  101H :  0.09  339H :  0.09  404H :  0.09  117H :  0.09  183H :  0.09  379O :  0.09   98H :  0.09  187O :  0.09  144H :  0.08   14H :  0.08   66H :  0.08
  453H :  0.08  319O :  0.08  162H :  0.07  141H :  0.07  500H :  0.07
   19 LP   *******   0.01 -17.87488   6.54437  21.61283   76O :  3.38  520O :  2.73   28O :  2.58   73O :  1.79  310O :  1.54    7O :  1.53  238O :  1.44   70O :  1.42   97O :  1.42  217O :  1.41   37O :  1.38  241O :  1.35
   16O :  1.35  361O :  1.34  142O :  1.32  490O :  1.28  469O :  1.18  160O :  1.17  181O :  1.17   43O :  1.15  175O :  1.13  292O :  1.11  151O :  1.11  448O :  1.08
   55O :  1.04  202O :  1.02  457O :  0.99  190O :  0.98    4O :  0.95  367O :  0.95  166O :  0.93  211O :  0.92  139O :  0.91   58O :  0.90  154O :  0.90    1O :  0.87
  418O :  0.85  355O :  0.85  364O :  0.84   10O :  0.82  382O :  0.73  478O :  0.73  526O :  0.72  451O :  0.71  412O :  0.71  481O :  0.69  307O :  0.69  409O :  0.68
  127O :  0.67  199O :  0.67  427O :  0.65  346O :  0.65  172O :  0.65   64O :  0.63   49O :  0.63  337O :  0.63   91O :  0.62  130O :  0.61  394O :  0.59  178O :  0.59
  343O :  0.57   82O :  0.56  205O :  0.56  235O :  0.55  232O :  0.54  220O :  0.53   67O :  0.53  403O :  0.53  421O :  0.52   52O :  0.52  358O :  0.52  106O :  0.50
   31O :  0.50  415O :  0.49  103O :  0.49  466O :  0.49  193O :  0.48  256O :  0.47  340O :  0.47  499O :  0.47  289O :  0.46  424O :  0.45  250O :  0.45   77H :  0.45
  460O :  0.45  304O :  0.45  115O :  0.43  463O :  0.43  487O :  0.43  352O :  0.42  268O :  0.39  397O :  0.38  484O :  0.38  283O :  0.38  493O :  0.37  505O :  0.37
  100O :  0.37  385O :  0.35   40O :  0.35   34O :  0.35  301O :  0.34  445O :  0.34  157O :  0.33  244O :  0.33  274O :  0.33  262O :  0.32   51H :  0.32  511O :  0.31
  334O :  0.31  247O :  0.31  271O :  0.29  286O :  0.29  442O :  0.29  148O :  0.29  133O :  0.28  430O :  0.28   13O :  0.27  316O :  0.27  169O :  0.27  229O :  0.26
   22O :  0.26  406O :  0.25  194H :  0.25   19O :  0.24  433O :  0.24   18H :  0.24   25O :  0.24  163O :  0.23   61O :  0.23   94O :  0.23  118O :  0.23   79O :  0.23
  370O :  0.23  253O :  0.22  313O :  0.22  265O :  0.22  472O :  0.21   46O :  0.20  436O :  0.20  277O :  0.19  219H :  0.19   85O :  0.19  184O :  0.19  517O :  0.18
  514O :  0.18  322O :  0.18  208O :  0.18  523O :  0.18  349O :  0.18  454O :  0.17  136O :  0.15  226O :  0.15  207H :  0.14  384H :  0.13   50H :  0.13  121O :  0.13
   44H :  0.13   99H :  0.13  373O :  0.12  508O :  0.12  161H :  0.12  109O :  0.12  214O :  0.12  341H :  0.12  376O :  0.12  468H :  0.11  391O :  0.11  431H :  0.11
  223O :  0.11  488H :  0.11  105H :  0.11  239H :  0.11  259O :  0.10  120H :  0.10  174H :  0.10  196O :  0.10  475O :  0.10  251H :  0.09  527H :  0.09  298O :  0.09
  483H :  0.09  101H :  0.09  339H :  0.09  404H :  0.09  117H :  0.09  379O :  0.09  183H :  0.09  187O :  0.09   98H :  0.08  144H :  0.08   14H :  0.08   66H :  0.08
  453H :  0.08  319O :  0.08  162H :  0.07  141H :  0.07  500H :  0.07
   20 LP   *******   0.01 -14.18470  16.44630  32.24410   76O :  3.25  241O :  2.78   28O :  2.48   73O :  1.73  310O :  1.48    7O :  1.48  238O :  1.39   70O :  1.36   97O :  1.36  217O :  1.35   37O :  1.32   16O :  1.30
  361O :  1.29  142O :  1.27  490O :  1.24  469O :  1.14  181O :  1.12  160O :  1.12   43O :  1.11  175O :  1.09  292O :  1.07  151O :  1.07  448O :  1.04   55O :  1.01
  202O :  0.98  457O :  0.95  190O :  0.94  520O :  0.94    4O :  0.92  367O :  0.91  166O :  0.89  211O :  0.89  139O :  0.88   58O :  0.86  154O :  0.84    1O :  0.84
  418O :  0.82  355O :  0.82  364O :  0.81   10O :  0.79  451O :  0.72  382O :  0.70  478O :  0.70  526O :  0.70  412O :  0.69  481O :  0.66  307O :  0.66  409O :  0.65
  127O :  0.65  199O :  0.64  427O :  0.63  346O :  0.63  172O :  0.62   64O :  0.61   49O :  0.61  337O :  0.60   91O :  0.60  130O :  0.59  394O :  0.57  178O :  0.56
  343O :  0.54   82O :  0.54  205O :  0.53  232O :  0.52   67O :  0.51  220O :  0.51  403O :  0.51  235O :  0.51  421O :  0.50   52O :  0.50  358O :  0.50  106O :  0.48
   31O :  0.48  415O :  0.48  103O :  0.47  466O :  0.47  193O :  0.46  256O :  0.45  340O :  0.45  499O :  0.45  289O :  0.45  424O :  0.44  250O :  0.43   77H :  0.43
  460O :  0.43  304O :  0.43  115O :  0.41  463O :  0.41  487O :  0.41  352O :  0.40  268O :  0.38  397O :  0.37  484O :  0.37  283O :  0.37  493O :  0.36  505O :  0.35
  100O :  0.35  385O :  0.34   40O :  0.34  301O :  0.33   34O :  0.33  445O :  0.33  157O :  0.32  244O :  0.32  274O :  0.31  262O :  0.31   51H :  0.31  511O :  0.30
  334O :  0.29  247O :  0.29  271O :  0.28  286O :  0.28  442O :  0.28  148O :  0.28  133O :  0.27  430O :  0.27   13O :  0.26  316O :  0.26  169O :  0.26  229O :  0.25
   22O :  0.25  406O :  0.24  194H :  0.24   19O :  0.24  433O :  0.23   18H :  0.23   25O :  0.23   61O :  0.23  163O :  0.23   94O :  0.22  118O :  0.22  370O :  0.22
   79O :  0.22  253O :  0.21  313O :  0.21  265O :  0.21  472O :  0.21   46O :  0.20  436O :  0.19  277O :  0.19  219H :  0.19   85O :  0.18  184O :  0.18  517O :  0.17
  514O :  0.17  322O :  0.17  523O :  0.17  208O :  0.17  349O :  0.17  454O :  0.16  136O :  0.14  226O :  0.14  207H :  0.14  384H :  0.13   50H :  0.13  121O :  0.13
   44H :  0.12   99H :  0.12  373O :  0.12  508O :  0.11  161H :  0.11  214O :  0.11  109O :  0.11  341H :  0.11  376O :  0.11  468H :  0.11  391O :  0.11  431H :  0.11
  223O :  0.11  488H :  0.11  105H :  0.10  239H :  0.10  259O :  0.10  120H :  0.10  174H :  0.09  196O :  0.09  475O :  0.09  251H :  0.09  527H :  0.09  298O :  0.09
  483H :  0.09  101H :  0.09  339H :  0.09  404H :  0.09  117H :  0.09  183H :  0.08  379O :  0.08  187O :  0.08   98H :  0.08  144H :  0.08   14H :  0.08   66H :  0.08
  453H :  0.07  319O :  0.07  162H :  0.07
   21 LP   *******   0.01 -57.21057  23.09523  11.50128   76O :  3.19  367O :  2.77   28O :  2.44   73O :  1.70  310O :  1.45    7O :  1.45  238O :  1.36   70O :  1.34   97O :  1.34  217O :  1.33   37O :  1.29   16O :  1.27
  361O :  1.27  241O :  1.27  142O :  1.24  490O :  1.22  469O :  1.12  181O :  1.10  160O :  1.10   43O :  1.09  175O :  1.07  292O :  1.05  151O :  1.05  448O :  1.02
   55O :  0.99  202O :  0.96  457O :  0.93  190O :  0.92  520O :  0.91    4O :  0.90  166O :  0.88  211O :  0.87  139O :  0.86   58O :  0.85  154O :  0.85    1O :  0.82
  418O :  0.80  355O :  0.80  364O :  0.80   10O :  0.78  451O :  0.71  382O :  0.69  478O :  0.69  526O :  0.69  412O :  0.68  481O :  0.65  307O :  0.65  409O :  0.64
  127O :  0.64  199O :  0.63  427O :  0.62  346O :  0.62  172O :  0.61   64O :  0.60   49O :  0.60  337O :  0.59   91O :  0.59  130O :  0.58  394O :  0.56  178O :  0.55
  343O :  0.53   82O :  0.53  205O :  0.52  232O :  0.51   67O :  0.50  220O :  0.50  403O :  0.50  235O :  0.50  421O :  0.49   52O :  0.49  358O :  0.49  106O :  0.48
   31O :  0.47  415O :  0.47  103O :  0.46  466O :  0.46  193O :  0.45  256O :  0.45  340O :  0.44  499O :  0.44  289O :  0.44  424O :  0.43  250O :  0.42   77H :  0.42
  460O :  0.42  304O :  0.42  115O :  0.41  463O :  0.40  487O :  0.40  352O :  0.39  268O :  0.37  397O :  0.36  484O :  0.36  283O :  0.36  493O :  0.35  505O :  0.35
  100O :  0.35  385O :  0.33   40O :  0.33   34O :  0.33  301O :  0.32  445O :  0.32  244O :  0.32  157O :  0.32  274O :  0.31  262O :  0.30   51H :  0.30  511O :  0.30
  247O :  0.29  334O :  0.29  271O :  0.28  442O :  0.28  286O :  0.28  148O :  0.27  133O :  0.27  430O :  0.26   13O :  0.26  316O :  0.26  169O :  0.26  229O :  0.25
   22O :  0.24  406O :  0.24  194H :  0.24   19O :  0.23  433O :  0.23   18H :  0.23   25O :  0.22  163O :  0.22   61O :  0.22   94O :  0.22  370O :  0.21  118O :  0.21
   79O :  0.21  313O :  0.21  253O :  0.21  265O :  0.21  472O :  0.20   46O :  0.19  436O :  0.19  277O :  0.18  219H :  0.18   85O :  0.18  184O :  0.18  517O :  0.17
  514O :  0.17  322O :  0.17  208O :  0.17  523O :  0.17  349O :  0.17  454O :  0.16  136O :  0.14  226O :  0.14  207H :  0.13  384H :  0.12   50H :  0.12  121O :  0.12
   44H :  0.12   99H :  0.12  373O :  0.12  508O :  0.11  161H :  0.11  214O :  0.11  109O :  0.11  341H :  0.11  376O :  0.11  468H :  0.11  391O :  0.11  431H :  0.10
  191H :  0.10  488H :  0.10  223O :  0.10  105H :  0.10  239H :  0.10  259O :  0.10  120H :  0.10  174H :  0.09  196O :  0.09  475O :  0.09  251H :  0.09  527H :  0.09
  298O :  0.09  483H :  0.09  101H :  0.09  339H :  0.09  404H :  0.08  117H :  0.08  187O :  0.08  183H :  0.08  379O :  0.08   98H :  0.08  144H :  0.08   14H :  0.08
   66H :  0.07  453H :  0.07  319O :  0.07  162H :  0.07
   22 LP   *******   0.01 -43.98329 -10.67762  28.98593   76O :  3.17  142O :  3.05   28O :  2.43   73O :  1.68  310O :  1.44    7O :  1.44  238O :  1.36   70O :  1.33   97O :  1.33  217O :  1.32   37O :  1.28   16O :  1.27
  361O :  1.26  241O :  1.26  490O :  1.21  469O :  1.11  181O :  1.09  160O :  1.09   43O :  1.08  175O :  1.06  151O :  1.06  292O :  1.04  448O :  1.02   55O :  0.98
  202O :  0.95  457O :  0.93  190O :  0.92  520O :  0.90    4O :  0.90  367O :  0.89  166O :  0.87  211O :  0.87  139O :  0.86   58O :  0.84  154O :  0.84    1O :  0.82
  418O :  0.80  355O :  0.80  364O :  0.79   10O :  0.77  451O :  0.71  382O :  0.69  478O :  0.68  526O :  0.68  412O :  0.67  481O :  0.65  307O :  0.65  409O :  0.63
  127O :  0.63  199O :  0.63  427O :  0.61  346O :  0.61  172O :  0.61   64O :  0.60   49O :  0.59  337O :  0.59   91O :  0.58  130O :  0.57  394O :  0.56  178O :  0.55
  343O :  0.53   82O :  0.53  205O :  0.52  232O :  0.51   67O :  0.50  220O :  0.50  403O :  0.50  235O :  0.50  421O :  0.49   52O :  0.49  358O :  0.49  106O :  0.47
   31O :  0.47  415O :  0.46  103O :  0.46  466O :  0.46  193O :  0.45  256O :  0.44  340O :  0.44  499O :  0.44  289O :  0.44  424O :  0.42  250O :  0.42   77H :  0.42
  460O :  0.42  304O :  0.42  115O :  0.40  463O :  0.40  487O :  0.40  352O :  0.39  268O :  0.37  397O :  0.36  484O :  0.36  283O :  0.36  493O :  0.35  505O :  0.34
[...]
   146   1 h    0.888 --   145 o    0.844
   147   1 h    0.890 --   145 o    0.824
   148   8 o    1.820 --   150 h    0.864   149 h    0.854
   149   1 h    0.898 --   148 o    0.854
   150   1 h    0.902 --   148 o    0.864
   151   8 o    1.874 --   152 h    0.823   153 h    0.789
   152   1 h    0.893 --   151 o    0.823
   153   1 h    0.877 --   151 o    0.789
   154   8 o    1.846 --   156 h    0.855   155 h    0.854
   155   1 h    0.889 --   154 o    0.854
   156   1 h    0.899 --   154 o    0.855
   157   8 o    1.830 --   159 h    0.835   158 h    0.825
   158   1 h    0.883 --   157 o    0.825
   159   1 h    0.888 --   157 o    0.835
   160   8 o    1.828 --   162 h    0.825   161 h    0.822
   161   1 h    0.888 --   160 o    0.822
   162   1 h    0.888 --   160 o    0.825
   163   8 o    1.843 --   164 h    0.860   165 h    0.814
   164   1 h    0.895 --   163 o    0.860
   165   1 h    0.884 --   163 o    0.814
   166   8 o    1.870 --   167 h    0.817   168 h    0.796
   167   1 h    0.883 --   166 o    0.817
   168   1 h    0.887 --   166 o    0.796
   169   8 o    1.842 --   171 h    0.906   170 h    0.796
   170   1 h    0.876 --   169 o    0.796
   171   1 h    0.916 --   169 o    0.906
   172   8 o    1.828 --   173 h    0.868   174 h    0.812
   173   1 h    0.907 --   172 o    0.868
   174   1 h    0.881 --   172 o    0.812
   175   8 o    1.847 --   176 h    0.888   177 h    0.831
   176   1 h    0.906 --   175 o    0.888
   177   1 h    0.887 --   175 o    0.831
   178   8 o    1.855 --   179 h    0.828   180 h    0.802
   179   1 h    0.888 --   178 o    0.828
   180   1 h    0.869 --   178 o    0.802
   181   8 o    1.846 --   182 h    0.855   183 h    0.796
   182   1 h    0.885 --   181 o    0.855
   183   1 h    0.869 --   181 o    0.796
   184   8 o    1.835 --   185 h    0.870   186 h    0.858
   185   1 h    0.896 --   184 o    0.870
   186   1 h    0.900 --   184 o    0.858
   187   8 o    1.855 --   189 h    0.897   188 h    0.832
   188   1 h    0.885 --   187 o    0.832
   189   1 h    0.909 --   187 o    0.897
   190   8 o    1.870 --   191 h    0.820   192 h    0.819
   191   1 h    0.886 --   190 o    0.820
   192   1 h    0.882 --   190 o    0.819
   193   8 o    1.868 --   194 h    0.810   195 h    0.794
   194   1 h    0.879 --   193 o    0.810
   195   1 h    0.877 --   193 o    0.794
   196   8 o    1.828 --   197 h    0.852   198 h    0.826
   197   1 h    0.901 --   196 o    0.852
   198   1 h    0.890 --   196 o    0.826
   199   8 o    1.868 --   200 h    0.815   201 h    0.814
   200   1 h    0.874 --   199 o    0.815
   201   1 h    0.887 --   199 o    0.814
   202   8 o    1.841 --   203 h    0.866   204 h    0.840
   203   1 h    0.903 --   202 o    0.866
   204   1 h    0.883 --   202 o    0.840
   205   8 o    1.862 --   206 h    0.857   207 h    0.853
   206   1 h    0.897 --   205 o    0.857
   207   1 h    0.895 --   205 o    0.853
   208   8 o    1.857 --   210 h    0.864   209 h    0.838
   209   1 h    0.878 --   208 o    0.838
   210   1 h    0.897 --   208 o    0.864
   211   8 o    1.836 --   212 h    0.868   213 h    0.823
   212   1 h    0.902 --   211 o    0.868
   213   1 h    0.882 --   211 o    0.823
   214   8 o    1.845 --   215 h    0.809   216 h    0.781
   215   1 h    0.890 --   214 o    0.809
   216   1 h    0.875 --   214 o    0.781
   217   8 o    1.860 --   218 h    0.805   219 h    0.784
   218   1 h    0.874 --   217 o    0.805
   219   1 h    0.874 --   217 o    0.784
   220   8 o    1.848 --   221 h    0.865   222 h    0.817
   221   1 h    0.897 --   220 o    0.865
   222   1 h    0.882 --   220 o    0.817
   223   8 o    1.874 --   224 h    0.832   225 h    0.811
   224   1 h    0.884 --   223 o    0.832
   225   1 h    0.886 --   223 o    0.811
   226   8 o    1.841 --   227 h    0.842   228 h    0.810
   227   1 h    0.889 --   226 o    0.842
   228   1 h    0.888 --   226 o    0.810
   229   8 o    1.869 --   231 h    0.844   230 h    0.803
   230   1 h    0.880 --   229 o    0.803
   231   1 h    0.886 --   229 o    0.844
   232   8 o    1.806 --   234 h    0.869   233 h    0.865
   233   1 h    0.902 --   232 o    0.865
   234   1 h    0.899 --   232 o    0.869
   235   8 o    1.843 --   237 h    0.800   236 h    0.795
   236   1 h    0.876 --   235 o    0.795
   237   1 h    0.883 --   235 o    0.800
   238   8 o    1.845 --   239 h    0.816   240 h    0.802
   239   1 h    0.887 --   238 o    0.816
   240   1 h    0.875 --   238 o    0.802
   241   8 o    1.814 --   243 h    0.858   242 h    0.832
   242   1 h    0.894 --   241 o    0.832
   243   1 h    0.900 --   241 o    0.858
   244   8 o    1.885 --   246 h    0.864   245 h    0.799
   245   1 h    0.876 --   244 o    0.799
   246   1 h    0.885 --   244 o    0.864
   247   8 o    1.868 --   248 h    0.840   249 h    0.828
   248   1 h    0.879 --   247 o    0.840
   249   1 h    0.878 --   247 o    0.828
   250   8 o    1.841 --   251 h    0.828   252 h    0.807
   251   1 h    0.892 --   250 o    0.828
   252   1 h    0.879 --   250 o    0.807
   253   8 o    1.836 --   254 h    0.898   255 h    0.827
   254   1 h    0.913 --   253 o    0.898
   255   1 h    0.893 --   253 o    0.827
   256   8 o    1.864 --   257 h    0.885   258 h    0.840
   257   1 h    0.901 --   256 o    0.885
   258   1 h    0.886 --   256 o    0.840
   259   8 o    1.873 --   261 h    0.818   260 h    0.811
   260   1 h    0.883 --   259 o    0.811
   261   1 h    0.882 --   259 o    0.818
   262   8 o    1.839 --   264 h    0.875   263 h    0.872
   263   1 h    0.900 --   262 o    0.872
   264   1 h    0.902 --   262 o    0.875
   265   8 o    1.852 --   267 h    0.915   266 h    0.765
   266   1 h    0.872 --   265 o    0.765
   267   1 h    0.920 --   265 o    0.915
   268   8 o    1.888 --   269 h    0.818   270 h    0.801
   269   1 h    0.890 --   268 o    0.818
   270   1 h    0.878 --   268 o    0.801
   271   8 o    1.850 --   273 h    0.869   272 h    0.843
   272   1 h    0.894 --   271 o    0.843
   273   1 h    0.899 --   271 o    0.869
   274   8 o    1.873 --   276 h    0.840   275 h    0.833
   275   1 h    0.892 --   274 o    0.833
   276   1 h    0.885 --   274 o    0.840
   277   8 o    1.863 --   279 h    0.916   278 h    0.811
   278   1 h    0.877 --   277 o    0.811
   279   1 h    0.920 --   277 o    0.916
   280   8 o    1.870 --   282 h    0.834   281 h    0.799
   281   1 h    0.884 --   280 o    0.799
   282   1 h    0.891 --   280 o    0.834
   283   8 o    1.867 --   285 h    0.849   284 h    0.822
   284   1 h    0.889 --   283 o    0.822
   285   1 h    0.897 --   283 o    0.849
   286   8 o    1.843 --   288 h    0.910   287 h    0.826
   287   1 h    0.882 --   286 o    0.826
   288   1 h    0.915 --   286 o    0.910
   289   8 o    1.862 --   291 h    0.858   290 h    0.809
   290   1 h    0.887 --   289 o    0.809
   291   1 h    0.897 --   289 o    0.858
   292   8 o    1.860 --   293 h    0.844   294 h    0.795
   293   1 h    0.894 --   292 o    0.844
   294   1 h    0.886 --   292 o    0.795
   295   8 o    1.871 --   297 h    0.913   296 h    0.801
   296   1 h    0.872 --   295 o    0.801
   297   1 h    0.919 --   295 o    0.913
   298   8 o    1.844 --   300 h    0.869   299 h    0.861
   299   1 h    0.894 --   298 o    0.861
   300   1 h    0.897 --   298 o    0.869
   301   8 o    1.852 --   303 h    0.864   302 h    0.857
   302   1 h    0.899 --   301 o    0.857
   303   1 h    0.897 --   301 o    0.864
   304   8 o    1.833 --   305 h    0.872   306 h    0.852
   305   1 h    0.902 --   304 o    0.872
   306   1 h    0.888 --   304 o    0.852
   307   8 o    1.847 --   308 h    0.837   309 h    0.830
   308   1 h    0.889 --   307 o    0.837
   309   1 h    0.890 --   307 o    0.830
   310   8 o    1.858 --   312 h    0.820   311 h    0.795
   311   1 h    0.874 --   310 o    0.795
   312   1 h    0.880 --   310 o    0.820
   313   8 o    1.843 --   315 h    0.890   314 h    0.860
   314   1 h    0.893 --   313 o    0.860
   315   1 h    0.901 --   313 o    0.890
   316   8 o    1.891 --   318 h    0.848   317 h    0.771   362 h    0.115
   317   1 h    0.875 --   316 o    0.771
   318   1 h    0.891 --   316 o    0.848
   319   8 o    1.833 --   320 h    0.860   321 h    0.857
   320   1 h    0.901 --   319 o    0.860
   321   1 h    0.894 --   319 o    0.857
   322   8 o    1.840 --   324 h    0.861   323 h    0.846
   323   1 h    0.891 --   322 o    0.846
   324   1 h    0.897 --   322 o    0.861
   325   8 o    1.846 --   326 h    0.859   327 h    0.792
   326   1 h    0.894 --   325 o    0.859
   327   1 h    0.873 --   325 o    0.792
   328   8 o    1.857 --   330 h    0.915   329 h    0.794
   329   1 h    0.880 --   328 o    0.794
   330   1 h    0.921 --   328 o    0.915
   331   8 o    1.875 --   333 h    0.915   332 h    0.817
   332   1 h    0.880 --   331 o    0.817
   333   1 h    0.918 --   331 o    0.915
   334   8 o    1.851 --   335 h    0.861   336 h    0.854
   335   1 h    0.898 --   334 o    0.861
   336   1 h    0.895 --   334 o    0.854
   337   8 o    1.872 --   339 h    0.851   338 h    0.812
   338   1 h    0.882 --   337 o    0.812
   339   1 h    0.895 --   337 o    0.851
   340   8 o    1.845 --   341 h    0.849   342 h    0.826
   341   1 h    0.891 --   340 o    0.849
   342   1 h    0.891 --   340 o    0.826
   343   8 o    1.826 --   345 h    0.855   344 h    0.832
   344   1 h    0.888 --   343 o    0.832
   345   1 h    0.899 --   343 o    0.855
   346   8 o    1.839 --   348 h    0.886   347 h    0.866
   347   1 h    0.893 --   346 o    0.866
   348   1 h    0.900 --   346 o    0.886
   349   8 o    1.849 --   350 h    0.838   351 h    0.837
   350   1 h    0.892 --   349 o    0.838
   351   1 h    0.891 --   349 o    0.837
   352   8 o    1.810 --   354 h    0.845   353 h    0.833
   353   1 h    0.895 --   352 o    0.833
   354   1 h    0.899 --   352 o    0.845
   355   8 o    1.814 --   356 h    0.880   357 h    0.801
   356   1 h    0.904 --   355 o    0.880
   357   1 h    0.875 --   355 o    0.801
   358   8 o    1.862 --   359 h    0.857   360 h    0.844
   359   1 h    0.896 --   358 o    0.857
   360   1 h    0.892 --   358 o    0.844
   361   8 o    1.863 --   363 h    0.914   362 h    0.758
   362   1 h    0.876 --   361 o    0.758   316 o    0.115
   363   1 h    0.921 --   361 o    0.914
   364   8 o    1.854 --   366 h    0.808   365 h    0.808
   365   1 h    0.890 --   364 o    0.808
   366   1 h    0.880 --   364 o    0.808
   367   8 o    1.858 --   369 h    0.860   368 h    0.822
   368   1 h    0.887 --   367 o    0.822
   369   1 h    0.894 --   367 o    0.860
   370   8 o    1.864 --   372 h    0.864   371 h    0.848
   371   1 h    0.883 --   370 o    0.848
   372   1 h    0.895 --   370 o    0.864
   373   8 o    1.860 --   375 h    0.870   374 h    0.841
   374   1 h    0.879 --   373 o    0.841
   375   1 h    0.900 --   373 o    0.870
   376   8 o    1.872 --   377 h    0.913   378 h    0.806
   377   1 h    0.918 --   376 o    0.913
   378   1 h    0.878 --   376 o    0.806
   379   8 o    1.836 --   381 h    0.854   380 h    0.825
   380   1 h    0.881 --   379 o    0.825
   381   1 h    0.897 --   379 o    0.854
   382   8 o    1.865 --   383 h    0.883   384 h    0.853
   383   1 h    0.897 --   382 o    0.883
   384   1 h    0.894 --   382 o    0.853
   385   8 o    1.855 --   386 h    0.836   387 h    0.794
   386   1 h    0.890 --   385 o    0.836
   387   1 h    0.877 --   385 o    0.794
   388   8 o    1.850 --   390 h    0.888   389 h    0.810
   389   1 h    0.875 --   388 o    0.810
   390   1 h    0.906 --   388 o    0.888
   391   8 o    1.844 --   393 h    0.880   392 h    0.822
   392   1 h    0.884 --   391 o    0.822
   393   1 h    0.908 --   391 o    0.880
   394   8 o    1.884 --   396 h    0.822   395 h    0.801
   395   1 h    0.877 --   394 o    0.801
   396   1 h    0.882 --   394 o    0.822
   397   8 o    1.830 --   398 h    0.906   399 h    0.805
   398   1 h    0.916 --   397 o    0.906
   399   1 h    0.879 --   397 o    0.805
   400   8 o    1.873 --   402 h    0.884   401 h    0.815
   401   1 h    0.875 --   400 o    0.815
   402   1 h    0.902 --   400 o    0.884
   403   8 o    1.842 --   405 h    0.852   404 h    0.808
   404   1 h    0.875 --   403 o    0.808
   405   1 h    0.895 --   403 o    0.852
   406   8 o    1.877 --   408 h    0.852   407 h    0.808
   407   1 h    0.873 --   406 o    0.808
   408   1 h    0.894 --   406 o    0.852
   409   8 o    1.821 --   411 h    0.846   410 h    0.837
   410   1 h    0.888 --   409 o    0.837
   411   1 h    0.893 --   409 o    0.846
   412   8 o    1.844 --   414 h    0.812   413 h    0.798
   413   1 h    0.878 --   412 o    0.798
   414   1 h    0.885 --   412 o    0.812
   415   8 o    1.859 --   416 h    0.842   417 h    0.803
   416   1 h    0.896 --   415 o    0.842
   417   1 h    0.883 --   415 o    0.803
   418   8 o    1.849 --   420 h    0.876   419 h    0.809
   419   1 h    0.877 --   418 o    0.809
   420   1 h    0.900 --   418 o    0.876
   421   8 o    1.848 --   423 h    0.860   422 h    0.843
   422   1 h    0.890 --   421 o    0.843
   423   1 h    0.901 --   421 o    0.860
   424   8 o    1.870 --   425 h    0.852   426 h    0.788
   425   1 h    0.894 --   424 o    0.852
   426   1 h    0.885 --   424 o    0.788
   427   8 o    1.843 --   428 h    0.916   429 h    0.759
   428   1 h    0.924 --   427 o    0.916
   429   1 h    0.875 --   427 o    0.759   442 o    0.113
   430   8 o    1.877 --   431 h    0.831   432 h    0.796
   431   1 h    0.892 --   430 o    0.831
   432   1 h    0.872 --   430 o    0.796
   433   8 o    1.824 --   434 h    0.858   435 h    0.831
   434   1 h    0.902 --   433 o    0.858
   435   1 h    0.880 --   433 o    0.831
   436   8 o    1.875 --   437 h    0.913   438 h    0.819
   437   1 h    0.916 --   436 o    0.913
   438   1 h    0.886 --   436 o    0.819
   439   8 o    1.871 --   440 h    0.847   441 h    0.795
   440   1 h    0.895 --   439 o    0.847
   441   1 h    0.882 --   439 o    0.795
   442   8 o    1.883 --   443 h    0.867   444 h    0.807   429 h    0.113
   443   1 h    0.896 --   442 o    0.867
   444   1 h    0.876 --   442 o    0.807
   445   8 o    1.862 --   447 h    0.891   446 h    0.792
   446   1 h    0.873 --   445 o    0.792
   447   1 h    0.906 --   445 o    0.891
   448   8 o    1.856 --   449 h    0.908   450 h    0.861
   449   1 h    0.914 --   448 o    0.908
   450   1 h    0.886 --   448 o    0.861
   451   8 o    1.886 --   452 h    0.848   453 h    0.805
   452   1 h    0.882 --   451 o    0.848
   453   1 h    0.873 --   451 o    0.805
   454   8 o    1.841 --   456 h    0.841   455 h    0.840
   455   1 h    0.889 --   454 o    0.840
   456   1 h    0.901 --   454 o    0.841
   457   8 o    1.852 --   459 h    0.917   458 h    0.818
   458   1 h    0.875 --   457 o    0.818
   459   1 h    0.922 --   457 o    0.917
   460   8 o    1.853 --   462 h    0.916   461 h    0.793
   461   1 h    0.873 --   460 o    0.793
   462   1 h    0.922 --   460 o    0.916
   463   8 o    1.830 --   464 h    0.860   465 h    0.823
   464   1 h    0.900 --   463 o    0.860
   465   1 h    0.884 --   463 o    0.823
   466   8 o    1.865 --   467 h    0.824   468 h    0.824
   467   1 h    0.891 --   466 o    0.824
   468   1 h    0.884 --   466 o    0.824
   469   8 o    1.860 --   470 h    0.862   471 h    0.847
   470   1 h    0.893 --   469 o    0.862
   471   1 h    0.890 --   469 o    0.847
   472   8 o    1.848 --   473 h    0.876   474 h    0.851
   473   1 h    0.896 --   472 o    0.876
   474   1 h    0.890 --   472 o    0.851
   475   8 o    1.829 --   477 h    0.839   476 h    0.839
   476   1 h    0.889 --   475 o    0.839
   477   1 h    0.892 --   475 o    0.839
   478   8 o    1.824 --   479 h    0.871   480 h    0.852
   479   1 h    0.898 --   478 o    0.871
   480   1 h    0.896 --   478 o    0.852
   481   8 o    1.847 --   482 h    0.880   483 h    0.814
   482   1 h    0.905 --   481 o    0.880
   483   1 h    0.879 --   481 o    0.814
   484   8 o    1.845 --   486 h    0.827   485 h    0.825
   485   1 h    0.899 --   484 o    0.825
   486   1 h    0.882 --   484 o    0.827
   487   8 o    1.869 --   488 h    0.870   489 h    0.816
   488   1 h    0.902 --   487 o    0.870
   489   1 h    0.886 --   487 o    0.816
   490   8 o    1.872 --   492 h    0.861   491 h    0.845
   491   1 h    0.887 --   490 o    0.845
   492   1 h    0.893 --   490 o    0.861
   493   8 o    1.864 --   495 h    0.880   494 h    0.792
   494   1 h    0.880 --   493 o    0.792
   495   1 h    0.896 --   493 o    0.880
   496   8 o    1.877 --   497 h    0.853   498 h    0.851
   497   1 h    0.895 --   496 o    0.853
   498   1 h    0.896 --   496 o    0.851
   499   8 o    1.877 --   501 h    0.832   500 h    0.818
   500   1 h    0.878 --   499 o    0.818
   501   1 h    0.893 --   499 o    0.832
   502   8 o    1.881 --   503 h    0.844   504 h    0.804
   503   1 h    0.893 --   502 o    0.844
   504   1 h    0.878 --   502 o    0.804
   505   8 o    1.827 --   506 h    0.853   507 h    0.833
   506   1 h    0.893 --   505 o    0.853
   507   1 h    0.888 --   505 o    0.833
   508   8 o    1.870 --   510 h    0.856   509 h    0.832
   509   1 h    0.888 --   508 o    0.832
   510   1 h    0.891 --   508 o    0.856
   511   8 o    1.875 --   513 h    0.842   512 h    0.826
   512   1 h    0.889 --   511 o    0.826
   513   1 h    0.884 --   511 o    0.842
   514   8 o    1.872 --   516 h    0.849   515 h    0.843
   515   1 h    0.886 --   514 o    0.843
   516   1 h    0.894 --   514 o    0.849
   517   8 o    1.843 --   519 h    0.878   518 h    0.816
   518   1 h    0.885 --   517 o    0.816
   519   1 h    0.902 --   517 o    0.878
   520   8 o    1.880 --   521 h    0.817   522 h    0.805
   521   1 h    0.871 --   520 o    0.817
   522   1 h    0.881 --   520 o    0.805
   523   8 o    1.856 --   525 h    0.887   524 h    0.795
   524   1 h    0.877 --   523 o    0.795
   525   1 h    0.904 --   523 o    0.887
   526   8 o    1.851 --   528 h    0.890   527 h    0.834
   527   1 h    0.879 --   526 o    0.834
   528   1 h    0.896 --   526 o    0.890
   529   8 o    1.817 --   531 h    0.913   530 h    0.887
   530   1 h    0.901 --   529 o    0.887
   531   1 h    0.917 --   529 o    0.913
 ---------------------------------------------------------------------------

Topologies differ in total number of bonds
Writing topology from bond orders to xtbtopo.mol

molecular dipole:
                 x           y           z       tot (Debye)
 q only:       -3.267      -0.089       2.579
   full:       -4.377      -0.041       2.829      13.247
molecular quadrupole (traceless):
                xx          xy          yy          xz          yz          zz
 q only:      108.717     -21.236     -30.732      31.549      -2.577     -77.984
  q+dip:      157.429     -26.075     -55.333      36.115      -2.191    -102.096
   full:      158.961     -26.664     -58.106      35.729      -2.277    -100.854


           -------------------------------------------------
          | TOTAL ENERGY             -901.147282198374 Eh   |
          | GRADIENT NORM               0.093615132208 Eh/α |
          | HOMO-LUMO GAP               6.754865120305 eV   |
           -------------------------------------------------

------------------------------------------------------------------------
 * finished run on 2022/11/17 at 06:55:20.453     
------------------------------------------------------------------------
 total:
 * wall-time:     0 d,  0 h,  0 min, 20.713 sec
 *  cpu-time:     0 d,  0 h,  0 min, 27.222 sec
 * ratio c/w:     1.314 speedup
 SCF:
 * wall-time:     0 d,  0 h,  0 min, 20.180 sec
 *  cpu-time:     0 d,  0 h,  0 min, 26.250 sec
 * ratio c/w:     1.301 speedup

