      -----------------------------------------------------------      
     |                   =====================                   |     
     |                           x T B                           |     
     |                   =====================                   |     
     |                         S. Grimme                         |     
     |          Mulliken Center for Theoretical Chemistry        |     
     |                    University of Bonn                     |     
      -----------------------------------------------------------      

   * xtb version 6.5.1 (579679a) compiled by 'ehlert@majestix' on 2022-07-11

   xtb is free software: you can redistribute it and/or modify it under
   the terms of the GNU Lesser General Public License as published by
   the Free Software Foundation, either version 3 of the License, or
   (at your option) any later version.
   
   xtb is distributed in the hope that it will be useful,
   but WITHOUT ANY WARRANTY; without even the implied warranty of
   MERCHANTABILITY or FITNESS FOR A PARTICULAR PURPOSE.  See the
   GNU Lesser General Public License for more details.
   
   Cite this work as:
   * C. Bannwarth, E. Caldeweyher, S. Ehlert, A. Hansen, P. Pracht,
     J. Seibert, S. Spicher, S. Grimme, WIREs Comput. Mol. Sci., 2020, 11,
     e01493. DOI: 10.1002/wcms.1493
   
   for GFN2-xTB:
   * C. Bannwarth, S. Ehlert and S. Grimme., J. Chem. Theory Comput., 2019,
     15, 1652-1671. DOI: 10.1021/acs.jctc.8b01176
   for GFN1-xTB:
   * S. Grimme, C. Bannwarth, P. Shushkov, J. Chem. Theory Comput., 2017,
     13, 1989-2009. DOI: 10.1021/acs.jctc.7b00118
   for GFN0-xTB:
   * P. Pracht, E. Caldeweyher, S. Ehlert, S. Grimme, ChemRxiv, 2019, preprint.
     DOI: 10.26434/chemrxiv.8326202.v1
   for GFN-FF:
   * S. Spicher and S. Grimme, Angew. Chem. Int. Ed., 2020, 59, 15665-15673.
     DOI: 10.1002/anie.202004239
   
   for ALPB and GBSA implicit solvation:
   * S. Ehlert, M. Stahn, S. Spicher, S. Grimme, J. Chem. Theory Comput.,
     2021, 17, 4250-4261. DOI: 10.1021/acs.jctc.1c00471
   
   for DFT-D4:
   * E. Caldeweyher, C. Bannwarth and S. Grimme, J. Chem. Phys., 2017,
     147, 034112. DOI: 10.1063/1.4993215
   * E. Caldeweyher, S. Ehlert, A. Hansen, H. Neugebauer, S. Spicher,
     C. Bannwarth and S. Grimme, J. Chem. Phys., 2019, 150, 154122.
     DOI: 10.1063/1.5090222
   * E. Caldeweyher, J.-M. Mewes, S. Ehlert and S. Grimme, Phys. Chem. Chem. Phys.
     2020, 22, 8499-8512. DOI: 10.1039/D0CP00502A
   
   for sTDA-xTB:
   * S. Grimme and C. Bannwarth, J. Chem. Phys., 2016, 145, 054103.
     DOI: 10.1063/1.4959605
   
   in the mass-spec context:
   * V. Asgeirsson, C. Bauer and S. Grimme, Chem. Sci., 2017, 8, 4879.
     DOI: 10.1039/c7sc00601b
   * J. Koopman and S. Grimme, ACS Omega 2019, 4, 12, 15120-15133.
     DOI: 10.1021/acsomega.9b02011
   
   for metadynamics refer to:
   * S. Grimme, J. Chem. Theory Comput., 2019, 155, 2847-2862
     DOI: 10.1021/acs.jctc.9b00143
   
   for SPH calculations refer to:
   * S. Spicher and S. Grimme, J. Chem. Theory Comput., 2021, 17, 1701-1714
     DOI: 10.1021/acs.jctc.0c01306
   
   with help from (in alphabetical order)
   P. Atkinson, C. Bannwarth, F. Bohle, G. Brandenburg, E. Caldeweyher
   M. Checinski, S. Dohm, S. Ehlert, S. Ehrlich, I. Gerasimov, C. Hölzer
   A. Katbashev, J. Koopman, C. Lavigne, S. Lehtola, F. März, M. Müller,
   F. Musil, H. Neugebauer, J. Pisarek, C. Plett, P. Pracht, F. Pultar,
   J. Seibert, P. Shushkov, S. Spicher, M. Stahn, M. Steiner, T. Strunk,
   J. Stückrath, T. Rose, and J. Unsleber
   
 * started run on 2022/11/17 at 06:54:49.176     

           -------------------------------------------------
          |                Calculation Setup                |
           -------------------------------------------------

          program call               : xtb xtbopt.coord --gfn2 --sp --gbsa water
          hostname                   : cn0363
          coordinate file            : xtbopt.coord
          omp threads                :                     2

   ID    Z sym.   atoms
    1    8 o      1, 4, 7, 10, 13, 16, 19, 22, 25, 28, 31, 34, 37, 40, 43,
                  46, 49, 52, 55, 58, 61, 64, 67, 70, 73, 76, 79, 82, 85, 88,
                  91, 94, 97, 100, 103, 106, 109, 112, 115, 118, 121, 124,
                  127, 130, 133, 136, 139, 142, 145, 148, 151, 154, 157, 160,
                  163, 166, 169, 172, 175, 178, 181, 184, 187, 190, 193, 196,
                  199, 202, 205, 208, 211, 214, 217, 220, 223, 226, 229, 232,
                  235, 238, 241, 244, 247, 250, 253, 256, 259, 262, 265, 268,
                  271, 274, 277, 280, 283, 286, 289, 292, 295, 298, 301, 304,
                  307, 310, 313, 316, 319, 322, 325, 328, 331, 334, 337, 340,
                  343, 346, 349, 352, 355, 358, 361, 364, 367, 370, 373, 376,
                  379, 382, 385, 388, 391, 394, 397, 400, 403, 406, 409, 412,
                  415, 418, 421, 424, 427, 430, 433, 436, 439, 442, 445, 448,
                  451, 454, 457, 460, 463, 466, 469, 472, 475, 478, 481, 484,
                  487, 490, 493, 496, 499, 502, 505, 508, 511, 514, 517, 520,
                  523, 526, 529
    2    1 h      2, 3, 5, 6, 8, 9, 11, 12, 14, 15, 17, 18, 20, 21, 23, 24,
                  26, 27, 29, 30, 32, 33, 35, 36, 38, 39, 41, 42, 44, 45, 47,
                  48, 50, 51, 53, 54, 56, 57, 59, 60, 62, 63, 65, 66, 68, 69,
                  71, 72, 74, 75, 77, 78, 80, 81, 83, 84, 86, 87, 89, 90, 92,
                  93, 95, 96, 98, 99, 101, 102, 104, 105, 107, 108, 110, 111,
                  113, 114, 116, 117, 119, 120, 122, 123, 125, 126, 128, 129,
                  131, 132, 134, 135, 137, 138, 140, 141, 143, 144, 146, 147,
                  149, 150, 152, 153, 155, 156, 158, 159, 161, 162, 164, 165,
                  167, 168, 170, 171, 173, 174, 176, 177, 179, 180, 182, 183,
                  185, 186, 188, 189, 191, 192, 194, 195, 197, 198, 200, 201,
                  203, 204, 206, 207, 209, 210, 212, 213, 215, 216, 218, 219,
                  221, 222, 224, 225, 227, 228, 230, 231, 233, 234, 236, 237,
                  239, 240, 242, 243, 245, 246, 248, 249, 251, 252, 254, 255,
                  257, 258, 260, 261, 263, 264, 266, 267, 269, 270, 272, 273,
                  275, 276, 278, 279, 281, 282, 284, 285, 287, 288, 290, 291,
                  293, 294, 296, 297, 299, 300, 302, 303, 305, 306, 308, 309,
                  311, 312, 314, 315, 317, 318, 320, 321, 323, 324, 326, 327,
                  329, 330, 332, 333, 335, 336, 338, 339, 341, 342, 344, 345,
                  347, 348, 350, 351, 353, 354, 356, 357, 359, 360, 362, 363,
                  365, 366, 368, 369, 371, 372, 374, 375, 377, 378, 380, 381,
                  383, 384, 386, 387, 389, 390, 392, 393, 395, 396, 398, 399,
                  401, 402, 404, 405, 407, 408, 410, 411, 413, 414, 416, 417,
                  419, 420, 422, 423, 425, 426, 428, 429, 431, 432, 434, 435,
                  437, 438, 440, 441, 443, 444, 446, 447, 449, 450, 452, 453,
                  455, 456, 458, 459, 461, 462, 464, 465, 467, 468, 470, 471,
                  473, 474, 476, 477, 479, 480, 482, 483, 485, 486, 488, 489,
                  491, 492, 494, 495, 497, 498, 500, 501, 503, 504, 506, 507,
                  509, 510, 512, 513, 515, 516, 518, 519, 521, 522, 524, 525,
                  527, 528, 530, 531

molecular fragmentation (1/2 indicates fragments):
111222222222222222222222222222222222222222222222222222222222222222222222
222222222222222222222222222222222222222222222222222222222222222222222222
222222222222222222222222222222222222222222222222222222222222222222222222
222222222222222222222222222222222222222222222222222222222222222222222222
222222222222222222222222222222222222222222222222222222222222222222222222
222222222222222222222222222222222222222222222222222222222222222222222222
222222222222222222222222222222222222222222222222222222222222222222222222
222222222222222222222222222
# atoms in fragment 1/2:     3   528
 fragment masses (1/2) :       18.02     3170.69
CMA distance (Bohr)    :   6.898
constraining FC (au)   :  0.0500

           -------------------------------------------------
          |                 G F N 2 - x T B                 |
           -------------------------------------------------

        Reference                      10.1021/acs.jctc.8b01176
      * Hamiltonian:
        H0-scaling (s, p, d)           1.850000    2.230000    2.230000
        zeta-weighting                 0.500000
      * Dispersion:
        s8                             2.700000
        a1                             0.520000
        a2                             5.000000
        s9                             5.000000
      * Repulsion:
        kExp                           1.500000    1.000000
        rExp                           1.000000
      * Coulomb:
        alpha                          2.000000
        third order                    shell-resolved
        anisotropic                    true
        a3                             3.000000
        a5                             4.000000
        cn-shift                       1.200000
        cn-exp                         4.000000
        max-rad                        5.000000

      * Solvation model:               GBSA
        Solvent                        water
        Parameter file                 internal GFN2-xTB/GBSA
        Dielectric constant                8.0200E+01
        Reference state                gsolv [1 M gas/solution]
        Free energy shift                  1.8574E-03 Eh       1.1656E+00 kcal/mol
        Temperature                        2.9815E+02 K
        Density                            1.0000E+00 kg/L
        Solvent mass                       1.8000E+01 g/mol
        Interaction kernel             Still
        Born radius scaling (c1)           1.5524E+00
        Born radii integrator          GBOBC
        Born offset                        2.4628E-02 a0       4.6540E-02 AA
        H-bond correction              true
        Ion screening                  false
        Surface tension                    1.0000E-05 Eh       1.5569E+01 dyn/cm
        Grid points                               230 per atom

          ...................................................
          :                      SETUP                      :
          :.................................................:
          :  # basis functions                1062          :
          :  # atomic orbitals                1062          :
          :  # shells                          708          :
          :  # electrons                      1416          :
          :  max. iterations                   250          :
          :  Hamiltonian                  GFN2-xTB          :
          :  restarted?                      false          :
          :  GBSA solvation                   true          :
          :  PC potential                    false          :
          :  electronic temp.          300.0000000     K    :
          :  accuracy                    1.0000000          :
          :  -> integral cutoff          0.2500000E+02      :
          :  -> integral neglect         0.1000000E-07      :
          :  -> SCF convergence          0.1000000E-05 Eh   :
          :  -> wf. convergence          0.1000000E-03 e    :
          :  Broyden damping             0.4000000          :
          ...................................................

 iter      E             dE          RMSdq      gap      omega  full diag
   1   -906.7428306 -0.906743E+03  0.408E+00    8.69       0.0  T
   2   -906.8109395 -0.681089E-01  0.241E+00    8.40       1.0  T
   3   -906.8373774 -0.264379E-01  0.237E-01    7.36       1.0  T
   4   -906.8416878 -0.431043E-02  0.516E-02    7.67       1.0  T
   5   -906.8418415 -0.153687E-03  0.318E-02    7.60       1.0  T
   6   -906.8418776 -0.361043E-04  0.400E-03    7.61       1.1  T
   7   -906.8418790 -0.135763E-05  0.857E-04    7.61       5.1  T
   8   -906.8418790 -0.393204E-07  0.479E-04    7.61       9.1  T
   9   -906.8418791 -0.218021E-07  0.114E-04    7.61      38.0  T

   *** convergence criteria satisfied after 9 iterations ***

         #    Occupation            Energy/Eh            Energy/eV
      -------------------------------------------------------------
         1        2.0000           -0.6618534             -18.0099
       ...           ...                  ...                  ...
       702        2.0000           -0.3520395              -9.5795
       703        2.0000           -0.3513519              -9.5608
       704        2.0000           -0.3486025              -9.4860
       705        2.0000           -0.3481977              -9.4749
       706        2.0000           -0.3456425              -9.4054
       707        2.0000           -0.3441278              -9.3642
       708        2.0000           -0.3325002              -9.0478 (HOMO)
       709                         -0.0529166              -1.4399 (LUMO)
       710                         -0.0426447              -1.1604
       711                         -0.0337465              -0.9183
       712                         -0.0261753              -0.7123
       713                         -0.0211342              -0.5751
       ...                                ...                  ...
      1062                          0.4859119              13.2223
      -------------------------------------------------------------
                  HL-Gap            0.2795836 Eh            7.6079 eV
             Fermi-level           -0.1927084 Eh           -5.2439 eV

 SCC (total)                   0 d,  0 h,  0 min,  9.554 sec
 SCC setup                      ...        0 min,  0.099 sec (  1.034%)
 Dispersion                     ...        0 min,  0.072 sec (  0.754%)
 classical contributions        ...        0 min,  0.012 sec (  0.121%)
 integral evaluation            ...        0 min,  0.458 sec (  4.796%)
 iterations                     ...        0 min,  4.011 sec ( 41.984%)
 molecular gradient             ...        0 min,  4.877 sec ( 51.040%)
 printout                       ...        0 min,  0.026 sec (  0.270%)

         :::::::::::::::::::::::::::::::::::::::::::::::::::::
         ::                     SUMMARY                     ::
         :::::::::::::::::::::::::::::::::::::::::::::::::::::
         :: total energy            -901.376289366922 Eh    ::
         :: total w/o Gsasa/hb      -901.178304865064 Eh    ::
         :: gradient norm              0.104106772124 Eh/a0 ::
         :: HOMO-LUMO gap              7.607856499701 eV    ::
         ::.................................................::
         :: SCC energy              -906.841879056138 Eh    ::
         :: -> isotropic ES            5.284879728010 Eh    ::
         :: -> anisotropic ES         -1.107930466334 Eh    ::
         :: -> anisotropic XC         -0.086469242300 Eh    ::
         :: -> dispersion             -0.528328814668 Eh    ::
         :: -> Gsolv                  -0.243951474643 Eh    ::
         ::    -> Gelec               -0.045966972785 Eh    ::
         ::    -> Gsasa                0.004278318911 Eh    ::
         ::    -> Ghb                 -0.204120263895 Eh    ::
         ::    -> Gshift               0.001857443127 Eh    ::
         :: repulsion energy           5.375324224053 Eh    ::
         :: add. restraining           0.000000000000 Eh    ::
         :: total charge              -0.000000000000 e     ::
         :::::::::::::::::::::::::::::::::::::::::::::::::::::

           -------------------------------------------------
          |                Property Printout                |
           -------------------------------------------------

    * Orbital Energies and Occupations

         #    Occupation            Energy/Eh            Energy/eV
      -------------------------------------------------------------
         1        2.0000           -0.6618534             -18.0099
       ...           ...                  ...                  ...
       696        2.0000           -0.3624435              -9.8626
       697        2.0000           -0.3600365              -9.7971
       698        2.0000           -0.3592316              -9.7752
       699        2.0000           -0.3555156              -9.6741
       700        2.0000           -0.3541835              -9.6378
       701        2.0000           -0.3538521              -9.6288
       702        2.0000           -0.3520395              -9.5795
       703        2.0000           -0.3513519              -9.5608
       704        2.0000           -0.3486025              -9.4860
       705        2.0000           -0.3481977              -9.4749
       706        2.0000           -0.3456425              -9.4054
       707        2.0000           -0.3441278              -9.3642
       708        2.0000           -0.3325002              -9.0478 (HOMO)
       709                         -0.0529166              -1.4399 (LUMO)
       710                         -0.0426447              -1.1604
       711                         -0.0337465              -0.9183
       712                         -0.0261753              -0.7123
       713                         -0.0211342              -0.5751
       714                         -0.0162079              -0.4410
       715                         -0.0076228              -0.2074
       716                         -0.0000059              -0.0002
       717                          0.0023845               0.0649
       718                          0.0063720               0.1734
       719                          0.0089962               0.2448
       ...                                ...                  ...
      1062                          0.4859119              13.2223
      -------------------------------------------------------------
                  HL-Gap            0.2795836 Eh            7.6079 eV
             Fermi-level           -0.1927084 Eh           -5.2439 eV

     #   Z          covCN         q      C6AA      α(0)
     1   8 o        1.607    -0.680    27.184     7.037
     2   1 h        0.803     0.344     0.602     1.219
     3   1 h        0.804     0.330     0.637     1.254
     4   8 o        1.608    -0.666    26.830     6.991
     5   1 h        0.803     0.345     0.601     1.218
     6   1 h        0.805     0.334     0.627     1.244
     7   8 o        1.606    -0.694    27.565     7.086
     8   1 h        0.804     0.348     0.593     1.209
     9   1 h        0.803     0.345     0.601     1.218
    10   8 o        1.609    -0.673    26.992     7.012
    11   1 h        0.805     0.321     0.661     1.277
    12   1 h        0.804     0.326     0.648     1.264
    13   8 o        1.607    -0.677    27.109     7.027
    14   1 h        0.803     0.339     0.616     1.233
    15   1 h        0.804     0.331     0.636     1.253
    16   8 o        1.606    -0.672    26.967     7.009
    17   1 h        0.803     0.340     0.613     1.230
    18   1 h        0.803     0.334     0.628     1.245
    19   8 o        1.606    -0.693    27.533     7.082
    20   1 h        0.804     0.323     0.655     1.271
    21   1 h        0.803     0.351     0.586     1.203
    22   8 o        1.607    -0.681    27.218     7.041
    23   1 h        0.803     0.364     0.557     1.173
    24   1 h        0.803     0.338     0.618     1.235
    25   8 o        1.608    -0.682    27.227     7.042
    26   1 h        0.803     0.344     0.603     1.220
    27   1 h        0.804     0.341     0.611     1.227
    28   8 o        1.608    -0.671    26.953     7.007
    29   1 h        0.804     0.350     0.588     1.205
    30   1 h        0.803     0.339     0.616     1.233
    31   8 o        1.609    -0.689    27.425     7.068
    32   1 h        0.804     0.335     0.623     1.240
    33   1 h        0.805     0.331     0.636     1.252
    34   8 o        1.607    -0.675    27.064     7.021
    35   1 h        0.803     0.334     0.627     1.244
    36   1 h        0.804     0.329     0.640     1.257
    37   8 o        1.609    -0.684    27.288     7.050
    38   1 h        0.804     0.329     0.640     1.257
    39   1 h        0.804     0.345     0.601     1.218
    40   8 o        1.608    -0.639    26.131     6.899
    41   1 h        0.804     0.325     0.651     1.267
    42   1 h        0.803     0.347     0.595     1.212
    43   8 o        1.609    -0.655    26.552     6.955
    44   1 h        0.803     0.339     0.614     1.231
    45   1 h        0.805     0.319     0.666     1.282
    46   8 o        1.606    -0.679    27.160     7.034
    47   1 h        0.803     0.359     0.568     1.184
    48   1 h        0.803     0.325     0.651     1.267
    49   8 o        1.608    -0.669    26.887     6.998
    50   1 h        0.805     0.325     0.651     1.268
    51   1 h        0.803     0.356     0.575     1.191
    52   8 o        1.609    -0.680    27.188     7.037
    53   1 h        0.804     0.326     0.648     1.265
    54   1 h        0.805     0.346     0.597     1.213
    55   8 o        1.609    -0.676    27.083     7.024
    56   1 h        0.804     0.331     0.635     1.251
    57   1 h        0.805     0.339     0.616     1.233
    58   8 o        1.608    -0.667    26.842     6.992
    59   1 h        0.803     0.351     0.586     1.203
    60   1 h        0.805     0.335     0.624     1.241
    61   8 o        1.606    -0.705    27.858     7.123
    62   1 h        0.803     0.346     0.599     1.216
    63   1 h        0.804     0.337     0.619     1.236
    64   8 o        1.608    -0.674    27.020     7.016
    65   1 h        0.804     0.353     0.582     1.198
    66   1 h        0.804     0.339     0.615     1.232
    67   8 o        1.609    -0.649    26.401     6.935
    68   1 h        0.803     0.353     0.582     1.198
    69   1 h        0.806     0.319     0.665     1.281
    70   8 o        1.609    -0.653    26.496     6.947
    71   1 h        0.806     0.309     0.696     1.310
    72   1 h        0.803     0.345     0.599     1.216
    73   8 o        1.608    -0.666    26.835     6.991
    74   1 h        0.805     0.338     0.616     1.233
    75   1 h        0.803     0.348     0.594     1.210
    76   8 o        1.607    -0.697    27.620     7.093
    77   1 h        0.802     0.338     0.617     1.234
    78   1 h        0.805     0.326     0.649     1.265
    79   8 o        1.605    -0.714    28.090     7.153
    80   1 h        0.803     0.348     0.593     1.209
    81   1 h        0.802     0.351     0.586     1.202
    82   8 o        1.608    -0.643    26.230     6.912
    83   1 h        0.804     0.334     0.626     1.243
    84   1 h        0.804     0.327     0.645     1.262
    85   8 o        1.609    -0.679    27.162     7.034
    86   1 h        0.803     0.354     0.579     1.196
    87   1 h        0.805     0.322     0.657     1.274
    88   8 o        1.609    -0.654    26.512     6.949
    89   1 h        0.805     0.339     0.614     1.231
    90   1 h        0.804     0.343     0.605     1.222
    91   8 o        1.607    -0.665    26.802     6.987
    92   1 h        0.806     0.313     0.683     1.298
    93   1 h        0.802     0.348     0.593     1.210
    94   8 o        1.608    -0.675    27.046     7.019
    95   1 h        0.803     0.359     0.567     1.183
    96   1 h        0.804     0.327     0.646     1.263
    97   8 o        1.606    -0.699    27.686     7.101
    98   1 h        0.804     0.352     0.583     1.199
    99   1 h        0.803     0.356     0.574     1.190
   100   8 o        1.608    -0.664    26.761     6.982
   101   1 h        0.805     0.339     0.614     1.231
   102   1 h        0.803     0.333     0.629     1.246
   103   8 o        1.607    -0.695    27.569     7.087
   104   1 h        0.804     0.341     0.611     1.227
   105   1 h        0.803     0.342     0.607     1.224
   106   8 o        1.609    -0.680    27.171     7.035
   107   1 h        0.804     0.342     0.607     1.224
   108   1 h        0.805     0.328     0.642     1.259
   109   8 o        1.606    -0.690    27.452     7.071
   110   1 h        0.803     0.349     0.592     1.208
   111   1 h        0.803     0.340     0.611     1.228
   112   8 o        1.607    -0.690    27.450     7.071
   113   1 h        0.804     0.341     0.609     1.226
   114   1 h        0.803     0.363     0.559     1.174
   115   8 o        1.607    -0.686    27.341     7.057
   116   1 h        0.803     0.335     0.625     1.242
   117   1 h        0.804     0.349     0.591     1.207
   118   8 o        1.607    -0.686    27.341     7.057
   119   1 h        0.804     0.345     0.599     1.216
   120   1 h        0.803     0.355     0.578     1.194
   121   8 o        1.608    -0.668    26.887     6.998
   122   1 h        0.804     0.338     0.618     1.235
   123   1 h        0.803     0.348     0.592     1.209
   124   8 o        1.606    -0.687    27.372     7.061
   125   1 h        0.804     0.349     0.591     1.207
   126   1 h        0.802     0.331     0.635     1.252
   127   8 o        1.609    -0.686    27.328     7.056
   128   1 h        0.805     0.316     0.675     1.291
   129   1 h        0.804     0.343     0.604     1.221
   130   8 o        1.607    -0.673    27.015     7.015
   131   1 h        0.803     0.345     0.600     1.217
   132   1 h        0.804     0.361     0.564     1.180
   133   8 o        1.607    -0.685    27.312     7.053
   134   1 h        0.803     0.345     0.601     1.218
   135   1 h        0.805     0.337     0.618     1.235
   136   8 o        1.607    -0.680    27.181     7.036
   137   1 h        0.804     0.320     0.664     1.280
   138   1 h        0.803     0.349     0.591     1.208
   139   8 o        1.606    -0.672    26.979     7.010
   140   1 h        0.803     0.338     0.617     1.234
   141   1 h        0.803     0.337     0.619     1.236
   142   8 o        1.607    -0.674    27.024     7.016
   143   1 h        0.803     0.344     0.602     1.219
   144   1 h        0.804     0.334     0.627     1.244
   145   8 o        1.607    -0.699    27.679     7.101
   146   1 h        0.804     0.343     0.604     1.221
   147   1 h        0.803     0.341     0.610     1.227
   148   8 o        1.609    -0.668    26.885     6.998
   149   1 h        0.804     0.329     0.639     1.256
   150   1 h        0.805     0.317     0.671     1.287
   151   8 o        1.606    -0.683    27.269     7.048
   152   1 h        0.803     0.326     0.647     1.264
   153   1 h        0.803     0.353     0.582     1.199
   154   8 o        1.609    -0.673    27.012     7.015
   155   1 h        0.804     0.343     0.605     1.222
   156   1 h        0.804     0.323     0.655     1.271
   157   8 o        1.608    -0.677    27.114     7.028
   158   1 h        0.804     0.335     0.626     1.243
   159   1 h        0.804     0.343     0.605     1.222
   160   8 o        1.609    -0.693    27.530     7.081
   161   1 h        0.804     0.339     0.615     1.231
   162   1 h        0.804     0.336     0.621     1.238
   163   8 o        1.607    -0.691    27.468     7.073
   164   1 h        0.805     0.329     0.641     1.257
   165   1 h        0.803     0.352     0.585     1.201
   166   8 o        1.606    -0.690    27.441     7.070
   167   1 h        0.804     0.349     0.590     1.207
   168   1 h        0.802     0.334     0.628     1.245
   169   8 o        1.608    -0.676    27.079     7.023
   170   1 h        0.802     0.361     0.563     1.179
   171   1 h        0.806     0.308     0.698     1.312
   172   8 o        1.607    -0.684    27.284     7.050
   173   1 h        0.805     0.317     0.673     1.289
   174   1 h        0.803     0.348     0.594     1.210
   175   8 o        1.609    -0.684    27.300     7.052
   176   1 h        0.805     0.327     0.646     1.263
   177   1 h        0.803     0.350     0.588     1.205
   178   8 o        1.606    -0.692    27.500     7.078
   179   1 h        0.804     0.335     0.624     1.241
   180   1 h        0.803     0.365     0.555     1.171
   181   8 o        1.607    -0.688    27.407     7.066
   182   1 h        0.805     0.340     0.613     1.229
   183   1 h        0.803     0.365     0.554     1.169
   184   8 o        1.609    -0.677    27.110     7.027
   185   1 h        0.805     0.336     0.623     1.240
   186   1 h        0.804     0.331     0.634     1.251
   187   8 o        1.609    -0.667    26.835     6.992
   188   1 h        0.803     0.348     0.592     1.209
   189   1 h        0.805     0.319     0.665     1.281
   190   8 o        1.606    -0.674    27.038     7.018
   191   1 h        0.803     0.340     0.612     1.229
   192   1 h        0.803     0.343     0.606     1.222
   193   8 o        1.605    -0.693    27.522     7.080
   194   1 h        0.803     0.349     0.591     1.208
   195   1 h        0.802     0.353     0.581     1.198
   196   8 o        1.607    -0.689    27.420     7.067
   197   1 h        0.804     0.325     0.650     1.266
   198   1 h        0.803     0.339     0.616     1.233
   199   8 o        1.608    -0.671    26.946     7.006
   200   1 h        0.804     0.350     0.588     1.204
   201   1 h        0.803     0.333     0.630     1.247
   202   8 o        1.610    -0.655    26.546     6.954
   203   1 h        0.805     0.312     0.687     1.302
   204   1 h        0.805     0.342     0.608     1.225
   205   8 o        1.609    -0.681    27.205     7.040
   206   1 h        0.804     0.340     0.612     1.229
   207   1 h        0.804     0.336     0.622     1.239
   208   8 o        1.610    -0.653    26.483     6.946
   209   1 h        0.805     0.341     0.609     1.226
   210   1 h        0.805     0.328     0.641     1.258
   211   8 o        1.608    -0.664    26.778     6.984
   212   1 h        0.805     0.313     0.683     1.298
   213   1 h        0.804     0.345     0.600     1.217
   214   8 o        1.605    -0.698    27.652     7.097
   215   1 h        0.803     0.331     0.635     1.252
   216   1 h        0.802     0.352     0.583     1.199
   217   8 o        1.605    -0.695    27.579     7.088
   218   1 h        0.804     0.346     0.598     1.215
   219   1 h        0.802     0.351     0.587     1.204
   220   8 o        1.608    -0.693    27.526     7.081
   221   1 h        0.804     0.332     0.633     1.250
   222   1 h        0.803     0.352     0.583     1.199
   223   8 o        1.607    -0.688    27.394     7.064
   224   1 h        0.804     0.354     0.579     1.195
   225   1 h        0.803     0.338     0.617     1.234
   226   8 o        1.607    -0.673    27.015     7.015
   227   1 h        0.804     0.330     0.638     1.254
   228   1 h        0.803     0.334     0.626     1.243
   229   8 o        1.609    -0.673    27.003     7.013
   230   1 h        0.804     0.344     0.602     1.219
   231   1 h        0.805     0.338     0.616     1.233
   232   8 o        1.609    -0.674    27.038     7.018
   233   1 h        0.805     0.323     0.657     1.273
   234   1 h        0.805     0.331     0.635     1.252
   235   8 o        1.605    -0.708    27.924     7.132
   236   1 h        0.803     0.349     0.590     1.206
   237   1 h        0.802     0.349     0.591     1.208
   238   8 o        1.607    -0.697    27.645     7.096
   239   1 h        0.804     0.341     0.609     1.226
   240   1 h        0.804     0.348     0.593     1.209
   241   8 o        1.609    -0.675    27.055     7.020
   242   1 h        0.804     0.329     0.641     1.258
   243   1 h        0.805     0.319     0.665     1.281
   244   8 o        1.607    -0.670    26.934     7.004
   245   1 h        0.802     0.351     0.587     1.203
   246   1 h        0.805     0.345     0.601     1.218
   247   8 o        1.609    -0.667    26.841     6.992
   248   1 h        0.805     0.346     0.597     1.213
   249   1 h        0.804     0.349     0.591     1.208
   250   8 o        1.606    -0.686    27.336     7.056
   251   1 h        0.804     0.328     0.642     1.258
   252   1 h        0.803     0.349     0.591     1.208
   253   8 o        1.609    -0.648    26.363     6.930
   254   1 h        0.806     0.307     0.701     1.315
   255   1 h        0.803     0.330     0.638     1.255
   256   8 o        1.609    -0.665    26.791     6.986
   257   1 h        0.805     0.329     0.639     1.256
   258   1 h        0.804     0.349     0.590     1.207
   259   8 o        1.607    -0.672    26.979     7.010
   260   1 h        0.803     0.340     0.613     1.230
   261   1 h        0.803     0.342     0.608     1.225
   262   8 o        1.609    -0.669    26.906     7.001
   263   1 h        0.805     0.330     0.637     1.254
   264   1 h        0.804     0.332     0.632     1.249
   265   8 o        1.604    -0.673    27.009     7.014
   266   1 h        0.801     0.356     0.575     1.191
   267   1 h        0.806     0.311     0.690     1.304
   268   8 o        1.606    -0.682    27.245     7.045
   269   1 h        0.802     0.332     0.633     1.249
   270   1 h        0.802     0.354     0.580     1.196
   271   8 o        1.609    -0.684    27.280     7.049
   272   1 h        0.804     0.337     0.619     1.236
   273   1 h        0.805     0.335     0.624     1.241
   274   8 o        1.608    -0.659    26.645     6.967
   275   1 h        0.803     0.329     0.639     1.256
   276   1 h        0.804     0.341     0.610     1.227
   277   8 o        1.608    -0.649    26.380     6.932
   278   1 h        0.803     0.350     0.589     1.206
   279   1 h        0.806     0.308     0.698     1.313
   280   8 o        1.606    -0.680    27.190     7.038
   281   1 h        0.802     0.345     0.600     1.217
   282   1 h        0.804     0.331     0.635     1.252
   283   8 o        1.607    -0.683    27.276     7.049
   284   1 h        0.803     0.344     0.603     1.220
   285   1 h        0.804     0.330     0.639     1.255
   286   8 o        1.609    -0.658    26.617     6.963
   287   1 h        0.804     0.353     0.581     1.197
   288   1 h        0.806     0.307     0.699     1.313
   289   8 o        1.607    -0.667    26.849     6.993
   290   1 h        0.803     0.337     0.620     1.237
   291   1 h        0.804     0.327     0.644     1.261
   292   8 o        1.605    -0.677    27.108     7.027
   293   1 h        0.804     0.328     0.641     1.258
   294   1 h        0.802     0.339     0.614     1.231
   295   8 o        1.607    -0.662    26.733     6.978
   296   1 h        0.802     0.357     0.572     1.188
   297   1 h        0.806     0.319     0.666     1.282
   298   8 o        1.609    -0.666    26.828     6.991
   299   1 h        0.804     0.341     0.610     1.227
   300   1 h        0.805     0.330     0.638     1.255
   301   8 o        1.609    -0.672    26.963     7.008
   302   1 h        0.804     0.333     0.631     1.248
   303   1 h        0.805     0.335     0.626     1.243
   304   8 o        1.609    -0.680    27.186     7.037
   305   1 h        0.805     0.327     0.645     1.262
   306   1 h        0.804     0.345     0.600     1.217
   307   8 o        1.608    -0.674    27.020     7.016
   308   1 h        0.804     0.335     0.624     1.240
   309   1 h        0.804     0.334     0.626     1.243
   310   8 o        1.606    -0.688    27.400     7.065
   311   1 h        0.803     0.355     0.577     1.193
   312   1 h        0.804     0.340     0.613     1.229
   313   8 o        1.610    -0.653    26.499     6.948
   314   1 h        0.805     0.339     0.615     1.232
   315   1 h        0.805     0.324     0.652     1.269
   316   8 o        1.607    -0.692    27.492     7.077
   317   1 h        0.801     0.361     0.565     1.181
   318   1 h        0.804     0.332     0.633     1.250
   319   8 o        1.609    -0.660    26.668     6.970
   320   1 h        0.804     0.324     0.654     1.270
   321   1 h        0.805     0.329     0.641     1.257
   322   8 o        1.609    -0.675    27.061     7.021
   323   1 h        0.804     0.338     0.618     1.234
   324   1 h        0.804     0.332     0.632     1.248
   325   8 o        1.607    -0.692    27.494     7.077
   326   1 h        0.805     0.329     0.639     1.255
   327   1 h        0.803     0.361     0.563     1.179
   328   8 o        1.607    -0.669    26.896     6.999
   329   1 h        0.802     0.349     0.592     1.209
   330   1 h        0.806     0.312     0.684     1.299
   331   8 o        1.608    -0.654    26.507     6.949
   332   1 h        0.803     0.352     0.584     1.201
   333   1 h        0.806     0.317     0.673     1.288
   334   8 o        1.608    -0.689    27.430     7.069
   335   1 h        0.804     0.337     0.620     1.237
   336   1 h        0.804     0.343     0.606     1.223
   337   8 o        1.607    -0.672    26.981     7.011
   338   1 h        0.803     0.345     0.599     1.216
   339   1 h        0.804     0.331     0.636     1.253
   340   8 o        1.607    -0.683    27.268     7.048
   341   1 h        0.804     0.338     0.617     1.234
   342   1 h        0.803     0.334     0.629     1.246
   343   8 o        1.609    -0.673    26.995     7.012
   344   1 h        0.804     0.337     0.619     1.236
   345   1 h        0.804     0.324     0.654     1.271
   346   8 o        1.610    -0.654    26.527     6.951
   347   1 h        0.805     0.340     0.613     1.230
   348   1 h        0.805     0.326     0.647     1.264
   349   8 o        1.609    -0.674    27.028     7.017
   350   1 h        0.804     0.334     0.628     1.245
   351   1 h        0.804     0.332     0.631     1.248
   352   8 o        1.607    -0.696    27.608     7.091
   353   1 h        0.803     0.332     0.631     1.248
   354   1 h        0.804     0.326     0.647     1.263
   355   8 o        1.608    -0.679    27.147     7.032
   356   1 h        0.805     0.315     0.678     1.293
   357   1 h        0.803     0.356     0.575     1.192
   358   8 o        1.609    -0.679    27.167     7.035
   359   1 h        0.804     0.331     0.634     1.250
   360   1 h        0.804     0.345     0.600     1.217
   361   8 o        1.603    -0.680    27.181     7.036
   362   1 h        0.801     0.353     0.581     1.198
   363   1 h        0.806     0.315     0.678     1.293
   364   8 o        1.606    -0.689    27.411     7.066
   365   1 h        0.803     0.326     0.648     1.265
   366   1 h        0.804     0.352     0.583     1.199
   367   8 o        1.607    -0.663    26.738     6.979
   368   1 h        0.803     0.334     0.626     1.243
   369   1 h        0.805     0.332     0.633     1.250
   370   8 o        1.609    -0.667    26.837     6.992
   371   1 h        0.804     0.352     0.583     1.200
   372   1 h        0.805     0.332     0.632     1.249
   373   8 o        1.609    -0.667    26.845     6.993
   374   1 h        0.804     0.359     0.568     1.184
   375   1 h        0.805     0.325     0.651     1.268
   376   8 o        1.608    -0.662    26.714     6.976
   377   1 h        0.806     0.318     0.668     1.284
   378   1 h        0.802     0.353     0.581     1.197
   379   8 o        1.608    -0.684    27.292     7.051
   380   1 h        0.803     0.350     0.588     1.204
   381   1 h        0.804     0.328     0.643     1.259
   382   8 o        1.609    -0.660    26.669     6.970
   383   1 h        0.805     0.332     0.632     1.249
   384   1 h        0.804     0.341     0.609     1.226
   385   8 o        1.606    -0.687    27.361     7.060
   386   1 h        0.804     0.335     0.625     1.242
   387   1 h        0.803     0.349     0.591     1.208
   388   8 o        1.608    -0.673    26.995     7.012
   389   1 h        0.803     0.362     0.561     1.176
   390   1 h        0.805     0.316     0.676     1.291
   391   8 o        1.608    -0.682    27.237     7.044
   392   1 h        0.803     0.349     0.590     1.206
   393   1 h        0.805     0.317     0.671     1.286
   394   8 o        1.606    -0.682    27.236     7.044
   395   1 h        0.803     0.349     0.590     1.207
   396   1 h        0.804     0.348     0.594     1.210
   397   8 o        1.607    -0.680    27.185     7.037
   398   1 h        0.806     0.308     0.698     1.312
   399   1 h        0.802     0.357     0.573     1.189
   400   8 o        1.609    -0.642    26.211     6.910
   401   1 h        0.803     0.350     0.589     1.206
   402   1 h        0.805     0.313     0.682     1.297
   403   8 o        1.607    -0.699    27.690     7.102
   404   1 h        0.803     0.358     0.571     1.187
   405   1 h        0.804     0.330     0.638     1.254
   406   8 o        1.608    -0.672    26.974     7.010
   407   1 h        0.803     0.360     0.566     1.182
   408   1 h        0.804     0.326     0.648     1.264
   409   8 o        1.608    -0.693    27.538     7.082
   410   1 h        0.804     0.345     0.600     1.217
   411   1 h        0.804     0.329     0.639     1.256
   412   8 o        1.606    -0.700    27.721     7.106
   413   1 h        0.803     0.348     0.593     1.209
   414   1 h        0.803     0.343     0.604     1.221
   415   8 o        1.606    -0.695    27.585     7.088
   416   1 h        0.804     0.328     0.642     1.259
   417   1 h        0.803     0.352     0.584     1.200
   418   8 o        1.608    -0.669    26.894     6.999
   419   1 h        0.803     0.356     0.574     1.191
   420   1 h        0.805     0.321     0.662     1.278
   421   8 o        1.608    -0.684    27.295     7.051
   422   1 h        0.804     0.341     0.610     1.227
   423   1 h        0.804     0.330     0.636     1.253
   424   8 o        1.605    -0.680    27.188     7.037
   425   1 h        0.804     0.332     0.631     1.248
   426   1 h        0.801     0.341     0.610     1.227
   427   8 o        1.603    -0.681    27.225     7.042
   428   1 h        0.806     0.309     0.695     1.309
   429   1 h        0.802     0.352     0.584     1.201
   430   8 o        1.606    -0.686    27.334     7.056
   431   1 h        0.803     0.332     0.631     1.248
   432   1 h        0.803     0.357     0.572     1.188
   433   8 o        1.608    -0.683    27.273     7.048
   434   1 h        0.804     0.317     0.672     1.287
   435   1 h        0.804     0.357     0.573     1.189
   436   8 o        1.608    -0.650    26.413     6.936
   437   1 h        0.806     0.324     0.652     1.268
   438   1 h        0.803     0.338     0.618     1.235
   439   8 o        1.604    -0.675    27.067     7.022
   440   1 h        0.804     0.332     0.632     1.249
   441   1 h        0.801     0.339     0.614     1.231
   442   8 o        1.612    -0.676    27.084     7.024
   443   1 h        0.805     0.332     0.631     1.248
   444   1 h        0.803     0.359     0.567     1.183
   445   8 o        1.608    -0.672    26.980     7.010
   446   1 h        0.802     0.362     0.560     1.176
   447   1 h        0.805     0.314     0.680     1.295
   448   8 o        1.610    -0.640    26.170     6.904
   449   1 h        0.806     0.321     0.662     1.278
   450   1 h        0.805     0.341     0.609     1.226
   451   8 o        1.608    -0.670    26.915     7.002
   452   1 h        0.805     0.350     0.588     1.205
   453   1 h        0.803     0.356     0.574     1.190
   454   8 o        1.608    -0.663    26.752     6.981
   455   1 h        0.804     0.327     0.645     1.261
   456   1 h        0.804     0.319     0.668     1.284
   457   8 o        1.609    -0.662    26.728     6.978
   458   1 h        0.803     0.354     0.579     1.195
   459   1 h        0.806     0.316     0.676     1.291
   460   8 o        1.607    -0.666    26.835     6.992
   461   1 h        0.802     0.354     0.579     1.195
   462   1 h        0.806     0.313     0.683     1.298
   463   8 o        1.609    -0.671    26.945     7.006
   464   1 h        0.804     0.317     0.673     1.288
   465   1 h        0.804     0.346     0.598     1.215
   466   8 o        1.606    -0.672    26.987     7.011
   467   1 h        0.803     0.332     0.634     1.251
   468   1 h        0.803     0.340     0.612     1.229
   469   8 o        1.609    -0.656    26.579     6.958
   470   1 h        0.805     0.335     0.624     1.241
   471   1 h        0.804     0.338     0.616     1.233
   472   8 o        1.609    -0.655    26.533     6.952
   473   1 h        0.805     0.325     0.649     1.265
   474   1 h        0.804     0.342     0.608     1.225
   475   8 o        1.607    -0.692    27.504     7.078
   476   1 h        0.804     0.348     0.593     1.209
   477   1 h        0.804     0.327     0.645     1.262
   478   8 o        1.609    -0.669    26.903     7.000
   479   1 h        0.805     0.332     0.632     1.249
   480   1 h        0.804     0.327     0.645     1.262
   481   8 o        1.607    -0.672    26.987     7.011
   482   1 h        0.805     0.316     0.676     1.291
   483   1 h        0.802     0.352     0.583     1.200
   484   8 o        1.607    -0.683    27.276     7.049
   485   1 h        0.803     0.320     0.663     1.279
   486   1 h        0.804     0.345     0.600     1.217
   487   8 o        1.608    -0.656    26.563     6.956
   488   1 h        0.805     0.323     0.656     1.272
   489   1 h        0.803     0.338     0.617     1.234
   490   8 o        1.610    -0.643    26.233     6.913
   491   1 h        0.804     0.336     0.621     1.238
   492   1 h        0.805     0.329     0.639     1.255
   493   8 o        1.607    -0.656    26.570     6.957
   494   1 h        0.802     0.343     0.606     1.223
   495   1 h        0.805     0.324     0.653     1.270
   496   8 o        1.608    -0.680    27.178     7.036
   497   1 h        0.804     0.339     0.615     1.232
   498   1 h        0.804     0.341     0.610     1.227
   499   8 o        1.607    -0.670    26.927     7.003
   500   1 h        0.803     0.353     0.582     1.198
   501   1 h        0.803     0.327     0.647     1.263
   502   8 o        1.606    -0.672    26.975     7.010
   503   1 h        0.804     0.334     0.626     1.243
   504   1 h        0.802     0.350     0.589     1.206
   505   8 o        1.608    -0.672    26.970     7.009
   506   1 h        0.804     0.330     0.637     1.253
   507   1 h        0.804     0.336     0.623     1.240
   508   8 o        1.608    -0.672    26.967     7.009
   509   1 h        0.803     0.345     0.599     1.216
   510   1 h        0.804     0.335     0.624     1.241
   511   8 o        1.607    -0.659    26.635     6.965
   512   1 h        0.803     0.334     0.629     1.245
   513   1 h        0.804     0.338     0.617     1.234
   514   8 o        1.609    -0.675    27.056     7.020
   515   1 h        0.804     0.348     0.593     1.210
   516   1 h        0.804     0.334     0.628     1.245
   517   8 o        1.608    -0.669    26.892     6.999
   518   1 h        0.803     0.344     0.603     1.220
   519   1 h        0.805     0.321     0.662     1.278
   520   8 o        1.606    -0.684    27.290     7.051
   521   1 h        0.804     0.356     0.575     1.191
   522   1 h        0.803     0.350     0.588     1.204
   523   8 o        1.607    -0.673    27.007     7.014
   524   1 h        0.802     0.354     0.580     1.196
   525   1 h        0.805     0.319     0.666     1.282
   526   8 o        1.609    -0.639    26.139     6.900
   527   1 h        0.804     0.346     0.598     1.215
   528   1 h        0.805     0.313     0.684     1.299
   529   8 o        1.611    -0.659    26.639     6.966
   530   1 h        0.805     0.336     0.622     1.239
   531   1 h        0.806     0.316     0.675     1.290

 Mol. C6AA /au·bohr⁶  :    1428591.758133
 Mol. C8AA /au·bohr⁸  :   25906377.037588
 Mol. α(0) /au        :       1680.127433


Wiberg/Mayer (AO) data.
largest (>0.10) Wiberg bond orders for each atom

 ---------------------------------------------------------------------------
     #   Z sym  total        # sym  WBO       # sym  WBO       # sym  WBO
 ---------------------------------------------------------------------------
     1   8 o    1.848 --     3 h    0.842     2 h    0.823
     2   1 h    0.881 --     1 o    0.823
     3   1 h    0.891 --     1 o    0.842
     4   8 o    1.870 --     6 h    0.852     5 h    0.802
     5   1 h    0.881 --     4 o    0.802
     6   1 h    0.888 --     4 o    0.852
     7   8 o    1.865 --     8 h    0.815     9 h    0.792
     8   1 h    0.879 --     7 o    0.815
     9   1 h    0.881 --     7 o    0.792
    10   8 o    1.807 --    11 h    0.850    12 h    0.850
    11   1 h    0.897 --    10 o    0.850
    12   1 h    0.894 --    10 o    0.850
    13   8 o    1.839 --    15 h    0.847    14 h    0.816
    14   1 h    0.885 --    13 o    0.816
    15   1 h    0.891 --    13 o    0.847
    16   8 o    1.870 --    17 h    0.830    18 h    0.819
    17   1 h    0.885 --    16 o    0.830
    18   1 h    0.888 --    16 o    0.819
    19   8 o    1.857 --    20 h    0.827    21 h    0.779
    20   1 h    0.895 --    19 o    0.827
    21   1 h    0.877 --    19 o    0.779
    22   8 o    1.889 --    24 h    0.822    23 h    0.801
    23   1 h    0.868 --    22 o    0.801
    24   1 h    0.886 --    22 o    0.822
    25   8 o    1.862 --    27 h    0.819    26 h    0.818
    26   1 h    0.882 --    25 o    0.818
    27   1 h    0.884 --    25 o    0.819
    28   8 o    1.896 --    29 h    0.821    30 h    0.816
    29   1 h    0.877 --    28 o    0.821
    30   1 h    0.885 --    28 o    0.816
    31   8 o    1.789 --    33 h    0.844    32 h    0.843
    32   1 h    0.887 --    31 o    0.843
    33   1 h    0.891 --    31 o    0.844
    34   8 o    1.852 --    36 h    0.833    35 h    0.823
    35   1 h    0.888 --    34 o    0.823
    36   1 h    0.892 --    34 o    0.833
    37   8 o    1.829 --    38 h    0.835    39 h    0.825
    38   1 h    0.892 --    37 o    0.835
    39   1 h    0.881 --    37 o    0.825
    40   8 o    1.905 --    41 h    0.855    42 h    0.826
    41   1 h    0.894 --    40 o    0.855
    42   1 h    0.879 --    40 o    0.826
    43   8 o    1.852 --    45 h    0.862    44 h    0.821
    44   1 h    0.885 --    43 o    0.821
    45   1 h    0.898 --    43 o    0.862
    46   8 o    1.877 --    48 h    0.827    47 h    0.801
    47   1 h    0.871 --    46 o    0.801
    48   1 h    0.894 --    46 o    0.827
    49   8 o    1.866 --    50 h    0.861    51 h    0.808
    50   1 h    0.895 --    49 o    0.861
    51   1 h    0.873 --    49 o    0.808
    52   8 o    1.829 --    54 h    0.835    53 h    0.833
    53   1 h    0.894 --    52 o    0.833
    54   1 h    0.880 --    52 o    0.835
    55   8 o    1.823 --    57 h    0.850    56 h    0.835
    56   1 h    0.890 --    55 o    0.835
    57   1 h    0.885 --    55 o    0.850
    58   8 o    1.860 --    60 h    0.856    59 h    0.809
    59   1 h    0.877 --    58 o    0.809
    60   1 h    0.888 --    58 o    0.856
    61   8 o    1.823 --    63 h    0.829    62 h    0.798
    62   1 h    0.880 --    61 o    0.798
    63   1 h    0.886 --    61 o    0.829
    64   8 o    1.857 --    66 h    0.829    65 h    0.820
    65   1 h    0.875 --    64 o    0.820
    66   1 h    0.885 --    64 o    0.829
    67   8 o    1.870 --    69 h    0.881    68 h    0.809
    68   1 h    0.875 --    67 o    0.809
    69   1 h    0.898 --    67 o    0.881
    70   8 o    1.841 --    71 h    0.880    72 h    0.820
    71   1 h    0.905 --    70 o    0.880
    72   1 h    0.881 --    70 o    0.820
    73   8 o    1.862 --    74 h    0.851    75 h    0.819
    74   1 h    0.885 --    73 o    0.851
    75   1 h    0.879 --    73 o    0.819
    76   8 o    1.810 --    78 h    0.848    77 h    0.809
    77   1 h    0.886 --    76 o    0.809
    78   1 h    0.894 --    76 o    0.848
    79   8 o    1.830 --    80 h    0.822    81 h    0.793
    80   1 h    0.879 --    79 o    0.822
    81   1 h    0.877 --    79 o    0.793
    82   8 o    1.886 --    84 h    0.864    83 h    0.835
    83   1 h    0.888 --    82 o    0.835
    84   1 h    0.893 --    82 o    0.864
    85   8 o    1.823 --    87 h    0.878    86 h    0.815
    86   1 h    0.875 --    85 o    0.815
    87   1 h    0.896 --    85 o    0.878
    88   8 o    1.857 --    89 h    0.860    90 h    0.850
    89   1 h    0.885 --    88 o    0.860
    90   1 h    0.882 --    88 o    0.850
    91   8 o    1.839 --    92 h    0.894    93 h    0.801
    92   1 h    0.902 --    91 o    0.894
    93   1 h    0.879 --    91 o    0.801
    94   8 o    1.860 --    96 h    0.851    95 h    0.810
    95   1 h    0.871 --    94 o    0.810
    96   1 h    0.893 --    94 o    0.851
    97   8 o    1.857 --    98 h    0.819    99 h    0.791
    98   1 h    0.876 --    97 o    0.819
    99   1 h    0.873 --    97 o    0.791
   100   8 o    1.853 --   101 h    0.858   102 h    0.820
   101   1 h    0.885 --   100 o    0.858
   102   1 h    0.889 --   100 o    0.820
   103   8 o    1.835 --   104 h    0.829   105 h    0.803
   104   1 h    0.884 --   103 o    0.829
   105   1 h    0.883 --   103 o    0.803
   106   8 o    1.819 --   108 h    0.860   107 h    0.831
   107   1 h    0.883 --   106 o    0.831
   108   1 h    0.892 --   106 o    0.860
   109   8 o    1.859 --   111 h    0.817   110 h    0.810
   110   1 h    0.878 --   109 o    0.810
   111   1 h    0.884 --   109 o    0.817
   112   8 o    1.872 --   113 h    0.823   114 h    0.784
   113   1 h    0.884 --   112 o    0.823
   114   1 h    0.868 --   112 o    0.784
   115   8 o    1.848 --   117 h    0.818   116 h    0.806
   116   1 h    0.888 --   115 o    0.806
   117   1 h    0.878 --   115 o    0.818
   118   8 o    1.892 --   119 h    0.822   120 h    0.788
   119   1 h    0.881 --   118 o    0.822
   120   1 h    0.874 --   118 o    0.788
   121   8 o    1.869 --   122 h    0.844   123 h    0.810
   122   1 h    0.886 --   121 o    0.844
   123   1 h    0.879 --   121 o    0.810
   124   8 o    1.848 --   125 h    0.837   126 h    0.814
   125   1 h    0.878 --   124 o    0.837
   126   1 h    0.890 --   124 o    0.814
   127   8 o    1.784 --   128 h    0.863   129 h    0.845
   128   1 h    0.900 --   127 o    0.863
   129   1 h    0.882 --   127 o    0.845
   130   8 o    1.875 --   132 h    0.829   131 h    0.819
   131   1 h    0.881 --   130 o    0.819
   132   1 h    0.870 --   130 o    0.829
   133   8 o    1.848 --   135 h    0.842   134 h    0.793
   134   1 h    0.881 --   133 o    0.793
   135   1 h    0.886 --   133 o    0.842
   136   8 o    1.841 --   137 h    0.840   138 h    0.807
   137   1 h    0.897 --   136 o    0.840
   138   1 h    0.878 --   136 o    0.807
   139   8 o    1.880 --   141 h    0.824   140 h    0.823
   140   1 h    0.886 --   139 o    0.823
   141   1 h    0.886 --   139 o    0.824
   142   8 o    1.884 --   144 h    0.832   143 h    0.807
   143   1 h    0.881 --   142 o    0.807
   144   1 h    0.888 --   142 o    0.832
   145   8 o    1.833 --   146 h    0.837   147 h    0.816
   146   1 h    0.882 --   145 o    0.837
   147   1 h    0.884 --   145 o    0.816
   148   8 o    1.808 --   150 h    0.862   149 h    0.846
   149   1 h    0.892 --   148 o    0.846
   150   1 h    0.899 --   148 o    0.862
   151   8 o    1.878 --   152 h    0.826   153 h    0.788
   152   1 h    0.894 --   151 o    0.826
   153   1 h    0.876 --   151 o    0.788
   154   8 o    1.832 --   156 h    0.851   155 h    0.845
   155   1 h    0.882 --   154 o    0.845
   156   1 h    0.895 --   154 o    0.851
   157   8 o    1.834 --   158 h    0.832   159 h    0.828
   158   1 h    0.888 --   157 o    0.832
   159   1 h    0.882 --   157 o    0.828
   160   8 o    1.825 --   162 h    0.822   161 h    0.818
   161   1 h    0.885 --   160 o    0.818
   162   1 h    0.887 --   160 o    0.822
   163   8 o    1.824 --   164 h    0.857   165 h    0.804
   164   1 h    0.892 --   163 o    0.857
   165   1 h    0.876 --   163 o    0.804
   166   8 o    1.870 --   167 h    0.812   168 h    0.801
   167   1 h    0.878 --   166 o    0.812
   168   1 h    0.889 --   166 o    0.801
   169   8 o    1.826 --   171 h    0.896   170 h    0.787
   170   1 h    0.870 --   169 o    0.787
   171   1 h    0.905 --   169 o    0.896
   172   8 o    1.818 --   173 h    0.859   174 h    0.810
   173   1 h    0.900 --   172 o    0.859
   174   1 h    0.879 --   172 o    0.810
   175   8 o    1.818 --   176 h    0.874   177 h    0.819
   176   1 h    0.893 --   175 o    0.874
   177   1 h    0.878 --   175 o    0.819
   178   8 o    1.855 --   179 h    0.829   180 h    0.802
   179   1 h    0.888 --   178 o    0.829
   180   1 h    0.867 --   178 o    0.802
   181   8 o    1.846 --   182 h    0.855   183 h    0.794
   182   1 h    0.884 --   181 o    0.855
   183   1 h    0.867 --   181 o    0.794
   184   8 o    1.810 --   185 h    0.861   186 h    0.847
   185   1 h    0.887 --   184 o    0.861
   186   1 h    0.890 --   184 o    0.847
   187   8 o    1.831 --   189 h    0.886   188 h    0.824
   188   1 h    0.879 --   187 o    0.824
   189   1 h    0.898 --   187 o    0.886
   190   8 o    1.875 --   192 h    0.822   191 h    0.821
   191   1 h    0.884 --   190 o    0.821
   192   1 h    0.882 --   190 o    0.822
   193   8 o    1.871 --   194 h    0.809   195 h    0.792
   194   1 h    0.878 --   193 o    0.809
   195   1 h    0.875 --   193 o    0.792
   196   8 o    1.814 --   197 h    0.844   198 h    0.822
   197   1 h    0.894 --   196 o    0.844
   198   1 h    0.885 --   196 o    0.822
   199   8 o    1.873 --   200 h    0.821   201 h    0.818
   200   1 h    0.877 --   199 o    0.821
   201   1 h    0.889 --   199 o    0.818
   202   8 o    1.839 --   203 h    0.865   204 h    0.839
   203   1 h    0.903 --   202 o    0.865
   204   1 h    0.883 --   202 o    0.839
   205   8 o    1.832 --   207 h    0.844   206 h    0.842
   206   1 h    0.884 --   205 o    0.842
   207   1 h    0.887 --   205 o    0.844
   208   8 o    1.859 --   210 h    0.859   209 h    0.845
   209   1 h    0.883 --   208 o    0.845
   210   1 h    0.892 --   208 o    0.859
   211   8 o    1.833 --   212 h    0.870   213 h    0.822
   212   1 h    0.902 --   211 o    0.870
   213   1 h    0.881 --   211 o    0.822
   214   8 o    1.851 --   215 h    0.813   216 h    0.784
   215   1 h    0.890 --   214 o    0.813
   216   1 h    0.876 --   214 o    0.784
   217   8 o    1.867 --   218 h    0.812   219 h    0.787
   218   1 h    0.880 --   217 o    0.812
   219   1 h    0.877 --   217 o    0.787
   220   8 o    1.830 --   221 h    0.857   222 h    0.808
   221   1 h    0.890 --   220 o    0.857
   222   1 h    0.876 --   220 o    0.808
   223   8 o    1.865 --   224 h    0.821   225 h    0.813
   224   1 h    0.875 --   223 o    0.821
   225   1 h    0.886 --   223 o    0.813
   226   8 o    1.846 --   227 h    0.845   228 h    0.813
   227   1 h    0.891 --   226 o    0.845
   228   1 h    0.888 --   226 o    0.813
   229   8 o    1.873 --   231 h    0.844   230 h    0.806   317 h    0.100
   230   1 h    0.882 --   229 o    0.806
   231   1 h    0.886 --   229 o    0.844
   232   8 o    1.789 --   234 h    0.860   233 h    0.858
   233   1 h    0.896 --   232 o    0.858
   234   1 h    0.890 --   232 o    0.860
   235   8 o    1.846 --   236 h    0.798   237 h    0.794
   236   1 h    0.878 --   235 o    0.798
   237   1 h    0.878 --   235 o    0.794
   238   8 o    1.848 --   239 h    0.810   240 h    0.808
   239   1 h    0.884 --   238 o    0.810
   240   1 h    0.879 --   238 o    0.808
   241   8 o    1.809 --   243 h    0.855   242 h    0.831
   242   1 h    0.892 --   241 o    0.831
   243   1 h    0.898 --   241 o    0.855
   244   8 o    1.883 --   246 h    0.860   245 h    0.802
   245   1 h    0.877 --   244 o    0.802
   246   1 h    0.881 --   244 o    0.860
   247   8 o    1.873 --   248 h    0.842   249 h    0.829
   248   1 h    0.880 --   247 o    0.842
   249   1 h    0.878 --   247 o    0.829
   250   8 o    1.847 --   251 h    0.830   252 h    0.808
   251   1 h    0.892 --   250 o    0.830
   252   1 h    0.878 --   250 o    0.808
   253   8 o    1.825 --   254 h    0.891   255 h    0.828
   254   1 h    0.906 --   253 o    0.891
   255   1 h    0.891 --   253 o    0.828
   256   8 o    1.843 --   257 h    0.877   258 h    0.831
   257   1 h    0.892 --   256 o    0.877
   258   1 h    0.878 --   256 o    0.831
   259   8 o    1.877 --   261 h    0.820   260 h    0.813
   260   1 h    0.885 --   259 o    0.813
   261   1 h    0.883 --   259 o    0.820
   262   8 o    1.812 --   263 h    0.862   264 h    0.862
   263   1 h    0.891 --   262 o    0.862
   264   1 h    0.890 --   262 o    0.862
   265   8 o    1.841 --   267 h    0.898   266 h    0.771
   266   1 h    0.873 --   265 o    0.771
   267   1 h    0.903 --   265 o    0.898
   268   8 o    1.882 --   269 h    0.820   270 h    0.798
   269   1 h    0.890 --   268 o    0.820
   270   1 h    0.875 --   268 o    0.798
   271   8 o    1.823 --   273 h    0.856   272 h    0.835
   272   1 h    0.886 --   271 o    0.835
   273   1 h    0.888 --   271 o    0.856
   274   8 o    1.875 --   276 h    0.840   275 h    0.834
   275   1 h    0.891 --   274 o    0.834
   276   1 h    0.884 --   274 o    0.840
   277   8 o    1.852 --   279 h    0.902   278 h    0.813
   278   1 h    0.878 --   277 o    0.813
   279   1 h    0.905 --   277 o    0.902
   280   8 o    1.864 --   282 h    0.835   281 h    0.798
   281   1 h    0.881 --   280 o    0.798
   282   1 h    0.890 --   280 o    0.835
   283   8 o    1.848 --   285 h    0.842   284 h    0.815
   284   1 h    0.882 --   283 o    0.815
   285   1 h    0.891 --   283 o    0.842
   286   8 o    1.827 --   288 h    0.900   287 h    0.818
   287   1 h    0.875 --   286 o    0.818
   288   1 h    0.905 --   286 o    0.900
   289   8 o    1.856 --   291 h    0.854   290 h    0.810
   290   1 h    0.886 --   289 o    0.810
   291   1 h    0.893 --   289 o    0.854
   292   8 o    1.860 --   293 h    0.841   294 h    0.797
   293   1 h    0.892 --   292 o    0.841
   294   1 h    0.885 --   292 o    0.797
   295   8 o    1.853 --   297 h    0.892   296 h    0.801
   296   1 h    0.872 --   295 o    0.801
   297   1 h    0.898 --   295 o    0.892
   298   8 o    1.825 --   300 h    0.864   299 h    0.850
   299   1 h    0.884 --   298 o    0.850
   300   1 h    0.891 --   298 o    0.864
   301   8 o    1.829 --   303 h    0.854   302 h    0.845
   302   1 h    0.889 --   301 o    0.845
   303   1 h    0.888 --   301 o    0.854
   304   8 o    1.813 --   305 h    0.862   306 h    0.843
   305   1 h    0.893 --   304 o    0.862
   306   1 h    0.881 --   304 o    0.843
   307   8 o    1.843 --   308 h    0.836   309 h    0.830
   308   1 h    0.887 --   307 o    0.836
   309   1 h    0.888 --   307 o    0.830
   310   8 o    1.863 --   312 h    0.827   311 h    0.795
   311   1 h    0.874 --   310 o    0.795
   312   1 h    0.884 --   310 o    0.827
   313   8 o    1.826 --   315 h    0.884   314 h    0.851
   314   1 h    0.885 --   313 o    0.851
   315   1 h    0.895 --   313 o    0.884
   316   8 o    1.877 --   318 h    0.848   317 h    0.764   362 h    0.110
   317   1 h    0.870 --   316 o    0.764   229 o    0.100
   318   1 h    0.890 --   316 o    0.848
   319   8 o    1.823 --   321 h    0.856   320 h    0.853
   320   1 h    0.895 --   319 o    0.853
   321   1 h    0.892 --   319 o    0.856
   322   8 o    1.820 --   324 h    0.853   323 h    0.840
   323   1 h    0.886 --   322 o    0.840
   324   1 h    0.890 --   322 o    0.853
   325   8 o    1.844 --   326 h    0.856   327 h    0.787
   326   1 h    0.891 --   325 o    0.856
   327   1 h    0.869 --   325 o    0.787
   328   8 o    1.835 --   330 h    0.896   329 h    0.793
   329   1 h    0.878 --   328 o    0.793
   330   1 h    0.902 --   328 o    0.896
   331   8 o    1.854 --   333 h    0.897   332 h    0.814
   332   1 h    0.876 --   331 o    0.814
   333   1 h    0.900 --   331 o    0.897
   334   8 o    1.820 --   335 h    0.848   336 h    0.839
   335   1 h    0.886 --   334 o    0.848
   336   1 h    0.883 --   334 o    0.839
   337   8 o    1.862 --   339 h    0.848   338 h    0.812
   338   1 h    0.881 --   337 o    0.812
   339   1 h    0.891 --   337 o    0.848
   340   8 o    1.831 --   341 h    0.843   342 h    0.825
   341   1 h    0.886 --   340 o    0.843
   342   1 h    0.889 --   340 o    0.825
   343   8 o    1.822 --   345 h    0.851   344 h    0.828
   344   1 h    0.886 --   343 o    0.828
   345   1 h    0.895 --   343 o    0.851
   346   8 o    1.821 --   348 h    0.879   347 h    0.858
   347   1 h    0.885 --   346 o    0.858
   348   1 h    0.894 --   346 o    0.879
   349   8 o    1.847 --   351 h    0.834   350 h    0.833
   350   1 h    0.889 --   349 o    0.833
   351   1 h    0.889 --   349 o    0.834
   352   8 o    1.793 --   354 h    0.839   353 h    0.827
   353   1 h    0.889 --   352 o    0.827
   354   1 h    0.893 --   352 o    0.839
   355   8 o    1.808 --   356 h    0.878   357 h    0.800
   356   1 h    0.901 --   355 o    0.878
   357   1 h    0.873 --   355 o    0.800
   358   8 o    1.835 --   359 h    0.851   360 h    0.830
   359   1 h    0.890 --   358 o    0.851
   360   1 h    0.881 --   358 o    0.830
   361   8 o    1.845 --   363 h    0.894   362 h    0.763
   362   1 h    0.875 --   361 o    0.763   316 o    0.110
   363   1 h    0.901 --   361 o    0.894
   364   8 o    1.858 --   365 h    0.816   366 h    0.804
   365   1 h    0.894 --   364 o    0.816
   366   1 h    0.876 --   364 o    0.804
   367   8 o    1.853 --   369 h    0.855   368 h    0.826
   368   1 h    0.888 --   367 o    0.826
   369   1 h    0.890 --   367 o    0.855
   370   8 o    1.847 --   372 h    0.859   371 h    0.840
   371   1 h    0.876 --   370 o    0.840
   372   1 h    0.890 --   370 o    0.859
   373   8 o    1.848 --   375 h    0.864   374 h    0.833
   374   1 h    0.871 --   373 o    0.833
   375   1 h    0.895 --   373 o    0.864
   376   8 o    1.850 --   377 h    0.893   378 h    0.804
   377   1 h    0.899 --   376 o    0.893
   378   1 h    0.875 --   376 o    0.804
   379   8 o    1.825 --   381 h    0.849   380 h    0.819
   380   1 h    0.877 --   379 o    0.819
   381   1 h    0.892 --   379 o    0.849
   382   8 o    1.842 --   383 h    0.876   384 h    0.841
   383   1 h    0.890 --   382 o    0.876
   384   1 h    0.884 --   382 o    0.841
   385   8 o    1.857 --   386 h    0.832   387 h    0.796
   386   1 h    0.888 --   385 o    0.832
   387   1 h    0.878 --   385 o    0.796
   388   8 o    1.836 --   390 h    0.883   389 h    0.801
   389   1 h    0.869 --   388 o    0.801
   390   1 h    0.900 --   388 o    0.883
   391   8 o    1.827 --   393 h    0.869   392 h    0.815
   392   1 h    0.878 --   391 o    0.815
   393   1 h    0.899 --   391 o    0.869
   394   8 o    1.887 --   396 h    0.820   395 h    0.804
   395   1 h    0.878 --   394 o    0.804
   396   1 h    0.879 --   394 o    0.820
   397   8 o    1.808 --   398 h    0.895   399 h    0.795
   398   1 h    0.905 --   397 o    0.895
   399   1 h    0.873 --   397 o    0.795
   400   8 o    1.876 --   402 h    0.884   401 h    0.819
   401   1 h    0.878 --   400 o    0.819
   402   1 h    0.902 --   400 o    0.884
   403   8 o    1.831 --   405 h    0.847   404 h    0.804
   404   1 h    0.872 --   403 o    0.804
   405   1 h    0.891 --   403 o    0.847
   406   8 o    1.871 --   408 h    0.853   407 h    0.805
   407   1 h    0.870 --   406 o    0.805
   408   1 h    0.894 --   406 o    0.853
   409   8 o    1.808 --   411 h    0.844   410 h    0.827
   410   1 h    0.881 --   409 o    0.827
   411   1 h    0.891 --   409 o    0.844
   412   8 o    1.848 --   414 h    0.809   413 h    0.801
   413   1 h    0.879 --   412 o    0.801
   414   1 h    0.882 --   412 o    0.809
   415   8 o    1.841 --   416 h    0.840   417 h    0.795
   416   1 h    0.892 --   415 o    0.840
   417   1 h    0.876 --   415 o    0.795
   418   8 o    1.842 --   420 h    0.875   419 h    0.805
   419   1 h    0.873 --   418 o    0.805
   420   1 h    0.897 --   418 o    0.875
   421   8 o    1.826 --   423 h    0.847   422 h    0.836
   422   1 h    0.884 --   421 o    0.836
   423   1 h    0.891 --   421 o    0.847
   424   8 o    1.859 --   425 h    0.847   426 h    0.791
   425   1 h    0.889 --   424 o    0.847
   426   1 h    0.884 --   424 o    0.791
   427   8 o    1.830 --   428 h    0.897   429 h    0.764
   428   1 h    0.904 --   427 o    0.897
   429   1 h    0.876 --   427 o    0.764   442 o    0.109
   430   8 o    1.873 --   431 h    0.827   432 h    0.797
   431   1 h    0.889 --   430 o    0.827
   432   1 h    0.872 --   430 o    0.797
   433   8 o    1.816 --   434 h    0.855   435 h    0.823
   434   1 h    0.899 --   433 o    0.855
   435   1 h    0.873 --   433 o    0.823
   436   8 o    1.858 --   437 h    0.891   438 h    0.821
   437   1 h    0.895 --   436 o    0.891
   438   1 h    0.886 --   436 o    0.821
   439   8 o    1.867 --   440 h    0.842   441 h    0.802
   440   1 h    0.890 --   439 o    0.842
   441   1 h    0.885 --   439 o    0.802
   442   8 o    1.864 --   443 h    0.861   444 h    0.799   429 h    0.109
   443   1 h    0.889 --   442 o    0.861
   444   1 h    0.871 --   442 o    0.799
   445   8 o    1.851 --   447 h    0.886   446 h    0.788
   446   1 h    0.869 --   445 o    0.788
   447   1 h    0.901 --   445 o    0.886
   448   8 o    1.836 --   449 h    0.891   450 h    0.859
   449   1 h    0.897 --   448 o    0.891
   450   1 h    0.884 --   448 o    0.859
   451   8 o    1.888 --   452 h    0.843   453 h    0.805
   452   1 h    0.878 --   451 o    0.843
   453   1 h    0.873 --   451 o    0.805
   454   8 o    1.842 --   455 h    0.845   456 h    0.839
   455   1 h    0.893 --   454 o    0.845
   456   1 h    0.898 --   454 o    0.839
   457   8 o    1.831 --   459 h    0.894   458 h    0.818
   458   1 h    0.874 --   457 o    0.818
   459   1 h    0.900 --   457 o    0.894
   460   8 o    1.836 --   462 h    0.896   461 h    0.797
   461   1 h    0.874 --   460 o    0.797
   462   1 h    0.902 --   460 o    0.896
   463   8 o    1.826 --   464 h    0.860   465 h    0.817
   464   1 h    0.900 --   463 o    0.860
   465   1 h    0.880 --   463 o    0.817
   466   8 o    1.865 --   468 h    0.825   467 h    0.824
   467   1 h    0.890 --   466 o    0.824
   468   1 h    0.884 --   466 o    0.825
   469   8 o    1.851 --   470 h    0.857   471 h    0.842
   470   1 h    0.888 --   469 o    0.857
   471   1 h    0.885 --   469 o    0.842
   472   8 o    1.837 --   473 h    0.874   474 h    0.844
   473   1 h    0.894 --   472 o    0.874
   474   1 h    0.883 --   472 o    0.844
   475   8 o    1.817 --   477 h    0.842   476 h    0.826
   476   1 h    0.879 --   475 o    0.826
   477   1 h    0.893 --   475 o    0.842
   478   8 o    1.812 --   479 h    0.863   480 h    0.849
   479   1 h    0.890 --   478 o    0.863
   480   1 h    0.893 --   478 o    0.849
   481   8 o    1.833 --   482 h    0.875   483 h    0.811
   482   1 h    0.900 --   481 o    0.875
   483   1 h    0.876 --   481 o    0.811
   484   8 o    1.846 --   485 h    0.825   486 h    0.825
   485   1 h    0.897 --   484 o    0.825
   486   1 h    0.881 --   484 o    0.825
   487   8 o    1.861 --   488 h    0.864   489 h    0.816
   488   1 h    0.896 --   487 o    0.864
   489   1 h    0.886 --   487 o    0.816
   490   8 o    1.876 --   492 h    0.860   491 h    0.845
   491   1 h    0.887 --   490 o    0.845
   492   1 h    0.891 --   490 o    0.860
   493   8 o    1.866 --   495 h    0.879   494 h    0.798
   494   1 h    0.882 --   493 o    0.798
   495   1 h    0.895 --   493 o    0.879
   496   8 o    1.845 --   497 h    0.842   498 h    0.838
   497   1 h    0.885 --   496 o    0.842
   498   1 h    0.884 --   496 o    0.838
   499   8 o    1.876 --   501 h    0.834   500 h    0.815
   500   1 h    0.876 --   499 o    0.815
   501   1 h    0.893 --   499 o    0.834
   502   8 o    1.872 --   503 h    0.839   504 h    0.808
   503   1 h    0.888 --   502 o    0.839
   504   1 h    0.878 --   502 o    0.808
   505   8 o    1.823 --   506 h    0.851   507 h    0.833
   506   1 h    0.891 --   505 o    0.851
   507   1 h    0.887 --   505 o    0.833
   508   8 o    1.851 --   510 h    0.853   509 h    0.823
   509   1 h    0.881 --   508 o    0.823
   510   1 h    0.888 --   508 o    0.853
   511   8 o    1.878 --   513 h    0.844   512 h    0.828
   512   1 h    0.889 --   511 o    0.828
   513   1 h    0.886 --   511 o    0.844
   514   8 o    1.851 --   516 h    0.844   515 h    0.834
   515   1 h    0.879 --   514 o    0.834
   516   1 h    0.889 --   514 o    0.844
   517   8 o    1.831 --   519 h    0.873   518 h    0.813
   518   1 h    0.882 --   517 o    0.813
   519   1 h    0.897 --   517 o    0.873
   520   8 o    1.881 --   521 h    0.820   522 h    0.800
   521   1 h    0.873 --   520 o    0.820
   522   1 h    0.877 --   520 o    0.800
   523   8 o    1.844 --   525 h    0.882   524 h    0.791
   524   1 h    0.875 --   523 o    0.791
   525   1 h    0.898 --   523 o    0.882
   526   8 o    1.855 --   528 h    0.897   527 h    0.834
   527   1 h    0.880 --   526 o    0.834
   528   1 h    0.902 --   526 o    0.897
   529   8 o    1.784 --   531 h    0.897   530 h    0.871
   530   1 h    0.887 --   529 o    0.871
   531   1 h    0.900 --   529 o    0.897
 ---------------------------------------------------------------------------

Topologies differ in total number of bonds
Writing topology from bond orders to xtbtopo.mol

molecular dipole:
                 x           y           z       tot (Debye)
 q only:       -3.740      -0.140       3.176
   full:       -4.708      -0.081       3.242      14.531
molecular quadrupole (traceless):
                xx          xy          yy          xz          yz          zz
 q only:      125.613     -20.911     -36.864      33.722      -4.630     -88.749
  q+dip:      169.102     -25.853     -59.359      37.927      -3.419    -109.744
   full:      170.640     -26.463     -62.100      37.505      -3.509    -108.540


           -------------------------------------------------
          | TOTAL ENERGY             -901.376289366922 Eh   |
          | GRADIENT NORM               0.104106772124 Eh/α |
          | HOMO-LUMO GAP               7.607856499701 eV   |
           -------------------------------------------------

------------------------------------------------------------------------
 * finished run on 2022/11/17 at 06:54:59.338     
------------------------------------------------------------------------
 total:
 * wall-time:     0 d,  0 h,  0 min, 10.162 sec
 *  cpu-time:     0 d,  0 h,  0 min, 14.779 sec
 * ratio c/w:     1.454 speedup
 SCF:
 * wall-time:     0 d,  0 h,  0 min,  9.563 sec
 *  cpu-time:     0 d,  0 h,  0 min, 13.711 sec
 * ratio c/w:     1.434 speedup

