531
 energy: -901.131322200518 gnorm: 0.006109830795 xtb: 6.5.1 (579679a)
o            1.79657558291888       -2.99634855610746       -0.89739214264269
h            0.86921234185717       -3.08293392327428       -1.20149299092906
h            2.11456882591630       -3.91451297252283       -0.84871950715829
o            0.24251115000066       -4.99124118482750        0.67877746842476
h            0.93953908383238       -4.81474886920161        1.34353330935082
h            0.70099953536340       -5.29740382802226       -0.11287321582795
o            2.89869078146772        3.56189645873788        0.48374277151966
h            3.20590388856577        2.81918086434459       -0.06575291009958
h            2.56874871287922        3.15603436289261        1.31740671147468
o            4.34991680132752       -1.05140983425314       -0.68307093072668
h            4.24147438628859       -1.36610243815702       -1.59112215128048
h            5.28728530746107       -0.86455450338929       -0.52657877864543
o           -5.18726098104130        1.18827582765520        5.92991202354032
h           -4.72317018949808        2.03513797598605        6.10685788952350
h           -4.65482668523873        0.49498100347736        6.35191899018750
o            2.12218175741021       -5.60878028133408       -1.39882282942135
h            1.68125508151830       -5.49058799099949       -2.26395828885644
h            2.99809179684593       -6.00716820427250       -1.58573617557988
o           -3.20702976146094       -4.13667586571155        2.83591361179250
h           -2.89183389210414       -4.98670560734813        3.19748257464697
h           -2.57229579564993       -3.85586339016429        2.13488292813188
o            4.40058887722647       -3.13833241263476        4.28035585098113
h            4.24291021205543       -2.65640095744682        3.44497353798534
h            3.53837382392013       -3.45114287811305        4.61901421516157
o           -1.86834525056066       -3.32264659773444        0.76181466462086
h           -2.48772676529581       -3.58876753384470        0.05110381505860
h           -1.04795954577321       -3.82801061564832        0.61824285664128
o            1.93776464901997        2.50247225822781        2.67239330876337
h            0.96995850470986        2.42473605123988        2.62959949143323
h            2.12279046385398        3.25989909055595        3.26705627559234
o           -0.46760072921756       -0.60520337765120       -2.39408126298391
h           -0.51177417561883       -0.12947107878828       -3.23902870059248
h           -1.23745870109230       -0.33178567121780       -1.87718845164005
o            2.65102007424606        4.55176593260077        4.21875813159606
h            3.16689168208490        3.98442921083621        4.82736260393144
h            3.23788030239883        5.16073171990243        3.74243625398759
o           -1.02233171295128        2.51373853858273       -0.11974092839059
h           -0.47265395294855        3.23255365939334       -0.46529387313128
h           -1.65309910303031        2.93550118105299        0.49120329742779
o           -4.93243387248306        2.93656051555439        3.51565956372721
h           -5.43873463551038        3.12004721073126        4.32128676218369
h           -4.74409367665680        3.82671027266899        3.16004671502037
o           -0.33795423724550        0.18098247710879       -4.96774864310698
h           -0.76797460194952       -0.66234563364964       -5.20942809318482
h           -0.46938918055131        0.78711858157370       -5.70289240930221
o           -0.98183269010829        5.48286640731554       -2.82539413086825
h           -1.23345233206382        5.24578444691137       -1.91106863919679
h           -0.70270330370530        6.41916516104864       -2.74889301646574
o           -2.91337102940607        0.21481443976996       -3.73435275743749
h           -3.81626708383814        0.44929321231590       -3.98101636225304
h           -2.85017356286949        0.39091351243206       -2.77452518198747
o            0.83936354382654       -2.45211790829993       -4.01169965890622
h            0.80206001528736       -3.40793100032234       -3.83635934047381
h            0.20386801548578       -2.04164273818246       -3.41384572857337
o            3.88838489914716        0.79511955703094        1.32538247013496
h            4.42822978666169        1.59740906269701        1.39988457612308
h            4.02079101356295        0.45439551534245        0.43148546346830
o            3.86528487979024       -1.77463459615482        2.00957983675690
h            4.00115628178431       -0.81189110207500        1.90063254246506
h            4.01792478122884       -2.15310414324151        1.13478717991779
o           -3.35873405468628        5.70789266183823       -3.98117389083833
h           -2.44277291016664        5.57947079505330       -3.64714499452840
h           -3.57014798767207        4.87639687378238       -4.44517938868957
o            2.08861201282474        0.05458421793566       -3.75806449683782
h            1.79605074326774        0.78213596123558       -3.18880150965227
h            1.36253089178844       -0.05060982700454       -4.39656233759998
o            5.48214836188223        3.03230362617172        1.29064027875832
h            6.24769132155770        2.56129473917082        1.67819980480133
h            5.28613562786798        3.76024016923576        1.88180694221141
o            8.80114114065579       -1.22110063730980        0.78731770685492
h            9.35286385726872       -1.95375656443632        0.51279421272468
h            8.23686334300817       -1.54000707162289        1.51695153666184
o           -5.03998941160480        1.39907040129851       -0.37258243773310
h           -5.94318283710916        1.08769300588721       -0.24531655404040
h           -5.06715755768381        2.37648973331626       -0.34600856829840
o            3.37364840780274        1.67984006214953       -1.43237934190790
h            3.09004770751468        2.44771937830783       -1.97923721177228
h            4.29337696347326        1.51428106440967       -1.68306564345022
o           -4.79547271009029       -2.81356549186561        4.59560024653377
h           -4.15027879014917       -3.23943082425532        3.99745049412823
h           -4.89159403357227       -1.90000782482285        4.23847046556694
o           -1.39392607877561       -2.14627836717484       -5.84815064002553
h           -2.21339797534741       -1.88571873874832       -6.30221863399865
h           -0.66340671715104       -2.16878173688697       -6.48474964486420
o           -6.93514831257746        3.48533571224078       -4.49787383310066
h           -7.08956751705061        3.16382385506993       -3.58952581867409
h           -7.30531911123407        2.81672911797212       -5.08103093859675
o            7.61951467718374       -3.09398419494907        4.96736952774223
h            7.25332430105768       -3.98777821102547        4.95704831729968
h            7.08589075199165       -2.57346147854191        5.58665612088655
o            5.39059807667635       -5.58985392298986       -4.12297759928250
h            6.13085208489776       -5.31919561560062       -4.66643071986222
h            4.59280167429354       -5.14502165015994       -4.49880906461383
o           -9.22567945186856       -2.89241222295048        0.38917109939395
h           -8.29399512420725       -2.70666129128386        0.15765395727322
h           -9.21084693274485       -3.22223980105002        1.29985133020340
o           -2.50081032538205        0.60299587715594       -1.05616492561211
h           -3.41949713344885        0.85533720844424       -0.86981381880147
h           -1.97666990041018        1.41879001916879       -0.87073815931528
o           -1.34984577986524       -6.17535867296851       -1.53298927697359
h           -1.78903413831888       -6.26933925724903       -0.68042062637265
h           -0.65239659797243       -6.86414131276528       -1.50617489346171
o            1.50900780339890       -1.88173124971865        3.31921085195339
h            2.36450761232794       -1.59972109778246        2.95120481949582
h            1.10329094383969       -1.08177418983642        3.71360401766289
o            6.75529672566338       -6.28299644478206       -0.60306632054944
h            6.71223814205812       -5.79654904461308        0.23662139184683
h            7.43575135993281       -5.84373645523530       -1.13030734703317
o            3.00888212934456        0.50828153254320        4.11432249458510
h            2.67596405613204        1.12425436119518        3.43283676341140
h            3.92895548378328        0.28200663703638        3.86665473486303
o           -6.68390705208668       -2.16068364193785        0.02179363187788
h           -6.23894873126869       -2.87126993501178        0.51503126851701
h           -6.01582674166944       -1.82501008408068       -0.61348115238278
o            5.89127480542456        1.30792942075426       -2.28619016679401
h            6.67775467495778        1.45241754854888       -2.85419257159623
h            6.22188277775203        0.87011070927395       -1.48187928431558
o           -1.46455895752242        2.50166388260285       -3.75453172876576
h           -1.89946978937277        1.68118250112466       -4.05009862664372
h           -2.03192788708376        2.83838206356349       -3.02277338245579
o            4.29385959982840       -4.32178174233760        0.49359389270567
h            5.17173925868119       -4.37416109247802        0.90210594090527
h            4.45869647433505       -4.25031298486824       -0.46764556631321
o            0.37434712236943       -1.74640137737412        6.43664114432724
h            0.38699595899585       -1.04250622907946        5.77151129753611
h           -0.23870672195348       -1.40400519424046        7.13294279662635
o            3.03429134478717       -0.79324603360505        6.59227792448769
h            2.16745314540999       -1.15495434164693        6.81217677998637
h            2.93218377046036       -0.33781087595866        5.74421807416843
o           -2.21198774957804       -1.06554040444217        3.83934274889715
h           -1.94542052550943       -1.99220853266881        4.00670306377004
h           -2.19436824741304       -0.92066632508319        2.87747386213660
o            0.85223641563217        2.14957866786855       -2.62727890044871
h           -0.01773856165413        2.21052360591407       -3.08934224107982
h            0.87011230517346        2.92039051895494       -2.04739027654926
o           -1.86266671608723        5.24037826411329       -0.32220219600726
h           -2.50873410714699        5.87889788267302        0.01881654635438
h           -1.27824042800867        5.02562175723772        0.43235978518692
o           -3.85787449237772       -4.05720241188492       -0.89765287591857
h           -3.48744670744481       -4.39732898352879       -1.73684629376029
h           -4.16935797607895       -4.84162403540814       -0.40198255310545
o           -4.99648011214136       -0.32430359481223        3.69337524463967
h           -5.77060353102029       -0.34354253912714        3.09430115071964
h           -5.18623211823644        0.30112657266211        4.41767829224077
o            7.95707560936598        3.69324460545139       -2.51293166395782
h            7.00216475665951        3.76840675097844       -2.34400540012997
h            8.28088894062365        3.20507811854245       -1.72688674978468
o           -3.34837863064729        1.43316843203508       -6.30451126758590
h           -3.52735976224218        0.48767687485460       -6.41363217286227
h           -2.45463594986585        1.58326984820880       -6.63797558984824
o           -6.98789107268405       -0.39394894995037        1.96547606634904
h           -7.81955682802448       -0.56512450356927        2.44938317055319
h           -6.91712961494908       -1.02129944364697        1.21183310876964
o            0.86607120194823        2.03961246617054        6.29295571775807
h            0.81908447210777        1.28099167265321        5.69354763536914
h            0.02209051655058        2.03618224448892        6.77390757793651
o           -6.97940669487125        2.85125535706886       -1.86814184547937
h           -7.46730159690589        3.67870867170040       -1.70987652486256
h           -7.40008684844148        2.17835256719902       -1.31317811286724
o           -3.56705312455947        1.04515877003325        1.83639549272465
h           -4.00331461298419        0.45143024121781        2.46835016649351
h           -4.12639256286527        1.02513718299052        1.04194834393131
o            5.59276120821994       -1.58475614437119        6.09456652746400
h            4.88680786241648       -1.20939048889639        6.64001088635914
h            5.11445247589634       -2.20779645176731        5.50548197501776
o            8.30811704249706        2.37015654640358       -0.26099673798554
h            7.68275301371677        1.62943233162608       -0.19642497467645
h            9.17683151510072        2.00911799289994        0.04673628226404
o           -8.24785114358862        3.37063096348279        3.65704262091051
h           -7.73018587411605        3.00874834655736        2.89945410219722
h           -8.99602907107480        3.82936652792238        3.27613096315027
o            1.92562447924611        0.96995589551060       -6.68632605866253
h            1.11185504494521        1.28362559430892       -7.10294094061010
h            2.11674804951455        1.62850081531265       -5.98501827922746
o           -3.18805950422105       -4.73948256968449        6.03334291394422
h           -4.00080249611755       -4.26418839028090        5.83905177146994
h           -2.46457726454380       -4.15100378508211        5.74114200825376
o            3.42220009829833        6.14794502691151       -0.04719841722086
h            4.29865115778383        6.34425150869892       -0.42796050539516
h            3.35105302259920        5.17946423666441        0.09474665200967
o           -5.54529286452383        0.68210206281659       -3.09307501843369
h           -5.75143566929891        1.53552665873835       -2.68865550845444
h           -5.13485682200323        0.14455249588872       -2.38141927375899
o           -6.32091652916380        4.64652037320944        5.17733821056165
h           -5.93914945078312        5.24599122889258        4.52074137477879
h           -7.14846439978665        4.32291095293282        4.78963895903114
o           -6.77742410521071        7.08710094227965       -0.80221425787268
h           -6.34265797524677        6.54268466018870       -1.48721886912025
h           -6.08853289302383        7.63179306794455       -0.41317021156747
o           -5.15138748126915        4.13284116346736       -0.11396669022674
h           -5.99004555056124        4.29306178710234        0.36614854812994
h           -5.33158297085121        4.37251401103090       -1.04380397675890
o            6.69243346659568        0.17793522419157        0.05179235279486
h            7.48301677934746       -0.39775628799754        0.10738259953715
h            6.62832101184389        0.53912076648177        0.96580004869572
o            3.87855315745933        6.36372915469188        2.62750336872773
h            4.80727038289564        6.09974682138356        2.72925601338761
h            3.70994969990170        6.38612540151389        1.66537679409132
o            5.08281146813178       -3.95813899627564       -2.03408164568400
h            4.57825345214335       -3.29532314366971       -2.52996467517708
h            5.32977830971881       -4.63972619263972       -2.69098195793869
o           -0.15858617318697        4.56263292819206        1.67141818813052
h            0.15541403788128        5.23314123098462        2.28801382182481
h           -0.48387160160770        3.81597049176551        2.19340882870185
o           -1.43176904896493       -0.57997733979157        7.93889988165205
h           -2.27001829799416       -0.90532944840598        7.57439801036985
h           -1.45256519473547        0.37455319494996        7.75872463556850
o           -3.90543248116567       -1.55257181935678        1.14768772042066
h           -3.02960168162247       -1.95318512278934        1.07630963484326
h           -4.50072641743591       -2.25005587234660        1.44142646826884
o            5.69119491448749       -2.56278102253295       -4.78323626112515
h            5.28205984334574       -2.68457368233291       -5.64925588247886
h            5.36776124149492       -1.69339505539182       -4.48133461103467
o           -5.51586136235461       -3.91917167619067        1.62631888761515
h           -6.08834547964134       -4.06335641581358        2.41091450442221
h           -4.61877523108334       -4.16914125139929        1.94624337083328
o            3.27474955967811       -2.24045530103701       -2.92913125314377
h            2.75410827518212       -1.55286938752959       -3.38173056715272
h            2.66765888130246       -2.58375259748694       -2.23048802156164
o            4.59824355798823        0.17746049973583       -6.88865951959026
h            3.70935823105685        0.53386139907000       -7.03303288619585
h            4.67601182097317        0.07388517424505       -5.91893129395911
o           -9.20002974754818        1.17533191785614       -3.07500319681041
h           -8.62644478606404        0.98822887731527       -2.31167319742982
h           -8.63289297696548        1.09616666370110       -3.87141678882141
o            7.80131717081652       -0.91013070896051       -2.24638905028666
h            7.85621513212339       -0.14810522825905       -2.84066369985132
h            7.93457313395381       -1.68929733217198       -2.83078394036832
o            6.88052902464455       -2.81583385565502       -0.49517264465926
h            6.15565899609629       -3.19659812572909       -1.03146140310385
h            7.16140655748577       -2.01429847631944       -0.95661138414864
o           -9.62549409067488       -3.33016148903746       -2.36397634807704
h          -10.06171058020379       -2.49983018627307       -2.59719450464008
h           -9.60128655502091       -3.33034026082063       -1.39683839260527
o            0.09567233552392        0.10297509864615        4.40465553344923
h            0.04763605728057        0.87121846237093        3.79751134347808
h           -0.78932760736829       -0.31576829330380        4.29075838241618
o            4.69802598353091       -0.10021943900206       -4.22252216874691
h            5.14355071869649        0.40119832167811       -3.51663119183727
h            3.73840779106176        0.02039701590766       -4.08701471051858
o            0.03365886797738        4.00436004228702        4.59637677566192
h            0.25714739354286        3.31645470890910        5.25032934098999
h            0.85421177444865        4.49762528242346        4.48154616151534
o            4.91008850825655        3.34584983538181       -4.31787325490030
h            3.95656304992172        3.16350376009949       -4.49163347097921
h            5.10608167287260        2.96678475865018       -3.45358180158664
o            2.25949723437073       -4.35882670650089        2.27974730219190
h            1.94285586964748       -3.49646341060830        2.57505938049377
h            2.97031593452274       -4.19775383264456        1.63752747557509
o           -7.85350443167518        0.54621984982312       -0.67795072020149
h           -8.70509592436687        0.31415519005339       -0.26226916876727
h           -7.61464729903557       -0.25118599689589       -1.19619588482063
o           -8.50979025308653        5.02058263200526       -1.67291238259193
h           -8.62839410638300        5.95665220915909       -1.82847045595986
h           -9.36905269706694        4.56650586373317       -1.79887185980602
o           -0.09564341442668        7.92722716073519       -2.25164265609898
h            0.74815504298855        7.96949619911345       -2.71512477279878
h            0.13345146471881        7.71204877409851       -1.32884327861392
o            7.16624552953673        1.33322849680720        2.34539035550150
h            8.06212179821986        0.98364861954023        2.52586014225829
h            6.59895297536869        1.00746410943035        3.07085698569499
o            9.84281197061290       -0.79270047005562       -4.35648955941780
h            9.34921215400755        0.03181220694881       -4.46391491815107
h           10.33859177051601       -0.69138198025569       -3.53114348569070
o            6.34099964240045        5.19979003347886        3.03796681034618
h            6.98530161992407        4.95313380286258        2.31008087577760
h            6.82812475320659        5.79674163299521        3.60641098430803
o            8.10210457211054        4.54637288920087        1.23956555989693
h            8.88748664424499        4.31537954083158        1.78777719023521
h            7.99666443889281        3.74316156242046        0.68071339434563
o            0.60140807180314       -7.81633439292361       -0.78751383573686
h            1.32358769010159       -7.20576065307083       -1.00961010803150
h            0.51975315537868       -7.79060743651041        0.17595951457505
o            6.90804497409169       -2.09024090617384        2.53270183612311
h            7.22831794027803       -2.45612295122831        3.38028089328765
h            6.65923982977511       -2.84584704657092        1.97784210480167
o            1.09550594516219       -7.33510860217012        1.98755377100076
h            1.96529902156533       -7.11676975332721        1.58798598197119
h            1.23796104084547       -8.11082218160186        2.52992890198058
o          -10.24134675863795       -0.49782537341328       -0.01198259448816
h           -9.92989150063371       -1.40907921816969        0.20661498273112
h          -10.61994340361300       -0.57215061951751       -0.90706048984547
o           -6.80470534097939       -4.40687253594310        3.88513475694878
h           -6.21832993218169       -3.76898331382467        4.34485203759732
h           -7.67058736644520       -3.98849271215948        3.75291502331559
o           -7.38971383130391       -5.53600322708575        0.43937309333635
h           -6.61508988727127       -5.03809150508053        0.75623235823923
h           -7.35635756479854       -6.38947061880366        0.87062942012534
o            0.98244979075097       -5.16501213980541       -3.77557245771371
h            0.16513171927952       -5.23376403392662       -4.31737467814692
h            1.73065986223421       -5.10023153741542       -4.38810934068425
o            6.74637867919070       -4.71406096084334        1.67178345139698
h            7.70870256480944       -4.58427563308414        1.66578922435296
h            6.51101406282739       -5.02039921412186        2.58471945809716
o           -3.80789672291445       -1.29226914020702       -6.72357133300678
h           -4.39989747429037       -1.56041059722994       -5.98110454289094
h           -4.26315250157698       -1.52736726229560       -7.53161694093883
o           -5.21865714242840       -6.67260386843551       -2.35241353065005
h           -5.04787784167294       -6.73496616354940       -1.40087109603129
h           -6.13868661207083       -6.40215998172645       -2.45504076282844
o            9.90036540467301       -2.28611362190101        3.66165471408235
h            9.79850134062369       -2.95806981255909        2.97158694590513
h            9.25368805416993       -2.51957246334165        4.34182376617828
o            3.64222909688484       -6.45818110252895        3.57775313696633
h            3.80024556702439       -6.88945607891671        2.72813919019111
h            3.10984023797807       -5.67735358717174        3.35890039407107
o           -4.42938096205513       -6.35841395378518        0.35316027073502
h           -3.50454983335809       -6.55896057077875        0.57679016798687
h           -4.89614054415021       -6.46906106031973        1.20177111890335
o           -4.62629341048611       -1.17371792920601       -1.37383365333982
h           -4.25134791327216       -1.16332517677002       -0.46581765878260
h           -4.01991465984405       -1.71934473578418       -1.90625091084378
o           -5.31031999592406       -6.59607399413584        2.90808131889683
h           -5.87761918279185       -5.98266164494645        3.39649348298350
h           -4.51706164342015       -6.73178495024464        3.43455665225172
o            8.57888209307642       -4.39907406476677       -1.68986370271957
h            7.94051006520265       -3.84975531223087       -1.15559640268699
h            8.49780758099824       -4.05767976094056       -2.59671812818411
o            6.21721202298550        2.85285931272016        4.58504478861311
h            6.15240217769821        3.68976996037375        4.10274686535925
h            5.40955090001798        2.74239481686845        5.10367714239604
o           -7.86211838207568        1.07028691540169        5.18646553291503
h           -6.97261174260134        1.11162521526654        5.57071918966481
h           -8.04192024499444        1.94229085570017        4.80460539374277
o           -2.94193004775633        3.55786026281211        1.58155356906827
h           -3.64850063600291        3.86994494425793        1.00278730826437
h           -3.18214407907009        2.63255806875889        1.81000076457323
o          -10.88896174205403       -0.79785871847691       -2.64350451294331
h          -10.27010973406960       -0.07386920794675       -2.91509884334560
h          -11.72847878906614       -0.61514626842844       -3.06359365596897
o           -9.16823106669856       -3.19540235784000        3.17266296244976
h           -9.17071574566808       -2.23378804555547        3.36924356781162
h           -9.95136513914160       -3.56383572135761        3.58056588680544
o          -10.48949308661560        3.24407576712436       -1.72090814333912
h          -10.14242197371572        2.56238657366955       -2.31623805840603
h          -10.13914141772020        3.03832378551322       -0.83810185584332
o            8.18961776529149       -2.92632403560421       -3.94741019607075
h            7.31774173158162       -2.83056825788836       -4.38831465136496
h            8.82533629341116       -2.33937708565940       -4.39445917329473
o           -2.42625408269937       -6.39053939330473        4.08195756588820
h           -1.46640555205141       -6.24922586191528        4.14107759060313
h           -2.77344608528799       -6.00712170877675        4.91695106661992
o           -0.66042718662773       -3.49063133124960       -1.77825748911841
h           -1.41496900532349       -3.05139463790034       -2.20287725712377
h           -0.82928272976157       -4.44502393370370       -1.80073964923276
o           -3.13947926382857        7.76250724951762       -1.99922738931750
h           -3.30615923566431        7.26710464427923       -2.81112425819217
h           -2.22502648506832        8.05906003480419       -2.04692743029201
o            3.03598283933040        4.05210811075706       -2.49582525654468
h            3.86754577068037        4.23684044241815       -2.03173574180130
h            2.29989631302258        4.47487044763456       -2.03029246443562
o            3.85502159664232       -2.46842536908671       -6.95486742964766
h            2.89082407639797       -2.30466601227983       -6.98976278061035
h            4.24865468532252       -1.59479950273922       -7.13531290000675
o           -1.88248579324875       -6.54290854656805        1.22961092632019
h           -1.98151937746064       -6.82806342371208        2.14142950662430
h           -1.04059936245628       -6.04504935355829        1.17697789300327
o            6.57071329408857        1.99386784711504       -6.03842859117214
h            6.03257557631518        1.36556257920724       -6.54372174029278
h            5.94519584482199        2.56687834095233       -5.56010355814994
o           10.58648620061714       -3.31806634975976       -0.48884609164651
h            9.87426231649513       -3.76257539461922       -1.04389476555034
h           11.42537210278744       -3.68195496119922       -0.77131560963934
o           -5.90442766600429       -3.41360070709594       -2.56612271152255
h           -6.52327463278996       -4.17482552447202       -2.52915299865263
h           -5.21449899261419       -3.57702370323408       -1.89594951859949
o           -7.38568981657716        5.14764706961642        0.97317340431190
h           -7.33109425784257        5.89274651808851        0.33628551970018
h           -8.16877817302469        4.63954965895600        0.72645270190183
o           -7.48228118581573        0.77572412023061       -5.10577117390169
h           -6.63869980188096        0.66021428584716       -4.64048412166940
h           -7.77235267400405       -0.10512075444737       -5.37725840171363
o           -3.57275711402999       -1.02777082854644        6.31298947109923
h           -3.07151734273390       -0.93771340020180        5.48721661861225
h           -4.13801284048747       -1.79575834169494        6.16688918185417
o          -10.77027270596577        1.06398023118712        2.04273132778134
h          -11.70853065361685        1.19896805716335        2.17210605327819
h          -10.66879885148037        0.47260123615340        1.26021540328090
o            1.10195099146404        5.20993138643806       -4.49710995447127
h            0.37450556665461        5.11677929528022       -3.85178822714216
h            1.70605170661730        5.84230459466792       -4.08126998815190
o           10.05003039848781        3.44149524580831        2.63036972666205
h           10.41280902813008        2.75991452174349        2.05363720516934