612
 energy: -1033.478899882897 gnorm: 0.000375201847 xtb: 6.5.1 (579679a)
H           -2.25422720900000       -0.06222905320000       -0.91218209300000
C           -1.30821395890000        0.27955552850000       -1.31736069640000
H           -1.17117907610000       -0.15355402480000       -2.30281127180000
C           -0.16891945910000       -0.15440348760000       -0.42416058570000
H            0.72274203010000        0.40041815310000       -0.68632270270000
H            0.00466193480000       -1.20954173500000       -0.57322200750000
O           -1.34681023580000        1.68622984860000       -1.47704183580000
H           -1.56730630550000        2.06459162660000       -0.59251944960000
N           -0.43300816760000        0.07581725320000        1.00532268480000
H           -0.63613323860000        1.07352721790000        1.18093057730000
H            0.42244985860000       -0.25281046250000        1.48953834110000
H           -1.27783842710000       -0.47164047470000        1.31001223720000
O            3.61691245820000        7.21886075350000        3.04876284830000
H            3.97034268510000        7.91410226270000        3.60215398520000
H            4.30846750660000        6.51708017040000        2.98055700630000
O            2.31348206220000        2.08036164000000       -4.41600229220000
H            1.73419062440000        2.34819177400000       -3.67525167860000
H            2.22388917630000        2.79746181280000       -5.07793784040000
O            8.40575418080000        3.75030079860000       -0.83360469360000
H            7.71844545900000        3.92059511860000       -1.49573931190000
H            8.01050863690000        3.96341422560000        0.02731187530000
O           -3.61729361260000        1.23375872910000        2.63399466210000
H           -3.43380588990000        1.60939554560000        3.50736824160000
H           -4.48664857560000        0.81607646090000        2.69108020190000
O           -4.58990185940000        4.50838688140000        0.46207342130000
H           -4.09488244450000        4.24846503870000        1.27032428380000
H           -5.52911255760000        4.58022145790000        0.73068061430000
O           -2.02314740960000       -4.16907535510000       -4.71467110070000
H           -1.21135255040000       -4.48999804270000       -5.11254063870000
H           -2.74140533750000       -4.72530033940000       -5.04888206940000
O            1.98140661850000        1.53362309400000        0.92617314530000
H            2.69331727840000        1.15811833210000        1.46745007530000
H            1.68296511790000        2.35611819360000        1.34998079610000
O            5.23714223350000        6.10776361050000        0.06255894220000
H            5.73864029700000        6.47729822500000        0.78801032230000
H            4.73198300320000        5.34454751520000        0.43615307160000
O            1.83214302620000       -1.32366731890000        1.51351029670000
H            1.81318051570000       -2.19404707730000        1.93520003970000
H            2.63118672820000       -0.87776241750000        1.81072314000000
O            0.93913786690000       -3.64716930100000       -3.55174884430000
H            1.84076090660000       -3.27184364980000       -3.54116040140000
H            0.81276625980000       -4.02543400300000       -4.44253352110000
O            3.25954756660000        3.96393147020000       -1.91826844630000
H            4.21529264270000        3.96547832300000       -2.09859898960000
H            2.94396161340000        3.02378807490000       -1.94481555610000
O            6.32516725580000        1.61180014220000       -1.86959228870000
H            6.10019900390000        1.95408151530000       -0.98460169320000
H            5.78628316130000        2.09592795980000       -2.52575675280000
O           -2.77829631260000       -1.14104659600000        1.49820506310000
H           -3.29389450740000       -0.37286680570000        1.18349312890000
H           -2.78721443500000       -1.77768414090000        0.76175501400000
O           -0.47445887950000        1.97718544010000        6.28449327820000
H           -0.68405135200000        1.59022212050000        5.41872003750000
H           -1.12375618700000        1.61954589510000        6.89837419110000
O           -0.87207686950000        3.29206206900000        3.47821056840000
H           -1.80882368810000        3.39553359000000        3.24344669760000
H           -0.72917397110000        3.84551087190000        4.26467330340000
O            3.89713457490000       -0.15090430570000       -4.51926156960000
H            3.13959286060000        0.45299585230000       -4.48134371130000
H            4.27366169730000       -0.13049963190000       -3.62110666060000
O           -2.20100313430000       -6.49113193250000        4.32727669600000
H           -2.96607502710000       -6.44303848250000        4.90601407600000
H           -2.09961036770000       -5.58848442250000        3.92752296190000
O            0.35869632910000       -5.65211553050000        1.39575865900000
H            1.17054424340000       -5.86553181260000        0.90569641040000
H           -0.08601291490000       -6.49827225460000        1.53582755300000
O            1.62534695210000       -1.15772977390000        4.31795438150000
H            0.95025026690000       -1.66682652130000        3.82721956240000
H            2.49115297270000       -1.44831340110000        3.97483275810000
O           -0.47678173430000       -1.10912438860000        6.30766317040000
H           -0.38429730770000       -2.04439111070000        6.06900358260000
H           -0.58497099150000       -0.63237253580000        5.45840633230000
O            3.56098486310000        3.12090235910000        3.17123284660000
H            4.33320686870000        2.56585395630000        3.37215990660000
H            2.78028905620000        2.58357724430000        3.37774259450000
O           -1.75401956350000        4.36746933080000       -1.78035461390000
H           -2.55560214980000        3.81484693930000       -1.81201648790000
H           -1.51801263530000        4.46252738960000       -0.85361421300000
O           -3.48118397330000        4.00032538780000        2.80105069800000
H           -3.42081084500000        4.93104116360000        3.08926465320000
H           -4.34519889760000        3.66034865510000        3.10398136670000
O           -2.42299554510000       -2.53980364580000       -0.73292232480000
H           -1.63814351500000       -2.93583239240000       -0.29473799430000
H           -2.11031368990000       -2.32357255220000       -1.63456329290000
O            1.84886226660000       -2.30758849450000       -1.11328047320000
H            2.22731178720000       -1.85371388450000       -0.34039704180000
H            2.48495004290000       -3.01364719740000       -1.31889758770000
O            8.24040398680000       -0.51402983730000       -2.41330699160000
H            8.22381441840000       -0.49637262380000       -3.39154180910000
H            7.39790915530000       -0.15200984830000       -2.11213881450000
O           -1.81017576530000        2.40157827260000        0.99525982570000
H           -2.56151798070000        2.04376639500000        1.50250183230000
H           -1.79809492960000        3.36473695410000        1.12251663380000
O            2.48879303140000        1.49835116510000       -1.64197840740000
H            2.29909416410000        1.54818016210000       -0.67867349820000
H            3.25580209070000        0.87918409530000       -1.73033921180000
O            2.25153360640000       -2.78583456310000        6.40765083950000
H            1.96349947520000       -2.15916814380000        5.70824783980000
H            1.45090578570000       -3.25542640050000        6.65472445260000
O           -2.31127948820000       -5.30100294720000        0.59677222100000
H           -3.19893393790000       -4.88408914290000        0.49069260880000
H           -2.44960066000000       -6.19112266950000        0.97059465880000
O           -0.87903428120000       -2.15423367270000       -6.50664714550000
H           -1.69058478550000       -2.66673760470000       -6.61767921160000
H           -0.92062472440000       -1.44107824620000       -7.19843380800000
O            2.83771289340000        6.81839051780000       -1.10596912880000
H            3.75514853790000        6.68401681480000       -0.81958464720000
H            2.81242812080000        6.75249876680000       -2.07088523700000
O           -3.05186057260000        3.26278869950000       -6.02986451660000
H           -3.20191114470000        2.31471293930000       -6.16126974870000
H           -2.11760450080000        3.32654434250000       -5.77229071700000
O            8.08292108540000       -4.18348050730000       -4.02630781000000
H            7.57425188160000       -3.57538987630000       -4.58210734870000
H            8.99994818970000       -3.86405328080000       -4.02852671090000
O           -1.95926829160000       -5.03107394140000       -2.04731516510000
H           -1.99001589240000       -5.19964639670000       -1.07997316280000
H           -1.07110853710000       -4.72509365610000       -2.24513919810000
O           -8.99560400510000       -1.68758193390000        1.90042223380000
H           -9.77838291700000       -1.67433383120000        1.32574665160000
H           -8.49030645770000       -2.48487576820000        1.65462913240000
O           -7.48952458390000       -3.59145545440000        0.76357593460000
H           -7.22672761410000       -4.52287540320000        0.60523893240000
H           -6.65806872640000       -3.07266267150000        0.80797086040000
O           -0.47567855850000       -2.06574839440000        2.87845342320000
H           -0.27161663780000       -2.38667052240000        1.97889698220000
H           -0.98860781570000       -2.79985560810000        3.25826555590000
O            0.53924821380000        3.16080063810000       -2.70910481370000
H            0.70292324010000        3.83530241170000       -2.02941494660000
H           -0.10755550920000        2.56277704700000       -2.29140738170000
O           -0.42676018440000        6.11996557080000       -3.27307027960000
H           -0.41010007540000        6.78455814050000       -2.57242156110000
H           -0.84101949990000        5.33723739430000       -2.85138781250000
O           -6.15302609300000        0.10068183890000        2.86949117350000
H           -6.52518797310000       -0.44099872660000        3.58566007820000
H           -6.92894321120000        0.58815271200000        2.52438482640000
O            8.78877612200000        2.68286337200000        5.22462034030000
H            9.22188416110000        3.06200753870000        4.44467605340000
H            8.88225394460000        1.72259747370000        5.10987306640000
O           -4.77019932820000       -6.21800490780000       -1.68628055510000
H           -3.99971860360000       -6.78760601140000       -1.48798034050000
H           -5.01484293720000       -6.36365271930000       -2.60154709030000
O            3.73724276910000        4.02875558070000        0.64399567470000
H            3.35674435730000        4.03112651660000       -0.26469270410000
H            3.01580009430000        3.94785384280000        1.28049464610000
O            5.72231360000000       -2.51507290800000       -2.42547820430000
H            6.05754071540000       -1.95936055440000       -1.70771676030000
H            5.96799693320000       -3.42947464150000       -2.20793198140000
O            0.61037806660000       -6.03634627580000        4.32459905060000
H            1.15471212830000       -6.64162104300000        3.78995735330000
H           -0.25105462970000       -6.45856358680000        4.41183964170000
O           -4.82231763390000       -5.45601240200000        5.07038171510000
H           -5.01289219240000       -5.82258792290000        4.18504379470000
H           -5.52262766730000       -4.80850784580000        5.22719841730000
O            3.67757913540000       -4.29819310690000       -1.19879466130000
H            3.89870210750000       -4.18727801820000       -0.26040432740000
H            4.43456770220000       -4.71948748610000       -1.61570214460000
O            1.87451523540000        4.24533205290000       -5.92966787180000
H            1.95587868740000        4.89780612040000       -5.20437988340000
H            0.93062126330000        4.07230340790000       -6.03682239060000
O            5.54742040160000        2.05721833710000        0.68925674570000
H            4.79432806110000        2.68425085910000        0.66929695520000
H            6.27034773430000        2.59007502200000        1.06779357830000
O            1.60793913510000       -1.36220395400000       -5.63856050540000
H            0.78988231520000       -1.81392971820000       -5.88377179280000
H            1.54400335930000       -1.13982332800000       -4.68664138300000
O           -1.25325313180000       -2.14775341450000       -3.12428076530000
H           -1.70376780760000       -2.68184624640000       -3.79473682390000
H           -0.36015684670000       -2.53254472830000       -3.10120263590000
O            0.50453372310000       -4.51710690210000       -6.06490746120000
H            0.09789758270000       -3.73622195230000       -6.47213933690000
H            1.40375708360000       -4.59004549320000       -6.47660982760000
O            2.11445345610000        3.41629337380000        5.73383592880000
H            1.81401593010000        2.67054393560000        5.18207787170000
H            2.12663530370000        4.17694680590000        5.12945323820000
O           -1.09024068660000       -0.05644643420000       -8.02467228850000
H           -0.29593494120000        0.46717783640000       -7.82378365160000
H           -1.84229642460000        0.34926943980000       -7.56315269070000
O            4.39095207630000       -0.19660315380000       -1.91049292500000
H            4.30283854160000       -0.81787599720000       -1.14330346570000
H            5.22398263860000        0.29221583670000       -1.78593013900000
O           -3.46139079220000        2.07773929130000        5.23035063960000
H           -4.41201718990000        1.99450364620000        5.37001207510000
H           -3.05451743350000        1.50459127980000        5.91243895960000
O            4.58150518280000        2.75410543950000        6.41096409920000
H            3.67919772650000        3.11250606920000        6.24376236470000
H            4.49341711790000        2.19100051090000        7.20448252630000
O            1.30291782120000       -0.54396027190000       -3.09806267680000
H            1.49393300040000       -1.24588993550000       -2.44220240270000
H            1.65384919540000        0.27494114050000       -2.71226117090000
O           -3.29808680510000       -3.51578042780000       -7.17443496870000
H           -3.59070940430000       -4.38261093180000       -6.84218991940000
H           -3.63152704980000       -3.41798403370000       -8.06569393730000
O           -0.74982506750000        0.15084164840000       -4.80129992730000
H           -0.11936572680000       -0.10967577960000       -4.10697896500000
H           -1.00102046480000       -0.66371242660000       -5.25995459920000
O           -0.03495348500000       -7.52050743580000       -1.34502229930000
H            0.28116385340000       -7.86393715870000       -2.18257002410000
H            0.33206008310000       -6.59551434130000       -1.30237651600000
O            8.41942058310000       -4.36475436460000        1.80623727610000
H            7.52634337960000       -4.56278114840000        2.13354134900000
H            8.95606341890000       -4.27986022360000        2.62333341800000
O            2.82879798300000       -6.44020532550000        0.59950664610000
H            3.41978805860000       -6.83739642280000       -0.06935504330000
H            3.32458726130000       -5.68160127580000        0.98133061660000
O           -5.97151936840000        3.00772814580000        3.10138730600000
H           -5.98191130480000        2.27884797890000        3.74158981680000
H           -6.03287750940000        2.62003507140000        2.20281118750000
O            7.29589169070000        3.85755829970000        1.64187923960000
H            6.67598272770000        4.41992967850000        2.13811209510000
H            8.10753142590000        3.74109888550000        2.16836381410000
O            8.50528058510000        2.28146854440000       -3.41660585660000
H            8.13481824970000        2.22270176230000       -4.30521485830000
H            7.78435490380000        2.03751886730000       -2.81355356530000
O           11.24029413200000        3.13744512640000       -0.98958701820000
H           11.25349086340000        2.71988899460000       -0.11316545820000
H           10.36047280250000        3.52400138810000       -1.09162721030000
O           -4.03947576010000        0.62671903600000       -0.08574681720000
H           -4.77729656100000        1.11849689930000        0.33638378310000
H           -4.44010873430000       -0.04267584080000       -0.66693742080000
O            4.47333293210000        3.66507707310000       -6.73926560810000
H            4.42493118860000        2.70275662680000       -6.91229016140000
H            3.55904882970000        3.96733962360000       -6.80383420480000
O           -1.06165702750000        0.27147164150000        4.04425291930000
H           -0.77714699010000       -0.50698454220000        3.52836953870000
H           -2.02532413160000        0.16499880710000        4.07248624790000
O           -7.60269712710000       -0.19135340200000       -0.00926561470000
H           -8.05115559780000       -0.61074711540000        0.74312948660000
H           -8.29073364840000        0.04182223920000       -0.64501843360000
O           -8.14287795920000        1.94388142590000       -5.29950173330000
H           -7.73393518140000        2.00899250740000       -4.40663091990000
H           -8.72236584290000        1.16483806810000       -5.23098355400000
O            5.95813301220000       -6.08346613790000        1.06559588480000
H            5.50922407760000       -6.31889001110000        1.89351118820000
H            5.71654845910000       -6.75011196410000        0.41796678010000
O            6.24991452630000       -3.47851896080000        0.21338479150000
H            6.16669004410000       -4.40720313630000        0.48796034250000
H            7.05928816890000       -3.39718264890000       -0.32917327100000
O           -6.25402268750000        1.74003178000000        5.51429921480000
H           -7.18877932090000        1.50026634200000        5.57366407770000
H           -6.22081767490000        2.69710303780000        5.76101844060000
O            1.73077641550000        5.43939665860000        3.94677426230000
H            1.66347925020000        4.83596814510000        3.17494881900000
H            2.39140359240000        6.10719284620000        3.70528071520000
O           -6.51302013620000        5.88470231880000        3.61912111190000
H           -6.69387907400000        5.40712234430000        2.79130782530000
H           -6.06373744710000        6.69058379090000        3.35771931790000
O           -1.52839962220000        5.07113538370000        0.98577805780000
H           -1.14295079420000        5.56102932480000        1.73664374670000
H           -2.21407114320000        5.64237626780000        0.61311496480000
O           -0.44793555490000        6.63323478670000        2.88165490960000
H            0.17694673300000        6.18036920120000        3.47975833100000
H            0.12322295500000        7.13514682930000        2.27548898410000
O            1.67213988090000       -3.78484723270000        2.84986581250000
H            2.00403278970000       -4.18924621540000        3.66694118960000
H            1.06293006890000       -4.44339592670000        2.47071501930000
O            6.25220867110000       -1.82050979050000        2.33268112100000
H            6.86862838090000       -1.07270796890000        2.28699847510000
H            6.35985354500000       -2.34881060360000        1.51545865090000
O           -3.86623413310000       -1.84732209420000       -5.05133459620000
H           -3.59093568340000       -2.44588985560000       -5.76233433100000
H           -4.84707238220000       -1.86338286850000       -5.07263009380000
O           -8.46589616270000        1.35053579680000        2.27531200040000
H           -8.57628520260000        1.73418165540000        1.37141458620000
H           -8.54140011050000        2.10556175130000        2.86791768300000
O            4.08381925140000        0.98348928720000       -7.02438472660000
H            3.12280120080000        1.02378898420000       -7.17774376240000
H            4.19735957690000        0.60426717090000       -6.13639197060000
O           -4.50695186220000        4.02913699170000       -3.96006785290000
H           -3.98325063820000        3.71604910270000       -4.73911060820000
H           -4.30291315080000        3.42295646120000       -3.22693047450000
O            7.21804716950000       -2.32891228160000        5.11163983730000
H            6.48220135740000       -2.07821393940000        5.68598025150000
H            7.70091468210000       -1.51268253840000        4.91752111240000
O            4.76358545140000       -1.57611813260000        6.34656874030000
H            4.55233597050000       -0.70344312220000        5.94860294680000
H            3.92794084340000       -1.98601902550000        6.61151404040000
O            0.19067303480000       -6.76421939210000       -4.31769224610000
H           -0.76518963990000       -6.91302794380000       -4.22919348660000
H            0.30810277350000       -6.18764303960000       -5.08063891070000
O            4.84381376280000        2.57357365530000       -3.84432607160000
H            4.92148355050000        3.51692301890000       -4.07959751320000
H            3.91321212540000        2.32084086040000       -4.04167228530000
O            6.29139064960000       -5.25591977610000       -2.12244268190000
H            6.74602532050000       -5.25687252010000       -2.97270110340000
H            7.00930357880000       -5.45656464500000       -1.46942559390000
O            3.82011900030000        0.56393039700000        4.98919345310000
H            4.21090312900000        1.35989244660000        5.39720917870000
H            2.96476451700000        0.44383685310000        5.44419863890000
O           -0.17792427540000       -3.24594385630000        0.43572505260000
H            0.57558526060000       -3.08621769070000       -0.16539080460000
H           -0.13190284220000       -4.19335591400000        0.66158087500000
O            4.04216649790000        0.28994587310000        2.24491904850000
H            4.02797459300000        0.35079224290000        3.21861877270000
H            4.73539052640000        0.88425500490000        1.91690821780000
O           12.24833054080000       -0.72033586160000        0.97360784490000
H           13.15584831760000       -0.68612345090000        0.67340877980000
H           11.70842973300000       -1.01302601820000        0.20493355940000
O           -6.06379381010000       -2.94666524410000        5.00064377450000
H           -6.92160418120000       -2.55637989790000        4.78556024930000
H           -5.63141525300000       -2.26596286880000        5.54955427440000
O           -3.02381454250000       -3.52103661150000        5.60163713300000
H           -3.28792872170000       -3.23650163920000        6.47635857140000
H           -3.63229614170000       -4.24956925080000        5.35136090760000
O          -10.32066366790000        2.66466623370000       -3.32925879310000
H           -9.79018915730000        3.42782855240000       -2.98006716070000
H          -10.04998343500000        2.54708623870000       -4.24434618530000
O           -4.04983049310000       -3.41606910340000       -2.84698261870000
H           -3.27841618420000       -3.96646321640000       -2.60805658740000
H           -3.78426271080000       -2.87755551530000       -3.61967187420000
O           -3.18623324160000        4.76847380680000        5.73129736360000
H           -3.23587476880000        3.83182536170000        5.45414822590000
H           -2.26916689060000        4.88932684590000        6.01322491990000
O          -10.30496639200000        4.13419166240000        1.61968965770000
H           -9.72960222850000        4.17278914670000        2.39597460180000
H          -10.18578182870000        4.97125573460000        1.13165086860000
O           -5.10199627410000       -1.21897924840000       -1.72992183810000
H           -4.95122645930000       -0.63094846660000       -2.50594567980000
H           -4.68301742320000       -2.06832930400000       -1.97276470180000
O           -6.63154055540000        3.80175103900000       -1.30221586210000
H           -6.18530501780000        4.57900553960000       -1.67333754360000
H           -6.64782323780000        3.09948000980000       -1.98288068330000
O           -2.61583129340000        0.33929846040000        7.10467614770000
H           -3.45859321330000       -0.13849504200000        7.02630441210000
H           -1.90867566960000       -0.31635761620000        6.94570270040000
O            6.13126085200000       -4.27834982620000        3.40060533890000
H            6.41490285240000       -4.45702264070000        4.29687899630000
H            6.31514056460000       -3.32724128990000        3.26536376050000
O            6.61342268700000       -0.72826723650000       -0.29486984800000
H            6.41998195610000        0.09527789520000        0.15817788650000
H            7.42740644630000       -1.08250830070000        0.10529912890000
O           -4.56381263200000       -3.52737120770000        2.78254579090000
H           -4.80425513550000       -2.94218554200000        2.04197672090000
H           -5.11085615730000       -3.27219614950000        3.54871522840000
O            1.48785118080000        7.64645444590000        1.20981324970000
H            2.22702514530000        7.61735494680000        1.83123235210000
H            1.87850530330000        7.43984690100000        0.34716042860000
O           -4.05778342680000       -5.73151566080000       -5.71203057770000
H           -3.63164787140000       -6.42517778520000       -5.18325055560000
H           -4.85950480090000       -5.46201656910000       -5.22392364050000
O           -9.52609703680000        0.66030449280000       -1.80932991960000
H           -9.85315579900000        1.33519450570000       -2.45087577470000
H          -10.20308012240000       -0.01574975350000       -1.76335324030000
O           -9.02303821030000        1.42713385580000        5.22861326950000
H           -9.84227022320000        1.10083365000000        4.82069993050000
H           -8.93938771370000        2.34316870280000        4.91410359490000
O           -7.99351738420000       -1.11611848050000        4.39405636880000
H           -8.39139559940000       -0.33105043590000        4.79470533220000
H           -8.46363107300000       -1.28495929660000        3.56047209540000
O           -4.53699548210000       -4.05328542340000       -0.03004410940000
H           -3.93003116390000       -3.37594570750000       -0.37983682450000
H           -4.74970520040000       -4.63206629990000       -0.77388859260000
O           -5.97684296270000       -4.72880281400000       -4.09593641810000
H           -6.72010470150000       -4.98330211510000       -3.51439831690000
H           -5.31278611340000       -4.28404570850000       -3.51811533670000
O           10.70030425540000       -0.76803350820000       -4.64673535330000
H            9.80131682340000       -0.61973979370000       -4.98169203520000
H           10.84191969120000       -0.09202373060000       -3.96083983760000
O            1.00963353520000       -5.12399010810000       -1.34930718410000
H            0.98344615580000       -4.66305251020000       -2.21105257130000
H            1.95617413600000       -5.25206876250000       -1.18780674190000
O           -2.02937636040000       -4.20815670440000        3.03422235890000
H           -1.85186038710000       -4.54311486830000        2.13313454520000
H           -2.94989832010000       -3.87436232160000        2.99941150080000
O           10.85211713110000        1.61661876850000        1.30234384600000
H           10.08012805160000        1.33028480640000        0.75996171960000
H           11.42743316560000        0.83610567620000        1.35912166570000
O           -2.70058129440000       -7.85906887910000       -1.09616001530000
H           -2.85749609250000       -8.20485869630000       -0.21544520890000
H           -1.73532256560000       -7.67827947660000       -1.15305574160000
O           -6.10717596120000        0.33581945550000       -6.14835894210000
H           -6.83385922990000        0.97850561040000       -6.01572549260000
H           -6.48375903930000       -0.54862160690000       -6.06296574410000
O            0.88629905970000        4.99822264270000       -0.61881977730000
H            1.70636482280000        5.49568269190000       -0.78316784170000
H            0.19264729770000        5.68097989610000       -0.61775693330000
O            4.16445027390000       -1.69761685170000        0.20080243150000
H            4.40324191280000       -1.13384497500000        0.94512642450000
H            4.83397908040000       -2.40100370380000        0.16361239000000
O            1.11780856600000        3.92067702670000        1.81495776660000
H            0.29343158570000        3.67737915390000        2.29095461350000
H            0.86181080170000        4.33092568420000        0.96037233390000
O            1.29945360990000        0.96168510790000       -6.98584687310000
H            1.38353216510000        0.13454283550000       -6.46519822730000