      -----------------------------------------------------------      
     |                   =====================                   |     
     |                           x T B                           |     
     |                   =====================                   |     
     |                         S. Grimme                         |     
     |          Mulliken Center for Theoretical Chemistry        |     
     |                    University of Bonn                     |     
      -----------------------------------------------------------      

   * xtb version 6.5.1 (579679a) compiled by 'ehlert@majestix' on 2022-07-11

   xtb is free software: you can redistribute it and/or modify it under
   the terms of the GNU Lesser General Public License as published by
   the Free Software Foundation, either version 3 of the License, or
   (at your option) any later version.
   
   xtb is distributed in the hope that it will be useful,
   but WITHOUT ANY WARRANTY; without even the implied warranty of
   MERCHANTABILITY or FITNESS FOR A PARTICULAR PURPOSE.  See the
   GNU Lesser General Public License for more details.
   
   Cite this work as:
   * C. Bannwarth, E. Caldeweyher, S. Ehlert, A. Hansen, P. Pracht,
     J. Seibert, S. Spicher, S. Grimme, WIREs Comput. Mol. Sci., 2020, 11,
     e01493. DOI: 10.1002/wcms.1493
   
   for GFN2-xTB:
   * C. Bannwarth, S. Ehlert and S. Grimme., J. Chem. Theory Comput., 2019,
     15, 1652-1671. DOI: 10.1021/acs.jctc.8b01176
   for GFN1-xTB:
   * S. Grimme, C. Bannwarth, P. Shushkov, J. Chem. Theory Comput., 2017,
     13, 1989-2009. DOI: 10.1021/acs.jctc.7b00118
   for GFN0-xTB:
   * P. Pracht, E. Caldeweyher, S. Ehlert, S. Grimme, ChemRxiv, 2019, preprint.
     DOI: 10.26434/chemrxiv.8326202.v1
   for GFN-FF:
   * S. Spicher and S. Grimme, Angew. Chem. Int. Ed., 2020, 59, 15665-15673.
     DOI: 10.1002/anie.202004239
   
   for ALPB and GBSA implicit solvation:
   * S. Ehlert, M. Stahn, S. Spicher, S. Grimme, J. Chem. Theory Comput.,
     2021, 17, 4250-4261. DOI: 10.1021/acs.jctc.1c00471
   
   for DFT-D4:
   * E. Caldeweyher, C. Bannwarth and S. Grimme, J. Chem. Phys., 2017,
     147, 034112. DOI: 10.1063/1.4993215
   * E. Caldeweyher, S. Ehlert, A. Hansen, H. Neugebauer, S. Spicher,
     C. Bannwarth and S. Grimme, J. Chem. Phys., 2019, 150, 154122.
     DOI: 10.1063/1.5090222
   * E. Caldeweyher, J.-M. Mewes, S. Ehlert and S. Grimme, Phys. Chem. Chem. Phys.
     2020, 22, 8499-8512. DOI: 10.1039/D0CP00502A
   
   for sTDA-xTB:
   * S. Grimme and C. Bannwarth, J. Chem. Phys., 2016, 145, 054103.
     DOI: 10.1063/1.4959605
   
   in the mass-spec context:
   * V. Asgeirsson, C. Bauer and S. Grimme, Chem. Sci., 2017, 8, 4879.
     DOI: 10.1039/c7sc00601b
   * J. Koopman and S. Grimme, ACS Omega 2019, 4, 12, 15120-15133.
     DOI: 10.1021/acsomega.9b02011
   
   for metadynamics refer to:
   * S. Grimme, J. Chem. Theory Comput., 2019, 155, 2847-2862
     DOI: 10.1021/acs.jctc.9b00143
   
   for SPH calculations refer to:
   * S. Spicher and S. Grimme, J. Chem. Theory Comput., 2021, 17, 1701-1714
     DOI: 10.1021/acs.jctc.0c01306
   
   with help from (in alphabetical order)
   P. Atkinson, C. Bannwarth, F. Bohle, G. Brandenburg, E. Caldeweyher
   M. Checinski, S. Dohm, S. Ehlert, S. Ehrlich, I. Gerasimov, C. Hölzer
   A. Katbashev, J. Koopman, C. Lavigne, S. Lehtola, F. März, M. Müller,
   F. Musil, H. Neugebauer, J. Pisarek, C. Plett, P. Pracht, F. Pultar,
   J. Seibert, P. Shushkov, S. Spicher, M. Stahn, M. Steiner, T. Strunk,
   J. Stückrath, T. Rose, and J. Unsleber
   
 * started run on 2022/11/24 at 12:04:44.000     

           -------------------------------------------------
          |                Calculation Setup                |
           -------------------------------------------------

          program call               : xtb solvent_cluster.coord --gfn2 --input xcontrol --opt 1
          hostname                   : cn0430
          coordinate file            : solvent_cluster.coord
          omp threads                :                     2

   ID    Z sym.   atoms
    1    8 o      1, 4, 7, 10, 13, 16, 19, 22, 25, 28, 31, 34, 37, 40, 43,
                  46, 49, 52, 55, 58, 61, 64, 67, 70, 73, 76, 79, 82, 85, 88,
                  91, 94, 97, 100, 103, 106, 109, 112, 115, 118, 121, 124,
                  127, 130, 133, 136, 139, 142, 145, 148, 151, 154, 157, 160,
                  163, 166, 169, 172, 175, 178, 181, 184, 187, 190, 193, 196,
                  199, 202, 205, 208, 211, 214, 217, 220, 223, 226, 229, 232,
                  235, 238, 241, 244, 247, 250, 253, 256, 259, 262, 265, 268,
                  271, 274, 277, 280, 283, 286, 289, 292, 295, 298, 301, 304,
                  307, 310, 313, 316, 319, 322, 325, 328, 331, 334, 337, 340,
                  343, 346, 349, 352, 355, 358, 361, 364, 367, 370, 373, 376,
                  379, 382, 385, 388, 391, 394, 397, 400, 403, 406, 409, 412,
                  415, 418, 421, 424, 427, 430, 433, 436, 439, 442, 445, 448,
                  451, 454, 457, 460, 463, 466, 469, 472, 475, 478, 481, 484,
                  487, 490, 493, 496, 499, 502, 505, 508, 511, 514, 517, 520,
                  523, 526, 529, 532, 535, 538, 541, 544, 547, 550, 553, 556,
                  559, 562, 565, 568, 571, 574, 577, 580, 583, 586, 589, 592,
                  595, 598, 601, 604, 607, 610, 613, 616, 619, 622, 625, 628,
                  631, 634, 637, 640, 643, 646, 649, 652, 655, 658, 661, 664,
                  667, 670, 673, 676, 679, 682, 685, 688, 691, 694, 697, 700,
                  703, 706, 709, 712, 715, 718, 721, 724, 727, 730, 733, 736,
                  739, 742, 745, 748, 751, 754
    2    1 h      2, 3, 5, 6, 8, 9, 11, 12, 14, 15, 17, 18, 20, 21, 23, 24,
                  26, 27, 29, 30, 32, 33, 35, 36, 38, 39, 41, 42, 44, 45, 47,
                  48, 50, 51, 53, 54, 56, 57, 59, 60, 62, 63, 65, 66, 68, 69,
                  71, 72, 74, 75, 77, 78, 80, 81, 83, 84, 86, 87, 89, 90, 92,
                  93, 95, 96, 98, 99, 101, 102, 104, 105, 107, 108, 110, 111,
                  113, 114, 116, 117, 119, 120, 122, 123, 125, 126, 128, 129,
                  131, 132, 134, 135, 137, 138, 140, 141, 143, 144, 146, 147,
                  149, 150, 152, 153, 155, 156, 158, 159, 161, 162, 164, 165,
                  167, 168, 170, 171, 173, 174, 176, 177, 179, 180, 182, 183,
                  185, 186, 188, 189, 191, 192, 194, 195, 197, 198, 200, 201,
                  203, 204, 206, 207, 209, 210, 212, 213, 215, 216, 218, 219,
                  221, 222, 224, 225, 227, 228, 230, 231, 233, 234, 236, 237,
                  239, 240, 242, 243, 245, 246, 248, 249, 251, 252, 254, 255,
                  257, 258, 260, 261, 263, 264, 266, 267, 269, 270, 272, 273,
                  275, 276, 278, 279, 281, 282, 284, 285, 287, 288, 290, 291,
                  293, 294, 296, 297, 299, 300, 302, 303, 305, 306, 308, 309,
                  311, 312, 314, 315, 317, 318, 320, 321, 323, 324, 326, 327,
                  329, 330, 332, 333, 335, 336, 338, 339, 341, 342, 344, 345,
                  347, 348, 350, 351, 353, 354, 356, 357, 359, 360, 362, 363,
                  365, 366, 368, 369, 371, 372, 374, 375, 377, 378, 380, 381,
                  383, 384, 386, 387, 389, 390, 392, 393, 395, 396, 398, 399,
                  401, 402, 404, 405, 407, 408, 410, 411, 413, 414, 416, 417,
                  419, 420, 422, 423, 425, 426, 428, 429, 431, 432, 434, 435,
                  437, 438, 440, 441, 443, 444, 446, 447, 449, 450, 452, 453,
                  455, 456, 458, 459, 461, 462, 464, 465, 467, 468, 470, 471,
                  473, 474, 476, 477, 479, 480, 482, 483, 485, 486, 488, 489,
                  491, 492, 494, 495, 497, 498, 500, 501, 503, 504, 506, 507,
                  509, 510, 512, 513, 515, 516, 518, 519, 521, 522, 524, 525,
                  527, 528, 530, 531, 533, 534, 536, 537, 539, 540, 542, 543,
                  545, 546, 548, 549, 551, 552, 554, 555, 557, 558, 560, 561,
                  563, 564, 566, 567, 569, 570, 572, 573, 575, 576, 578, 579,
                  581, 582, 584, 585, 587, 588, 590, 591, 593, 594, 596, 597,
                  599, 600, 602, 603, 605, 606, 608, 609, 611, 612, 614, 615,
                  617, 618, 620, 621, 623, 624, 626, 627, 629, 630, 632, 633,
                  635, 636, 638, 639, 641, 642, 644, 645, 647, 648, 650, 651,
                  653, 654, 656, 657, 659, 660, 662, 663, 665, 666, 668, 669,
                  671, 672, 674, 675, 677, 678, 680, 681, 683, 684, 686, 687,
                  689, 690, 692, 693, 695, 696, 698, 699, 701, 702, 704, 705,
                  707, 708, 710, 711, 713, 714, 716, 717, 719, 720, 722, 723,
                  725, 726, 728, 729, 731, 732, 734, 735, 737, 738, 740, 741,
                  743, 744, 746, 747, 749, 750, 752, 753, 755, 756

molecular fragmentation (1/2 indicates fragments):
111222222222222222222222222222222222222222222222222222222222222222222222
222222222222222222222222222222222222222222222222222222222222222222222222
222222222222222222222222222222222222222222222222222222222222222222222222
222222222222222222222222222222222222222222222222222222222222222222222222
222222222222222222222222222222222222222222222222222222222222222222222222
222222222222222222222222222222222222222222222222222222222222222222222222
222222222222222222222222222222222222222222222222222222222222222222222222
222222222222222222222222222222222222222222222222222222222222222222222222
222222222222222222222222222222222222222222222222222222222222222222222222
222222222222222222222222222222222222222222222222222222222222222222222222
222222222222222222222222222222222222
# atoms in fragment 1/2:     3   753
 fragment masses (1/2) :       18.02     4521.84
CMA distance (Bohr)    :  18.430
constraining FC (au)   :  0.0500

           -------------------------------------------------
          |                 G F N 2 - x T B                 |
           -------------------------------------------------

        Reference                      10.1021/acs.jctc.8b01176
      * Hamiltonian:
        H0-scaling (s, p, d)           1.850000    2.230000    2.230000
        zeta-weighting                 0.500000
      * Dispersion:
        s8                             2.700000
        a1                             0.520000
        a2                             5.000000
        s9                             5.000000
      * Repulsion:
        kExp                           1.500000    1.000000
        rExp                           1.000000
      * Coulomb:
        alpha                          2.000000
        third order                    shell-resolved
        anisotropic                    true
        a3                             3.000000
        a5                             4.000000
        cn-shift                       1.200000
        cn-exp                         4.000000
        max-rad                        5.000000


          ...................................................
          :                      SETUP                      :
          :.................................................:
          :  # basis functions                1512          :
          :  # atomic orbitals                1512          :
          :  # shells                         1008          :
          :  # electrons                      2016          :
          :  max. iterations                   250          :
          :  Hamiltonian                  GFN2-xTB          :
          :  restarted?                      false          :
          :  GBSA solvation                  false          :
          :  PC potential                    false          :
          :  electronic temp.          300.0000000     K    :
          :  accuracy                    1.0000000          :
          :  -> integral cutoff          0.2500000E+02      :
          :  -> integral neglect         0.1000000E-07      :
          :  -> SCF convergence          0.1000000E-05 Eh   :
          :  -> wf. convergence          0.1000000E-03 e    :
          :  Broyden damping             0.4000000          :
          ...................................................

 iter      E             dE          RMSdq      gap      omega  full diag
   1  -1291.0185540 -0.129102E+04  0.407E+00    8.25       0.0  T
   2  -1291.0949210 -0.763670E-01  0.242E+00    7.46       1.0  T
   3  -1291.1265842 -0.316632E-01  0.210E-01    6.31       1.0  T
   4  -1291.1319020 -0.531779E-02  0.456E-02    6.68       1.0  T
   5  -1291.1319787 -0.767295E-04  0.308E-02    6.62       1.0  T
   6  -1291.1320190 -0.402870E-04  0.428E-03    6.65       1.0  T
   7  -1291.1320215 -0.243774E-05  0.738E-04    6.65       4.9  T
   8  -1291.1320215 -0.287005E-07  0.370E-04    6.65       9.8  T
   9  -1291.1320215 -0.129608E-07  0.632E-05    6.65      57.5  T

   *** convergence criteria satisfied after 9 iterations ***

         #    Occupation            Energy/Eh            Energy/eV
      -------------------------------------------------------------
         1        2.0000           -0.6982726             -19.0010
       ...           ...                  ...                  ...
      1002        2.0000           -0.3410770              -9.2812
      1003        2.0000           -0.3392599              -9.2317
      1004        2.0000           -0.3380542              -9.1989
      1005        2.0000           -0.3372866              -9.1780
      1006        2.0000           -0.3299012              -8.9771
      1007        2.0000           -0.3282254              -8.9315
      1008        2.0000           -0.3261758              -8.8757 (HOMO)
      1009                         -0.0818085              -2.2261 (LUMO)
      1010                         -0.0771222              -2.0986
      1011                         -0.0574129              -1.5623
      1012                         -0.0540821              -1.4716
      1013                         -0.0523688              -1.4250
       ...                                ...                  ...
      1512                          0.5068428              13.7919
      -------------------------------------------------------------
                  HL-Gap            0.2443674 Eh            6.6496 eV
             Fermi-level           -0.2039921 Eh           -5.5509 eV

 SCC (total)                   0 d,  0 h,  0 min, 21.043 sec
 SCC setup                      ...        0 min,  0.041 sec (  0.196%)
 Dispersion                     ...        0 min,  0.111 sec (  0.527%)
 classical contributions        ...        0 min,  0.023 sec (  0.110%)
 integral evaluation            ...        0 min,  0.624 sec (  2.967%)
 iterations                     ...        0 min,  7.667 sec ( 36.436%)
 molecular gradient             ...        0 min, 12.511 sec ( 59.453%)
 printout                       ...        0 min,  0.065 sec (  0.311%)

         :::::::::::::::::::::::::::::::::::::::::::::::::::::
         ::                     SUMMARY                     ::
         :::::::::::::::::::::::::::::::::::::::::::::::::::::
         :: total energy           -1283.320219266588 Eh    ::
         :: gradient norm              0.107504108905 Eh/a0 ::
         :: HOMO-LUMO gap              6.649574248639 eV    ::
         ::.................................................::
         :: SCC energy             -1291.132021493100 Eh    ::
         :: -> isotropic ES            7.148805117753 Eh    ::
         :: -> anisotropic ES         -1.621392353370 Eh    ::
         :: -> anisotropic XC         -0.127349526250 Eh    ::
         :: -> dispersion             -0.802202675120 Eh    ::
         :: repulsion energy           7.652112174018 Eh    ::
         :: add. restraining           0.000000000000 Eh    ::
         :: total charge               0.000000000000 e     ::
         :::::::::::::::::::::::::::::::::::::::::::::::::::::

      ----------------------------------------------------------- 
     |                       L-ANC optimizer                     |
      ----------------------------------------------------------- 
          low memory version by Sebastian Ehlert

          ...................................................
          :                      SETUP                      :
          :.................................................:
          :   energy convergence        0.1000000E-05 Eh    :
          :   grad. convergence         0.8000000E-03 Eh/a0 :
          :   optimization log               true           :
          :   writing optlog all                1     steps :
          :   Hessian reset                    20     steps :
          :   maximium step len.        1.0000000     a0    :
          :   LBFGS images                     20           :
          ...................................................
 * calculating model hessian...
Using Lindh-Hessian (1995)
 Shifting diagonal of input Hessian by   1.000005513034296E-002
 Lowest  eigenvalues of input Hessian
    0.010000   -0.000000   -0.000000   -0.000000   -0.000000   -0.000000
   -0.000000   -0.000000   -0.000000   -0.000000   -0.000000   -0.000000
   -0.000000   -0.000000   -0.000000   -0.000000   -0.000000   -0.000000
 Highest eigenvalues
    0.318601    0.342205    1.239652    1.269490    1.435805    1.482077
 

........................................................................
.............................. CYCLE    1 ..............................
........................................................................
   1  -1291.1291572 -0.129113E+04  0.222E-02    6.70       0.0  T
   2  -1291.1291709 -0.136836E-04  0.135E-02    6.71       1.0  T
   3  -1291.1291755 -0.465855E-05  0.202E-03    6.71       1.8  T
   4  -1291.1291759 -0.381468E-06  0.556E-04    6.71       6.5  T
   5  -1291.1291759 -0.102775E-07  0.852E-05    6.71      42.7  T
     SCC iter.                  ...        0 min,  3.733 sec
     gradient                   ...        0 min, 12.507 sec
 * total energy  : -1283.3240226 Eh     change       -0.3803359E-02 Eh
   gradient norm :     0.0137396 Eh/a0  converged?    E=F G=F D=F
   step length   :     0.3425084 a0

........................................................................
.............................. CYCLE    2 ..............................
........................................................................
   1  -1291.1221458 -0.129112E+04  0.247E-02    6.73       0.0  T
   2  -1291.1221581 -0.122664E-04  0.149E-02    6.74       1.0  T
   3  -1291.1221619 -0.385533E-05  0.190E-03    6.74       1.9  T
   4  -1291.1221623 -0.367090E-06  0.529E-04    6.74       6.9  T
   5  -1291.1221623 -0.907744E-08  0.811E-05    6.74      44.8  T
     SCC iter.                  ...        0 min,  3.608 sec
     gradient                   ...        0 min, 12.497 sec
 * total energy  : -1283.3251238 Eh     change       -0.1101142E-02 Eh
   gradient norm :     0.0341604 Eh/a0  converged?    E=F G=F D=F
   step length   :     0.4853281 a0

........................................................................
.............................. CYCLE    3 ..............................
........................................................................
   1  -1291.1283790 -0.129113E+04  0.108E-02    6.74       0.0  T
   2  -1291.1283817 -0.275338E-05  0.644E-03    6.74       1.0  T
   3  -1291.1283826 -0.907147E-06  0.983E-04    6.74       3.7  T
   4  -1291.1283827 -0.821906E-07  0.268E-04    6.74      13.6  T
     SCC iter.                  ...        0 min,  2.777 sec
     gradient                   ...        0 min, 12.532 sec
 * total energy  : -1283.3258995 Eh     change       -0.7757439E-03 Eh
   gradient norm :     0.0146272 Eh/a0  converged?    E=F G=F D=F
   step length   :     0.1421765 a0

........................................................................
.............................. CYCLE    4 ..............................
........................................................................
   1  -1291.1299535 -0.129113E+04  0.118E-02    6.74       0.0  T
   2  -1291.1299550 -0.150280E-05  0.721E-03    6.74       1.0  T
   3  -1291.1299558 -0.749562E-06  0.685E-04    6.74       5.3  T
   4  -1291.1299558 -0.336775E-07  0.223E-04    6.74      16.3  T
     SCC iter.                  ...        0 min,  2.667 sec
     gradient                   ...        0 min, 12.624 sec
 * total energy  : -1283.3263938 Eh     change       -0.4942961E-03 Eh
   gradient norm :     0.0129614 Eh/a0  converged?    E=F G=F D=F
   step length   :     0.2686671 a0

........................................................................
.............................. CYCLE    5 ..............................
........................................................................
   1  -1291.1334513 -0.129113E+04  0.106E-02    6.68       0.0  T
   2  -1291.1334549 -0.362834E-05  0.623E-03    6.66       1.0  T
   3  -1291.1334556 -0.668738E-06  0.108E-03    6.65       3.4  T
   4  -1291.1334557 -0.104752E-06  0.189E-04    6.65      19.3  T
   5  -1291.1334557 -0.918362E-09  0.309E-05    6.65     117.7  T
     SCC iter.                  ...        0 min,  3.144 sec
     gradient                   ...        0 min, 12.647 sec
 * total energy  : -1283.3268290 Eh     change       -0.4352379E-03 Eh
   gradient norm :     0.0057743 Eh/a0  converged?    E=F G=F D=F
   step length   :     0.4085330 a0

........................................................................
.............................. CYCLE    6 ..............................
........................................................................
   1  -1291.1314648 -0.129113E+04  0.788E-03    6.60       0.0  T
   2  -1291.1314660 -0.123809E-05  0.476E-03    6.61       1.0  T
   3  -1291.1314664 -0.362289E-06  0.613E-04    6.61       5.9  T
   4  -1291.1314664 -0.415284E-07  0.163E-04    6.61      22.3  T
     SCC iter.                  ...        0 min,  2.532 sec
     gradient                   ...        0 min, 12.736 sec
 * total energy  : -1283.3269192 Eh     change       -0.9012956E-04 Eh
   gradient norm :     0.0074503 Eh/a0  converged?    E=F G=F D=F
   step length   :     0.1732644 a0

........................................................................
.............................. CYCLE    7 ..............................
........................................................................
   1  -1291.1322567 -0.129113E+04  0.343E-03    6.61       0.0  T
   2  -1291.1322576 -0.831947E-06  0.198E-03    6.62       1.8  T
   3  -1291.1322577 -0.129502E-06  0.507E-04    6.63       7.2  T
   4  -1291.1322577 -0.157272E-07  0.726E-05    6.63      50.1  T
     SCC iter.                  ...        0 min,  2.513 sec
     gradient                   ...        0 min, 12.707 sec
 * total energy  : -1283.3269903 Eh     change       -0.7117074E-04 Eh
   gradient norm :     0.0028854 Eh/a0  converged?    E=F G=F D=F
   step length   :     0.0518567 a0

........................................................................
.............................. CYCLE    8 ..............................
........................................................................
   1  -1291.1323110 -0.129113E+04  0.210E-03    6.63       0.0  T
   2  -1291.1323112 -0.183642E-06  0.124E-03    6.63       2.9  T
   3  -1291.1323112 -0.270829E-07  0.230E-04    6.63      15.8  T
   4  -1291.1323112 -0.501313E-08  0.342E-05    6.63     106.2  T
     SCC iter.                  ...        0 min,  2.498 sec
     gradient                   ...        0 min, 12.732 sec
 * total energy  : -1283.3270124 Eh     change       -0.2203318E-04 Eh
   gradient norm :     0.0023991 Eh/a0  converged?    E=F G=F D=F
   step length   :     0.0338188 a0

........................................................................
.............................. CYCLE    9 ..............................
........................................................................
   1  -1291.1322831 -0.129113E+04  0.175E-03    6.63       0.0  T
   2  -1291.1322831 -0.471141E-07  0.107E-03    6.63       3.4  T
   3  -1291.1322831 -0.153466E-07  0.113E-04    6.63      32.3  T
   4  -1291.1322831 -0.165255E-08  0.361E-05    6.63     100.7  T
     SCC iter.                  ...        0 min,  2.522 sec
     gradient                   ...        0 min, 12.775 sec
 * total energy  : -1283.3270226 Eh     change       -0.1025798E-04 Eh
   gradient norm :     0.0017861 Eh/a0  converged?    E=F G=F D=F
   step length   :     0.0281377 a0

........................................................................
.............................. CYCLE   10 ..............................
........................................................................
   1  -1291.1323659 -0.129113E+04  0.240E-03    6.63       0.0  T
   2  -1291.1323659 -0.413181E-07  0.146E-03    6.63       2.5  T
   3  -1291.1323659 -0.235905E-07  0.114E-04    6.63      31.9  T
   4  -1291.1323659 -0.870614E-09  0.390E-05    6.63      93.2  T
     SCC iter.                  ...        0 min,  2.496 sec
     gradient                   ...        0 min, 12.813 sec
 * total energy  : -1283.3270317 Eh     change       -0.9075526E-05 Eh
   gradient norm :     0.0013101 Eh/a0  converged?    E=F G=F D=F
   step length   :     0.0388901 a0

........................................................................
.............................. CYCLE   11 ..............................
........................................................................
   1  -1291.1324350 -0.129113E+04  0.116E-03    6.63       0.0  T
   2  -1291.1324350 -0.285781E-07  0.700E-04    6.63       5.2  T
   3  -1291.1324350 -0.737214E-08  0.911E-05    6.63      39.9  T
     SCC iter.                  ...        0 min,  1.882 sec
     gradient                   ...        0 min, 12.865 sec
 * total energy  : -1283.3270367 Eh     change       -0.4946878E-05 Eh
   gradient norm :     0.0009700 Eh/a0  converged?    E=F G=F D=F
   step length   :     0.0173143 a0

........................................................................
.............................. CYCLE   12 ..............................
........................................................................
   1  -1291.1324214 -0.129113E+04  0.923E-04    6.63       0.0  T
   2  -1291.1324214 -0.145528E-07  0.562E-04    6.63       6.5  T
   3  -1291.1324214 -0.371688E-08  0.617E-05    6.63      59.0  T
     SCC iter.                  ...        0 min,  1.815 sec
     gradient                   ...        0 min, 12.857 sec
 * total energy  : -1283.3270383 Eh     change       -0.1651216E-05 Eh
   gradient norm :     0.0004429 Eh/a0  converged?    E=F G=T D=F
   step length   :     0.0130907 a0

........................................................................
.............................. CYCLE   13 ..............................
........................................................................
   1  -1291.1324154 -0.129113E+04  0.336E-04    6.63       0.0  T
   2  -1291.1324154 -0.212867E-08  0.204E-04    6.63      17.9  T
   3  -1291.1324154 -0.614364E-09  0.242E-05    6.63     150.6  T
     SCC iter.                  ...        0 min,  1.800 sec
     gradient                   ...        0 min, 12.837 sec
 * total energy  : -1283.3270388 Eh     change       -0.4816377E-06 Eh
   gradient norm :     0.0003541 Eh/a0  converged?    E=T G=T D=F
   step length   :     0.0074667 a0

   *** GEOMETRY OPTIMIZATION CONVERGED AFTER 13 CYCLES ***

------------------------------------------------------------------------
 total energy gain   :        -0.0068195 Eh       -4.2793 kcal/mol
 total RMSD          :         0.0578901 a0        0.0306 Å
 total power (kW/mol):        -1.3772816 (step)   -0.0812 (real)
------------------------------------------------------------------------

 L-ANCopt (total)              0 d,  0 h,  3 min, 40.414 sec
 setup                          ...        0 min,  0.030 sec (  0.014%)
 model hessian                  ...        0 min,  7.799 sec (  3.538%)
 ANC generation                 ...        0 min,  2.576 sec (  1.169%)
 coordinate transformation      ...        0 min,  0.001 sec (  0.000%)
 Rational function              ...        0 min,  0.000 sec (  0.000%)
 singlepoint calculation        ...        3 min, 29.911 sec ( 95.235%)
 optimization log               ...        0 min,  0.092 sec (  0.042%)
 hessian update                 ...        0 min,  0.000 sec (  0.000%)

================
 final structure:
================
$coord
       10.67272303764500      -15.05132221195600       -0.23966350216900      o
        9.33655247940900      -14.56545787096000       -1.41900195012200      h
       10.01610797712700      -14.52598437053000        1.38721566550300      h
        0.55771534249200        5.73492980083800        8.00919836974900      o
       -1.21239202833500        5.47727004463500        7.53129790044300      h
        1.21344634782700        7.06697361636400        6.92110916746500      h
        1.91242864820000       -1.79649481461100       -4.76750335076800      o
        0.78978972282400       -3.20628825339200       -5.12376494881900      h
        3.14456939476200       -2.41191057945300       -3.55897567499400      h
      -11.83622121215100        1.46907056815000        0.94328595884900      o
      -10.54065663517000        2.08648687039200       -0.25590519649300      h
      -12.70089574956400        2.98907887160500        1.45147749187100      h
       -6.49442709367400        5.02355273335100        2.42365110813700      o
       -5.19271471189100        5.53079543421800        1.19895252963100      h
       -5.65976389575000        4.98016655628800        4.07387097567300      h
       -6.53708182093800      -10.79332963438400        1.67625726415400      o
       -6.37675772670200      -11.32651995684800       -0.08340640752400      h
       -5.59853051395300       -9.21337508758400        1.92642326505100      h
       -1.67485326315800       -5.21652007079800       -6.22853852998100      o
       -1.42759728167500       -6.89963983373000       -6.98998793485600      h
       -2.77624299842400       -5.55320733018600       -4.77001600843500      h
       -0.08124939835900       -9.60531587147200        2.04568758831400      o
       -1.26176397980500       -9.66320410177900        3.45917592660700      h
        1.21150369386600      -10.88121473190300        2.35426604952800      h
       -4.66432523461000       -6.20537230927100        2.16044254755000      o
       -3.03946924420000       -5.73617883825900        2.93312655422900      h
       -5.91214289442400       -5.17966167008000        3.02774172911400      h
       -2.92838452147400        6.99719278602400       -9.68584237954600      o
       -3.28399733786700        5.36254189909800      -10.48763202315200      h
       -1.10607169136500        7.29372609303000       -9.66806468743600      h
       -7.48779794505900        0.37710668047200       -6.11862227980100      o
       -8.54625290946900        1.08314749560500       -7.48126018963900      h
       -6.37466390676000        1.79926924996700       -5.72477764993200      h
       -4.84127216350900        4.62980059725200       -5.58015788924900      o
       -4.30268394639600        5.30146545280500       -3.95090496424600      h
       -3.81725320623200        5.46281707626700       -6.85302233584300      h
       -4.86707596467800       -6.66829122834900       -2.73827845607000      o
       -6.61317078761100       -6.97937317128900       -3.25934737596200      h
       -4.85148274360800       -6.36917069905800       -0.90880429366900      h
       -9.09909039855600        3.63995842999800       -2.46602900245600      o
      -10.19199498255100        3.90674563736900       -3.91335520917900      h
       -8.31018060658900        5.26456297782000       -2.17264274980400      h
       -3.30001181551100        6.53904943969100       -1.16570496699000      o
       -3.81517567383800        8.30951983348600       -1.20995992855000      h
       -1.53068686303700        6.61634460861000       -0.63732601378200      h
       -0.44120183849200        1.56883463586500       -7.80957517467800      o
       -0.03899912762700        3.19189403943800       -6.99864056497800      h
        0.34936388026200        0.30517148582700       -6.75501846205600      h
       -2.35860985296300        0.08315618834400        5.02571163375400      o
       -2.75058569296800        0.26190773730500        6.81705073324600      h
       -3.96382557935301       -0.10169789816700        4.12637474274700      h
       -3.67698464745100       -1.22302533672700       16.19354729623100      o
       -5.33529972905500       -0.45629510856200       16.24752236783600      h
       -3.91876083375200       -2.96902542146300       15.68485602782700      h
       -3.29302250913000      -10.01568141363400        5.99541795711300      o
       -3.44131364337200      -11.83760219118300        5.76621758690100      h
       -4.97560084006600       -9.34558687007800        6.29914914182100      h
       -3.96262809705800        0.86391080599300        9.73029347122700      o
       -2.62827404223700        1.04826668534500       10.98202082965500      h
       -5.23260235407700       -0.27535717615700       10.44647418485100      h
       -6.49683436170300       -3.25147187314900        5.87700987094600      o
       -5.28228335435300       -3.80037874775600        7.14181846684000      h
       -7.13186386637200       -1.61233149417600        6.38951835080700      h
        8.07403448931300        1.60126781713900        6.62137287059500      o
        8.42421863044500       -0.16142063493100        6.21822863155500      h
        9.25447679233200        2.00309781678800        7.98274787884900      h
        0.35960196891300       -5.48098685835400       -1.05604045702900      o
        0.11127441001500       -6.68458546914900        0.30156348876400      h
        0.96642511074600       -6.45129242874100       -2.48446216396400      h
       -1.06654585025100       10.05002715347200       -4.20633425914800      o
        0.00876225841600       11.50816530362600       -4.41707761138500      h
       -2.60069352810100       10.42174149131000       -5.14850297195300      h
       -0.34807624348800        1.02143001760900       13.28708632982500      o
        0.09106230963100        2.73761056304600       13.70899563957100      h
       -1.51666771943300        0.34243315255100       14.57369866025600      h
       -8.61772717935800        1.41148317654500        7.00005973499300      o
       -8.38569591010000        1.94917805670600        8.73545106473400      h
      -10.26917513027700        0.60835330924800        6.84639212803700      h
      -15.28992225478500       -0.05552857448900       -2.36605112113100      o
      -13.93774161856500        0.14927759273000       -1.11443495039800      h
      -16.12003511167500        1.60617531429800       -2.46703302424600      h
        4.24832542294100        4.73025776769000        2.95701066935500      o
        3.78986644002800        3.00662958438500        3.50865262653200      h
        6.03945809122600        4.65163883024800        2.53692581366800      h
       -5.86792476475700       -3.48614003859500       -8.61118325398200      o
       -4.24431365777100       -4.05881882547300       -7.95739585635300      h
       -6.27532006647500       -1.95381884285800       -7.61583585885800      h
        5.46783854374200       -4.53102961170300       -2.17664021296000      o
        7.23951619841000       -3.96637807660100       -2.11309490774400      h
        5.25390375202400       -5.11487799324600       -3.91397187607800      h
       -6.47563531547100       -8.86944847894600       -7.18145619692700      o
       -6.34449302035400       -7.26655955095300       -8.02777033691900      h
       -6.63401983656700      -10.14438231094800       -8.47787958443300      h
      -10.59408361916400       -2.56137179005000       -3.16394124626600      o
      -10.04464757612600       -2.69539872499400       -1.39812952884600      h
       -9.53844169607700       -1.33549555285100       -4.03122380844600      h
        3.45756955259200        1.61172450928800        8.76659027619600      o
        5.12752882880900        1.86881921116600        8.02869983075200      h
        2.51537655510700        3.16542752970900        8.53105812124300      h
        8.74324396403600       -6.91204160511400        3.21148240837100      o
        6.99702334469200       -7.12879568237700        3.73888834754500      h
        9.39172546284400       -5.51743894304900        4.23307946301400      h
        2.46553365974200        0.33478815775300        4.09807473756500      o
        3.46325376604400       -1.11993180073500        3.63382735172700      h
        2.44948302823900        0.40985273384600        5.94913399396600      h
        5.91478201671000        6.45024598524900        7.75060340215700      o
        5.22037803060500        6.14438842704600        6.07067377592900      h
        7.47527411344200        7.36825706229300        7.52236466963800      h
       -8.07232512353200        8.62353969178500       -2.97305066189000      o
       -7.05643665602700        9.80009042792200       -1.99618147593900      h
       -7.74708104917400        8.89283422061600       -4.73533049209300      h
      -12.90930803583700        7.89786284127200       -2.08921507624900      o
      -13.08945830703300        6.85206264286600       -3.59082865843500      h
      -11.10467967557800        8.34459801598400       -2.05727882279000      h
        0.65103003424600       -7.65128956127100        8.07638393796400      o
       -0.80789429009100       -8.72950836171600        7.75723954672600      h
        0.57734510360500       -7.11188982289200        9.84096809791100      h
       -8.08615486160500       -8.02393888108500        6.96420802511400      o
       -8.11285619359400       -6.22189744245600        6.57981384442000      h
       -9.78350737010100       -8.64814326847700        6.69796061361400      h
       -0.55710400537600       -4.54336241999500        4.34811332312400      o
       -0.27171938076100       -5.51791920499400        5.89303665675300      h
       -1.03411686416800       -2.82899873343000        4.88842957121800      h
       -1.13807820067700        4.73019132265800        3.08323963013800      o
       -1.38340119887200        3.16201827323400        4.00663012295700      h
        0.65198678643100        5.02114737394400        2.98396360002300      h
        1.66729684869700       -6.68957576994100      -15.75289852440000      o
        2.09452515930100       -7.58564406376800      -14.21249521814300      h
        2.78926765749500       -5.24048067598400      -15.77092490255500      h
        5.01250222052200       -3.82894043444000        7.97818022735900      o
        5.00764725547700       -4.23743303935600        6.20453766683000      h
        3.28956307797500       -3.23236056288600        8.38126253762300      h
      -10.79716790475800        5.77802491324000        5.79273622963300      o
      -12.04809215857100        5.77636103788700        4.43679575214600      h
       -9.77804689887800        4.23299646247100        5.67639817572700      h
      -14.33595371275000        5.88503603386100        2.11783558556500      o
      -15.70153369780100        7.06557033252000        2.48972545267700      h
      -13.65027684145000        6.55920286748500        0.48957227829500      h
      -13.29561781547500       -5.93465248317700        4.26263613633000      o
      -14.42785866233200       -7.37001854520400        4.43149466456700      h
      -14.39130765861000       -4.54389470685100        3.77459127552100      h
        1.51815392804300      -15.15614477254700        6.75574118491000      o
        1.55577204319000      -14.11134887504400        8.27761750854500      h
       -0.24164684816600      -15.35391098419500        6.30235010646500      h
       11.80710145651400       -9.29280414184800        7.88398390512900      o
       11.41830014162000       -7.86791485333300        8.98556836588200      h
       10.40276208013900      -10.42917943053700        8.11247407324300      h
        1.04108312647400        5.65410362720400       -5.42720747221800      o
        1.74643919052800        4.80605956253700       -3.94472332257800      h
        0.17556206232300        7.17163806094000       -4.81080362107800      h
        8.56965864954200       -8.84097461425300       -4.87639373694900      o
        7.94142280263500      -10.51145546730400       -4.48226087077100      h
        9.67738058906800       -8.35280904190800       -3.47765490187500      h
      -17.17876733478700        8.53835990382500       -5.38974104442800      o
      -15.54361465626800        9.33803076515400       -5.61463559658600      h
      -17.59245201995300        7.77055138631600       -7.03272826802900      h
        7.65658616490800       -0.64292213293500        1.84918254726200      o
        9.43804197614200       -1.01595666015600        2.09463279487900      h
        6.75221080682900       -2.17758887938600        2.21324536602300      h
       -1.19240832835500        6.48884450155700      -15.98607483945900      o
       -1.58633382923500        4.72391501970400      -16.18682424146500      h
        0.51322772543200        6.54413342931600      -15.31456820858100      h
      -14.75711412183500       -5.31153174703700       -2.11529754245300      o
      -15.48696601078400       -4.55611352214900       -0.60151303364800      h
      -13.36178097335500       -4.20363312059200       -2.55165327776900      h
       -4.37555990293300        5.06522362582200        7.07441785631500      o
       -5.25629074367300        6.42440312533500        7.90831456911100      h
       -4.56395088897100        3.54938272215200        8.10953419521500      h
        5.16618522704500       -9.20401758703700       -0.16358342212200      o
        5.70454666891800       -7.50978912756000       -0.63849729597200      h
        4.61342675684900       -9.14280131198400        1.58054398822800      h
       -8.58234516086300      -13.89919058029800        5.12095693813400      o
       -9.92244932936100      -14.51978193998700        4.01512484002100      h
       -7.70957429009700      -12.65211496049500        4.06690423545400      h
        5.35258229860400        0.27265654915000       -8.04885161278500      o
        5.45714287609400        1.99044508715300       -7.38540519522700      h
        4.17489509451000       -0.65566460943500       -6.98734012512200      h
        4.58209098629800       -2.62584612328200      -14.43803746102000      o
        5.76135607924600       -3.62029637554700      -13.42079058839400      h
        5.52805953642100       -1.16265615419700      -14.96335267127700      h
       -3.70008452838700       -5.19582717065400        9.70275603622900      o
       -3.61454140886600       -6.97948735835700       10.12593585861900      h
       -4.93156430607000       -4.42132042068500       10.82224067545900      h
       -1.43787464865700       -9.48011524248000       -8.78852853408700      o
       -2.68331596807500       -9.05787397459200      -10.08733572054900      h
       -2.02754672980500      -11.04900286059200       -8.00842864865400      h
        2.87160483766800        2.91515114009200       -1.60609033445600      o
        3.21205681816300        3.91852181006400       -0.09049302005200      h
        4.52973373062200        2.35849581404900       -2.23478948415100      h
       -1.96217003296800      -10.80080567105200       -2.39346515078900      o
       -3.14683088215100       -9.42986879840600       -2.77447302478600      h
       -1.26085007507700      -10.38395594833400       -0.71887319175400      h
        7.06786625562900      -11.77292506276600        8.66393716011200      o
        6.62827557990700      -10.31416134000200        9.72958105663900      h
        6.05365933373600      -13.15037723030700        9.27084516462400      h
       -7.05427590917300       -2.07571029734000      -13.42146144583000      o
       -5.64833997855500       -2.77600624864300      -14.35148519080400      h
       -6.64079047123100       -2.43186371065900      -11.65262896595400      h
       -9.77344077615900       -7.47851780819200       -3.75035001428400      o
      -10.43871556120900       -8.09269926168000       -2.13520502732900      h
      -10.13646752942500       -5.66996479289400       -3.80642608962400      h
       -4.23841050955200        2.36188117191600      -11.06236413692500      o
       -3.11420097001100        1.67532050111100       -9.78404401107500      h
       -3.56631723989800        1.87179558093600      -12.70798997315200      h
      -18.13534261733000        9.30764983438600        2.26664635721500      o
      -17.04891026609900       10.70352473573800        1.77753052502700      h
      -19.21474018630400        8.98463926983600        0.80641050977900      h
        5.53510633393400       -7.61921871775100       11.09033351754400      o
        5.25614139882000       -6.26700575115400        9.80758816960500      h
        4.25224095570500       -7.34761224490300       12.35387471430700      h
       -3.99680108268400        7.33580980123700       12.09855365308000      o
       -2.46076778166900        6.68500336579100       12.84438951817400      h
       -3.42327312685400        8.60907089771800       10.89492008783600      h
        7.38757319692800        1.29150420314700       -2.71039073334300      o
        8.84216067599000        2.39781864473900       -2.68333817122100      h
        7.41207542931800        0.47909145434600       -1.03357351712400      h
        7.86915050072300        9.44725891055900        3.60891184912200      o
        8.44380513894300        7.76568632465400        3.17319620820400      h
        6.74779206971200       10.01759642373900        2.23697118636600      h
       -9.32345469625800        2.61032200949100      -10.03144329520100      o
       -7.68245518127500        2.59599409411500      -10.84653347197900      h
      -10.58018493576200        2.04268396113600      -11.22853696207600      h
        8.54712710122900      -12.21492229560300        3.53993480672200      o
        8.43938382083900      -12.48657612838500        5.33361902626000      h
        8.83354442233600      -10.41108092570000        3.30171681281200      h
       -8.31259402435400        7.36672482317200      -13.22919659510700      o
       -6.95327892377700        8.52450702964800      -13.69622653853300      h
       -7.96847859845700        5.75805451504100      -14.06216929295100      h
       10.17134082443400       -0.45410235504100       -7.08893883516500      o
        8.32814485282300       -0.42825442480300       -7.35741609078200      h
       10.69050675949300        1.32179877835300       -6.89940373363700      h
      -12.54222078420400      -10.88216930844700        6.85205326547900      o
      -11.33720561216100      -12.22284106274700        6.51314835410700      h
      -13.90857215179700      -11.12209444109500        5.66596310204300      h
      -16.75296430519300       -3.05586879564700        1.94510811764700      o
      -18.30786798775100       -3.95744330888300        2.28768168061500      h
      -17.07313371118800       -1.24466426769700        1.92637222506500      h
      -15.70863411175300      -10.20150825075100       -1.51551945467200      o
      -14.90226678769200       -8.53649898750400       -1.62892510422700      h
      -17.38205658100300       -9.91904206163400       -2.18188006604800      h
      -14.32739087465700       12.16363828710300        0.48476781787600      o
      -12.84215751523400       13.24577783349900        0.23271796505400      h
      -13.97952150098100       10.71480123144400       -0.60319670879300      h
       -9.65558663102800       13.90501776229000       -0.06677763402000      o
       -9.13305685867900       12.21780482196100        0.49500934280500      h
       -9.41313744509700       13.93487059950400       -1.90600330350600      h
       -4.79555199575300       11.33294779144500       -0.30895156889400      o
       -4.12412683077100       10.99744725179600        1.37980965244000      h
       -3.83342686475200       12.70054113285200       -1.05850367134100      h
       -1.58680289077400       10.64635840833400        8.93341950975000      o
        0.21528621959300       10.54919306566600        9.37579875635600      h
       -1.70609799332600       10.32804048855000        7.11307943240000      h
        2.27879145184700        9.51219905103300        4.90356504094700      o
        2.08247767033700        8.86380289489400        3.18836081883000      h
        2.38967322953400       11.31845085444500        4.77804786566200      h
       -0.92662546686200       12.70678358609000      -10.07990803629800      o
       -1.76591832423000       12.41665226790000      -11.68225221110200      h
        0.21178664763500       11.27030449985700       -9.86346864583700      h
        3.45705836282500        5.98267911531200      -13.64004320234800      o
        3.19100670482300        4.20373148819700      -13.19385171407400      h
        5.13237737974600        6.14560445378900      -14.32946554695100      h
        9.20585616623100        4.41803496469200        2.52013495005400      o
        9.04964573024200        3.22862605320600        3.93265607142700      h
       10.15638593502700        3.60841120988500        1.18358676693700      h
        7.37199232351700        9.04366923779000       -9.64688499974500      o
        9.03373707063700        9.69143338358900       -9.09750446608400      h
        6.15100470870600       10.17355685389800       -8.88789788586200      h
       -4.94320559957500       11.55413757008400       -7.14792597644900      o
       -5.77739962295400       10.10575865845000       -7.93149140119900      h
       -3.64991317427400       12.12892467242500       -8.33865928649300      h
      -11.14820912315800       -9.13325315282800        0.82723264620300      o
       -9.42671993180500       -9.59080730245300        1.35078069454500      h
      -11.73980550449200       -7.83539835252900        1.98604774381300      h
        1.90462559672300      -15.65886194127100       -1.65839966876100      o
        2.48334634560800      -14.87862687844900       -0.08308422984800      h
        0.15069535943400      -16.04781138120000       -1.34418310964500      h
       15.65757194139400       -4.71164282380500       -1.55231408564300      o
       15.09493537949800       -3.26795249119400       -2.57803278224800      h
       14.24916714769600       -5.90687862645500       -1.54304036911900      h
        4.46130765653100       -8.83197012358400        5.10340601143700      o
        2.98923862563600       -8.28611196955100        6.06844999065200      h
        5.28742573821100      -10.07755634227400        6.14768214019600      h
       10.50860421080800       13.19627832363800       -3.19575118477300      o
       12.25590182333200       13.53922569235100       -2.82022986739800      h
       10.21080434692100       11.52319183934700       -2.39643690717200      h
      -12.03474005666800       -5.02803654544800       13.95011866742000      o
      -13.39484688779000       -5.85972165546200       13.06430691126100      h
      -12.11843607036300       -3.27147548044700       13.46003515835100      h
      -11.96102833916200       -3.54909110361200      -13.24433564832300      o
      -11.72826528071100       -3.72666752365700      -11.39817535904700      h
      -10.29119938827300       -3.03663496235600      -13.82594448975400      h
       -9.10861580805600       13.81178755205800       -5.09032604707900      o
      -10.51051892857200       12.83730912114400       -5.75744002869700      h
       -7.59512033567000       13.09535229518400       -5.84792657983800      h
      -12.46111925973500       10.35147490275800       -7.23970447180600      o
      -11.01950023117000        9.20331409195500       -7.42111325135200      h
      -13.10234136837200       10.57875643125700       -8.91732798382200      h
        7.31526631624300       -0.92406895791400       11.85800408921600      o
        6.60173900707700       -1.48790874290400       10.26823940450500      h
        6.98210553624300        0.87938866004900       11.97405268435000      h
      -11.02936910573200       -4.08981642030500       -8.39694337300100      o
      -11.63586555117700       -2.46124224007700       -7.72944076338400      h
       -9.20307708158100       -4.10944140683600       -8.24488526075400      h
        2.93163114511000       -8.15892271391300      -10.76173956208900      o
        4.06021651554000       -9.55805876541300      -10.37267887002600      h
        1.29512867351900       -8.73177824005500      -10.09753258350500      h
        2.35033851794800       -9.11000567673700       -4.39114217134000      o
        3.37615726174600       -9.39211456346400       -2.88668822844000      h
        0.80068212077000      -10.07161641205100       -4.11514866625200      h
       -9.35344198029200        9.20186353945000        1.80791453510300      o
      -10.45180589808400        9.37683279436500        3.24618998272900      h
       -8.35538236847100        7.66991583670800        2.03986702376400      h
      -13.47040011451000       -0.04242574444700       -6.94031390426700      o
      -15.00557035840900        0.17560297224400       -7.93975114482400      h
      -14.01727473228900       -0.31425684883000       -5.17753342537800      h
      -20.93785748730000        8.59061552153600       -1.94509700227900      o
      -19.57300939745600        8.61195773491900       -3.20579924881900      h
      -22.14074984722500        9.83099370653200       -2.47706482663300      h
        8.09643523193000       16.04278777946700        0.23308525653600      o
        9.13181432626200       15.58082520496100        1.67203121842400      h
        9.02025260382500       15.35664133243400       -1.21389972464000      h
      -12.57623674343100        4.82663745622800       -6.22591949567100      o
      -12.36617900927900        5.54481887732700       -7.89588088025600      h
      -12.82848567737000        3.02162268972000       -6.54259071790000      h
        3.31840561591800       10.14237198495600       10.27561506592300      o
        4.30131835521400       11.52218715180600        9.57068588245800      h
        4.00651121856600        8.67091767681000        9.38734648291600      h
        7.35788427284300        1.42655040090000      -12.64511339073800      o
        8.91946893012700        0.46556001745000      -12.51887500173400      h
        6.40266024413100        1.04037495129700      -11.11901079933000      h
       -2.99878082195000      -10.18660700707400       11.29403229061700      o
       -3.30481069367900       -9.82053128964800       13.04348062424300      h
       -4.39431269136500      -11.28391092788100       10.73676149576000      h
       10.32107558514500        8.52905389982200       -1.38144058325600      o
       11.67547399088900        8.16070335864400       -2.58925050275200      h
       11.10625617151400        8.38219018254900        0.27389936464800      h
       -9.44079163322300       -3.69537059018700        1.53969997728200      o
       -8.50021719980900       -2.25981050754100        2.17682296722300      h
      -10.65198579073500       -4.17547171093500        2.81028442303100      h
       15.94405026833500        6.69003389223500       10.26785539972000      o
       16.37571004317200        4.90438429175900       10.17017631804500      h
       14.60934854702600        6.80873475572200       11.49944804752200      h
      -16.33259918066000        2.88300552710800        7.45708521375200      o
      -17.42026365229700        4.29533338469600        7.00744508843800      h
      -15.12190602729200        3.59094584223100        8.65591817456400      h
       -7.25387836317800        9.25981120674000        7.13505292423200      o
       -7.76026917218600       10.99450312415200        6.85334693992700      h
       -8.65238983568600        8.19161195532100        6.61300480674500      h
      -17.77452646113300        4.18409862642200       -2.80400627003500      o
      -17.13567139185100        5.67821980426700       -3.66614425476300      h
      -19.10665306460800        3.51583191159800       -3.86256967126700      h
       -8.45943650337500        0.87573159719700       15.45191129830500      o
      -10.25811007562900        0.59468247993100       15.38708887490700      h
       -8.12379906536400        2.18126909005900       14.17841239587700      h
        0.77799237537200       -6.40393647225100       13.03768046514300      o
        1.66916588309200       -4.87998973066200       13.65156186681200      h
       -0.86261385117000       -6.37327714157600       13.82376293947300      h
        1.77416553462600      -12.11523754346500       10.85291762745100      o
        2.65923583299900      -10.52681594235500       10.75289170267800      h
        0.01315808449500      -11.64112339974700       11.11857351277700      h
       -3.95268959648800       10.05342572354700      -13.52829718703300      o
       -3.68585515352600        9.02339278997000      -12.00138719982000      h
       -3.03194024550500        9.13153886336700      -14.82193249214800      h
        5.56725314519400        7.54011534074600       -2.78957891274500      o
        7.21232198734300        7.80591590311300       -2.01476764364400      h
        5.83067494113400        6.37883137873300       -4.20738470734700      h
       11.83763731362900        4.22359740590500       -7.00947218159000      o
       12.29952229863400        4.35894061660900       -8.79048940236000      h
       13.42377343387700        4.32650299391200       -6.07669223654800      h
        3.04628772559100       17.17533305512800       -1.06521772685400      o
        4.85858547644300       17.14227540541000       -0.82519012665100      h
        2.73999202554500       16.88586088960100       -2.83740636152800      h
       10.19109200440700        9.51338604723900        8.64597155837700      o
        9.14315217853500       11.00873379819800        8.63439898116600      h
       11.82584152236600        9.98472472891200        7.99653984281200      h
       11.79079640364700        2.34414649015700        9.89067078165800      o
       11.60957709312800        3.84760761564100       10.95859939144000      h
       12.77327629271100        2.82794349175200        8.39945697572100      h
       11.57129196462400       -7.80390555557900       -0.93287960465300      o
       10.55913449852300       -7.35268309507500        0.54058853625000      h
       12.51426525924400       -9.32877337076000       -0.48638386218600      h
       13.81828228824500       -6.48245686993400        3.86239494040200      o
       14.88283990283300       -7.71476592531600        3.06838739177900      h
       12.98238906259900       -7.34922113546600        5.23953198064500      h
       23.67054000090600        2.67888116828800       -1.73968265435300      o
       24.70537193737300        2.66221433986000       -3.22312621086600      h
       22.02524097294000        1.95579552114500       -2.25063731158800      h
       -3.05734445316100        9.50237528366200        4.10875362954900      o
       -2.37870459172800        7.82693491798900        3.72656484615400      h
       -4.63798212247400        9.25945220435200        5.01761029243800      h
       17.91142836183100        4.47889338290900      -10.49465616625300      o
       18.79430776409400        5.71468719101800      -11.47389305201800      h
       16.17865473206500        4.40880449095600      -11.14936215267500      h
      -17.26741319005300       -4.01426564588200      -11.12956086038200      o
      -15.87496841096300       -4.12689596563500      -12.29473361024600      h
      -16.80049819903400       -5.03643838229200       -9.66482696913300      h
        6.26429372210700        4.26541134401700       12.39973141929800      o
        6.18663626286600        4.86082073840400       10.65287186924900      h
        4.57827851673000        4.52335731301100       13.04675332723100      h
      -17.74958597200500        0.70262501264700       -9.57173394393400      o
      -19.06319704459700        0.88604240231300       -8.29598268924100      h
      -17.89235734543800       -1.03205068959300      -10.23626484176600      h
       -7.30873080430600       -2.33435024494400       11.64363032701000      o
       -7.94087681885700       -1.48903155419000       13.14371914167300      h
       -8.77180008396400       -2.82819400837400       10.61240647415600      h
      -17.85890967707100        6.22540308629300       -9.77937157522600      o
      -18.00894075852800        4.40972336528600       -9.78733464945200      h
      -16.22860691462800        6.58304584025400      -10.54429104304300      h
       -2.37556748526900       -3.98259704016800      -14.61528692124800      o
       -1.13154157039900       -5.06119012256900      -15.47623681637400      h
       -1.49161332877400       -3.55910173256500      -13.02702843504700      h
        4.07665326586400       -4.27298148714900        2.71629412684900      o
        4.08421525445000       -4.47311271501000        0.89583482215400      h
        2.31150945091600       -4.58452334062900        3.23823486557200      h
      -21.06665112178100        1.26247030626400       -5.70015245194000      o
      -20.61770642600900       -0.28410455165800       -4.74079054115100      h
      -22.86787177740800        1.34365640636200       -5.79508981546200      h
       15.98541762962400       -4.60871122957900       10.47570047700100      o
       14.95549057947000       -3.67006150850100       11.67200360121300      h
       15.36535493569800       -6.30946051631200       10.39575792391400      h
       10.09681540926400       -3.06722349350400        6.23977263006400      o
        9.88672845824900       -3.85350356324800        7.89414172124500      h
       11.85993524324900       -2.54834383775300        6.14330696882200      h
       24.26787497784800       -1.01467075777200        1.77801369714900      o
       24.33086095914300        0.39997780403500        0.59246259202400      h
       23.89413339284500       -2.50385171464100        0.80235201319900      h
       18.23858519846400       -4.01907842468500        2.73046119253100      o
       17.08036160624100       -4.30682788051000        1.31719092615600      h
       19.89854518824200       -4.36143769991200        2.03379185681600      h
        8.96816766767300        6.06224757541500      -13.60675101817500      o
        8.43862519564800        7.24702807940000      -12.31049790253600      h
        8.19983086064600        4.41925814329200      -13.20573457105800      h
        5.56560561181300       11.79993397524300       -5.47138710136600      o
        5.34312796169700       10.32148633125300       -4.34555261709500      h
        7.02790243934500       12.66152201287000       -4.82610152900400      h
        1.11964256343900        6.06858835279500       12.94890064815000      o
        1.83265867320100        7.72985510601900       13.14414153265000      h
        0.92862545643000        5.88802037846400       11.09264860190700      h
       15.68463652217400      -11.49838320206700        4.92511935962600      o
       17.04256544886300      -10.37076055800300        5.46089048894500      h
       14.32394059960200      -11.18541015934800        6.09908073582000      h
       10.14514451471300       -3.13113795025900       -2.67968494734600      o
       10.98696526472100       -4.29783304785200       -3.84164593883000      h
        9.67730497092800       -1.66802848293200       -3.68824042854800      h
        3.33077008921400       -2.44593160541300       14.55608241064600      o
        4.91121504559700       -2.01023319804000       13.69031823759800      h
        2.17951395927300       -1.06375096257900       14.20438138195900      h
        6.49933866640500       12.86967987003100        7.26935760278100      o
        6.65420527820900       11.54934035355200        5.99370923100500      h
        5.43976422853100       14.13829519091600        6.48537586290100      h
        0.24351349432500       13.06654048720800        0.38389884743000      o
        0.78761762174000       14.71659591627200       -0.19389506835600      h
       -0.64161755023300       13.33544075552300        1.96342401485700      h
        1.37169182950200        8.04458789253300        0.03665196724400      o
        0.66866683424800        9.67876049473500       -0.38164044879800      h
        2.93446183212800        7.89612475279100       -0.92343899320200      h
        5.24989385560500       11.78288542916600        0.14220801362500      o
        3.47515056807200       12.18383570866200        0.37312385305400      h
        6.16224255687000       13.37095597342900        0.24489450264700      h
       12.10027180873200        2.90995108822300       -1.70692693030700      o
       12.96210613056200        1.49841040656200       -2.49223476893200      h
       13.43217184993900        4.15084585172800       -1.43436838669100      h
        3.00746726550600       15.34665565013100        4.45281275843200      o
        3.42468168927000       16.39897690123700        3.03420287674500      h
        1.19284238933500       15.52284859576200        4.69596755291400      h
      -18.95777873599500        7.24178623265100        6.78953115029900      o
      -17.89390504440800        8.18979816668600        7.95479820372500      h
      -18.76223400245900        8.09297775210500        5.16510285683900      h
       -7.88840583210200        4.10532447029200       11.56152651684200      o
       -9.43874293407800        5.06296476779800       11.49015798808100      h
       -6.49829369255200        5.30356121954300       11.79790868602300      h
      -12.71013895778500       11.33803986966500        5.29331212304900      o
      -13.45740688177000       11.75438633738700        3.65022113459700      h
      -11.43359468470000       12.60984248151600        5.61980394924800      h
       14.59798092344300       -0.80475970414900       -4.54700298383900      o
       15.95086322114400       -0.45930076606100       -5.73992521428500      h
       13.16587196112700       -1.32869278075200       -5.55253355104500      h
       -9.91704865757100       -8.44600688151300      -12.43414181875500      o
      -10.62911044212300       -8.84369070318700      -10.78306098905300      h
      -10.83856712852700       -7.00290881093400      -13.07033772671900      h
       -7.31379672852900        2.78259161684300      -15.45134079646600      o
       -7.44373511212500        1.09962486464400      -14.72397591007600      h
       -5.73003669243100        2.81224364081700      -16.33452155049100      h
      -18.59448541590800       -4.86674606293600        7.05585397755000      o
      -19.28960111759100       -3.20775260335300        6.69295152894500      h
      -19.46356097917000       -6.00909444294700        5.94585631249500      h
      -11.69749068015500      -10.06830455280700       -7.75308509572000      o
      -13.32695015352700       -9.22693961490300       -7.64355601523800      h
      -10.61929841297400       -9.13395763661500       -6.55307354590400      h
       -5.76557246639800       16.73753631401300        1.42250379145200      o
       -4.75664563930800       16.88817048355400       -0.09132984663800      h
       -7.25982310067500       15.78151899516600        0.86626912936500      h
       -8.17186285990400       -7.87306621206700       12.15401396103100      o
       -9.58584111739800       -6.86798641555400       12.79147109496000      h
       -8.13029074019500       -7.64404066663800       10.31887551479400      h
      -23.04884320558300        4.43612752483000        5.66766094257300      o
      -21.64123544027600        5.48501407581300        6.24000414114500      h
      -24.52803790472800        5.03794450464500        6.51449306136100      h
       13.88291278672900      -10.85850330265500       -5.38219761332900      o
       12.52048517334200      -11.86169668042800       -6.10928001384600      h
       14.10740333173000      -11.43477966400100       -3.67059036437100      h
        3.43450966770600      -13.35426107444600        2.57515689752100      o
        2.80900109124100      -14.16074312528100        4.13442878724600      h
        5.23752002004000      -13.09726385294800        2.78691173577600      h
       -4.79482707495800       -7.96763997965400      -12.23699146747200      o
       -4.11968901290300       -6.62608503774300      -13.28592272974800      h
       -6.61211957879700       -8.03267926573400      -12.50340962534900      h
       12.53102935772400       -2.01141356225300        1.60660216673000      o
       12.94569775315000       -3.61044911623800        2.41689978666100      h
       11.85104572804200       -2.44927120243200       -0.06076176138000      h
      -13.00004479897700        6.46284517082200      -11.39967827264500      o
      -11.49241512305300        7.14870304253100      -12.18941001697600      h
      -13.14912142842300        4.79245591203200      -12.12914810152700      h
       15.02375863146500       12.00112770964500       -0.23776957970600      o
       16.40050799726400       11.34389398799900        0.78171185417200      h
       13.67104556552600       12.36503473618700        0.95752228374300      h
       23.72721206047300       -5.31338796077500        5.25332410561300      o
       24.88740070822400       -3.92104422967800        5.14160534694900      h
       23.42553339064500       -5.81192543383300        3.52203214722400      h
       15.12460643754800       10.42239968191400        6.83212163311800      o
       15.62708116482600        9.14079373800000        8.06885000935200      h
       16.62337843844600       10.82702643779500        5.87171684739400      h
       10.31898534207600       -8.99288088305200       -9.84159789009100      o
        9.88870487726600       -8.87473109653300       -8.05361548377900      h
       10.39560417411000      -10.76187578978700      -10.20971105277700      h
       -3.57315264076200      -13.77267429027500       -6.99872727675400      o
       -4.45873180208100      -13.32915745944900       -5.45160625288400      h
       -4.86980447950500      -14.01135278696600       -8.25981969538900      h
       17.41981297268900        1.80500105201000        9.43763505597300      o
       16.47572724156700        0.68404812274100        8.32429318542500      h
       18.81357506613200        0.82219265355400       10.04790956814700      h
      -15.30457089048000       -6.46753017882900       -7.06255227010300      o
      -13.71623559976900       -5.61288003891200       -7.45956908749300      h
      -15.55855175863000       -6.12739011120800       -5.27331978834500      h
       10.24605481649000       -5.44383837827800       10.73566652335000      o
        8.60449352850100       -5.97002887633500       11.35344266966400      h
       10.78131788202700       -3.96446921774400       11.71005939125200      h
       14.43363901464700        8.75877377780700       -4.19549985027700      o
       15.02588579732200        9.92052205606900       -2.89516500803500      h
       15.58061362803100        7.32825961172300       -4.20965022684500      h
      -13.54967465457600        1.35875994765900      -12.83702758769300      o
      -15.14686054366700        1.24447199658600      -11.96935513990200      h
      -13.11822088878100       -0.36351807313100      -13.33181736172900      h
       -7.79656776937100      -12.98798370719900      -10.17616468175500      o
       -9.42659148580900      -12.63820052509400       -9.43377310374200      h
       -7.85656542289800      -12.32187588786400      -11.86417369295100      h
       11.61400379222600       10.90982623251800       -7.83847775620600      o
       12.78471399564700        9.84723186744600       -6.89903328007700      h
       11.07632994811600       12.15562576007100       -6.61339551722200      h
        9.79100887044900      -13.67113052779300       -7.21231224656200      o
        8.06554164459000      -13.04416363318400       -7.47905827094700      h
        9.61747896574400      -15.21468573857500       -6.28557850445000      h
       22.23017303596900       -5.95862521983700        0.08430617861400      o
       21.70783644633600       -5.38795326824900       -1.59677883229500      h
       21.48735655137600       -7.63737305869900        0.12874481189900      h
       16.62353700024800        0.85415957121800        1.23104659637100      o
       17.83651177150000        0.41460385504800        2.55234306194500      h
       15.13483185142900       -0.24960268209600        1.35207548166400      h
       -2.09890939380100       15.16092423283600        4.50825783651400      o
       -3.42097681238200       15.86251849748800        3.41775308844500      h
       -2.81292869538600       15.10606950816400        6.18910624315200      h
        1.90116003321800        1.38696881589400      -12.30663718486300      o
        2.65563472530900       -0.26182400638300      -12.59661009205100      h
        1.14167982463900        1.32589111709000      -10.61197157205900      h
       -8.13134032365600        7.71038397020300       -8.18822401835600      o
       -8.18534959023000        7.39686336691800      -10.01373906165200      h
       -7.43307619567800        6.18292796538500       -7.43502498123200      h
      -16.55944424860600       -9.85531280104500        3.51553707315400      o
      -18.25819373077400       -9.22863698394700        3.43588078652500      h
      -16.08980673262500      -10.26301570044800        1.76824325746700      h
        6.79095724332500        4.97913707289700       -6.88713024195300      o
        6.76197058411000        6.41677574542800       -8.06764144513700      h
        8.58279960272700        4.70032025771500       -6.60497616885500      h
       10.94549170291300        6.45801190814600       12.63493119904700      o
        9.30169784431000        5.80681205726800       13.12957337206800      h
       10.58585641302900        7.70285651994900       11.31795916362700      h
       -3.22327030492600       15.51465817843300       -3.09697980710700      o
       -4.46504180395100       15.40656262667100       -4.41373088802000      h
       -1.58146204033800       15.33398403325200       -3.88386428849900      h
      -17.30412972129600       -0.98866022096300       10.82103243684400      o
      -17.34988369700500        0.24613470182000        9.46294525240900      h
      -17.53176897548500       -2.61976041317400       10.05677195539400      h
        4.97766426622300      -11.84535501620000       -7.91085377346000      o
        3.86128984321800      -13.31924988651300       -7.87690998494500      h
        4.24385747036800      -10.75845051977500       -6.60245197648900      h
       -7.07860650758100      -12.82077844274700       10.12885127074400      o
       -7.64021566875300      -13.21262866000700        8.43426005267100      h
       -8.20642487831000      -11.55451508970700       10.79852482285400      h
        0.43426785535000       -2.32845526997900        9.03381499480900      o
        0.65758737573100       -0.98508436095700       10.23645753145200      h
       -1.00079606935500       -3.35702740155500        9.54433641082800      h
        1.51707530573000      -15.34414387175300       -6.85607824417900      o
       -0.25164128915900      -14.95863179986200       -7.09551150176000      h
        1.71475709859500      -15.60303586401300       -5.05269756886400      h
      -20.82346841245600       -6.39495150093900        2.21579767335400      o
      -20.58870599050300       -7.08344447680900        0.52047570033500      h
      -22.21399539485100       -5.23209273505100        2.07389086163700      h
      -14.72061498315300       -7.20252241489000        9.88680914066500      o
      -16.09984749949400       -6.57280825219100        8.86593101789700      h
      -14.05826750265100       -8.67988311289100        9.02927693529400      h
       -1.95162857697200        1.14116934635500      -15.45234652808000      o
       -2.17034951898700       -0.66620042648800      -15.68977932007100      h
       -0.36889751857400        1.28684935384400      -14.47472226754400      h
       14.41232728519000      -11.84236877658000        0.04167780716800      o
       14.91520250624500      -11.89975829271300        1.82564934101700      h
       13.18382694033400      -13.24453007731300       -0.14356573579900      h
        8.05033714279400       -4.83895583362700      -11.47239187073200      o
        7.20303698291900       -4.61616265578000       -9.83920050324900      h
        8.89410475291400       -6.47144779218200      -11.29871765200200      h
       -3.37910960195100      -14.94707435614300        4.71239557402800      o
       -5.09179898338800      -15.40791843719800        5.13231788588200      h
       -3.24158198937000      -15.07339402547300        2.87352010194100      h
       -8.40284427679300       14.25832617524000        6.10798445080600      o
       -7.14373942202300       14.69073725465800        7.37402463684900      h
       -7.83502726553300       15.02396661319100        4.55631341150200      h
      -12.04382354997600      -13.25797177584700       -3.66887836317800      o
      -13.30015944147000      -12.26552327135100       -2.76200000657600      h
      -12.04562682455400      -12.55138612286600       -5.36113975438000      h
        6.62529895313300      -13.27055333953700       -2.74065603196900      o
        5.20428357163300      -14.40606438114900       -2.82387472999100      h
        6.15685142007000      -11.98300266247300       -1.50091052117400      h
       18.18392379672600       -0.23802442644600       -8.30168055483000      o
       19.93543624002300       -0.51408532029500       -7.80707364239300      h
       18.15272671864200        1.31191630721200       -9.27167714481900      h
       11.61702058021200       -1.38464804666800      -11.71466751330200      o
       10.49357051907300       -2.83237274349200      -12.01635265695300      h
       11.31624918614200       -1.05721847174600       -9.89266610549400      h
       15.12977615024500       -1.80207405038500        6.36681345906700      o
       15.36174060313900       -2.92273783155400        7.81675515554100      h
       16.19211998414300       -2.52383151668300        5.05749642567800      h
      -19.59684126770700       -2.59125485229700       -2.92418086446100      o
      -20.57750400196700       -2.22172930711300       -1.39516634123700      h
      -17.87727350170000       -1.94700609187200       -2.60958268369300      h
      -20.56654900212500       -0.23657391079100        5.61375295453900      o
      -21.69870446417100        1.07745521566800        6.17909786221700      h
      -19.17850530576500        0.67148383700400        4.78500429893800      h
      -12.82709647557400        5.39760279778500       10.25080204523500      o
      -11.99501774792800        5.59172057714600        8.57706892922800      h
      -13.73933498597400        6.96370946835500       10.48172746293000      h
      -17.71347436906100        1.98314487190900        2.14705179942900      o
      -16.46073047356600        3.32633941791100        2.14048102766200      h
      -19.10847373732600        2.60880998174400        1.12038200469900      h
[...]
   385   8 o      387   1 h                                       0.9887173
   388   8 o      389   1 h                                       0.9777215
   388   8 o      390   1 h                                       0.9733766
   391   8 o      392   1 h                                       0.9562699
   391   8 o      393   1 h                                       0.9809149
   394   8 o      395   1 h                                       0.9626396
   394   8 o      396   1 h                                       0.9769438
   397   8 o      398   1 h                                       0.9774838
   397   8 o      399   1 h                                       0.9653419
   400   8 o      401   1 h                                       0.9738526
   400   8 o      402   1 h                                       0.9859021
   403   8 o      404   1 h                                       0.9706384
   403   8 o      405   1 h                                       0.9826005
   406   8 o      407   1 h                                       0.9641002
   406   8 o      408   1 h                                       0.9715696
   409   8 o      410   1 h                                       0.9832162
   409   8 o      411   1 h                                       0.9876337
   412   8 o      413   1 h                                       0.9691577
   412   8 o      414   1 h                                       0.9879065
   415   8 o      416   1 h                                       0.9919527
   415   8 o      417   1 h                                       0.9554544
   418   8 o      419   1 h                                       0.9718660
   418   8 o      420   1 h                                       0.9588798
   421   8 o      422   1 h                                       0.9756556
   421   8 o      423   1 h                                       0.9739066
   424   8 o      425   1 h                                       0.9772930
   424   8 o      426   1 h                                       0.9626458
   427   8 o      428   1 h                                       0.9788513
   427   8 o      429   1 h                                       0.9697128
   430   8 o      431   1 h                                       0.9706317
   430   8 o      432   1 h                                       0.9829843
   433   8 o      434   1 h                                       0.9903969
   433   8 o      435   1 h                                       0.9608669
   436   8 o      437   1 h                                       0.9622180
   436   8 o      438   1 h                                       0.9920859
   439   8 o      440   1 h                                       0.9761211
   439   8 o      441   1 h                                       0.9653143
   442   8 o      443   1 h                                       0.9786193
   442   8 o      444   1 h                                       0.9724123
   445   8 o      446   1 h                                       0.9810762
   445   8 o      447   1 h                                       0.9699269
   448   8 o      449   1 h                                       0.9749736
   448   8 o      450   1 h                                       0.9680777
   451   8 o      452   1 h                                       0.9689260
   451   8 o      453   1 h                                       0.9686494
   454   8 o      455   1 h                                       0.9670680
   454   8 o      456   1 h                                       0.9737532
   457   8 o      458   1 h                                       0.9705459
   457   8 o      459   1 h                                       0.9707039
   460   8 o      461   1 h                                       0.9688300
   460   8 o      462   1 h                                       0.9740407
   463   8 o      464   1 h                                       0.9604096
   463   8 o      465   1 h                                       0.9733168
   466   8 o      467   1 h                                       0.9740889
   466   8 o      468   1 h                                       0.9759745
   469   8 o      470   1 h                                       0.9650362
   469   8 o      471   1 h                                       0.9792010
   472   8 o      473   1 h                                       0.9802645
   472   8 o      474   1 h                                       0.9690801
   475   8 o      476   1 h                                       0.9718288
   475   8 o      477   1 h                                       0.9666048
   478   8 o      479   1 h                                       0.9744986
   478   8 o      480   1 h                                       0.9665961
   481   8 o      482   1 h                                       0.9726389
   481   8 o      483   1 h                                       0.9597215
   484   8 o      485   1 h                                       0.9710285
   484   8 o      486   1 h                                       0.9601829
   487   8 o      488   1 h                                       0.9721650
   487   8 o      489   1 h                                       0.9865332
   490   8 o      491   1 h                                       0.9659937
   490   8 o      492   1 h                                       0.9837790
   493   8 o      494   1 h                                       0.9780295
   493   8 o      495   1 h                                       0.9788941
   496   8 o      497   1 h                                       0.9770595
   496   8 o      498   1 h                                       0.9565273
   499   8 o      500   1 h                                       0.9744990
   499   8 o      501   1 h                                       0.9630575
   502   8 o      503   1 h                                       0.9861745
   502   8 o      504   1 h                                       0.9702482
   505   8 o      506   1 h                                       0.9693970
   505   8 o      507   1 h                                       0.9725582
   508   8 o      509   1 h                                       0.9736641
   508   8 o      510   1 h                                       0.9806498
   511   8 o      512   1 h                                       0.9710114
   511   8 o      513   1 h                                       0.9677653
   514   8 o      515   1 h                                       0.9709700
   514   8 o      516   1 h                                       0.9744600
   517   8 o      518   1 h                                       0.9608816
   517   8 o      519   1 h                                       0.9666609
   520   8 o      521   1 h                                       0.9792627
   520   8 o      522   1 h                                       0.9660084
   523   8 o      524   1 h                                       0.9751779
   523   8 o      525   1 h                                       0.9570242
   526   8 o      527   1 h                                       0.9720946
   526   8 o      528   1 h                                       0.9654589
   529   8 o      530   1 h                                       0.9739397
   529   8 o      531   1 h                                       0.9585152
   532   8 o      533   1 h                                       0.9773115
   532   8 o      534   1 h                                       0.9731042
   535   8 o      536   1 h                                       0.9690227
   535   8 o      537   1 h                                       0.9792612
   538   8 o      539   1 h                                       0.9745035
   538   8 o      540   1 h                                       0.9703042
   541   8 o      542   1 h                                       0.9637595
   541   8 o      543   1 h                                       0.9753543
   544   8 o      545   1 h                                       0.9657261
   544   8 o      546   1 h                                       0.9608136
   547   8 o      548   1 h                                       0.9732007
   547   8 o      549   1 h                                       0.9673870
   550   8 o      551   1 h                                       0.9816884
   550   8 o      552   1 h                                       0.9571397
   553   8 o      554   1 h                                       0.9792709
   553   8 o      555   1 h                                       0.9717207
   556   8 o      557   1 h                                       0.9772374
   556   8 o      558   1 h                                       0.9827866
   559   8 o      560   1 h                                       0.9799496
   559   8 o      561   1 h                                       0.9668293
   562   8 o      563   1 h                                       0.9717046
   562   8 o      564   1 h                                       0.9832495
   565   8 o      566   1 h                                       0.9805809
   565   8 o      567   1 h                                       0.9740317
   568   8 o      569   1 h                                       0.9590843
   568   8 o      570   1 h                                       0.9814515
   571   8 o      572   1 h                                       0.9845047
   571   8 o      573   1 h                                       0.9711590
   574   8 o      575   1 h                                       0.9715542
   574   8 o      576   1 h                                       0.9776743
   577   8 o      578   1 h                                       0.9594780
   577   8 o      579   1 h                                       0.9681724
   580   8 o      581   1 h                                       0.9716151
   580   8 o      582   1 h                                       0.9607740
   583   8 o      584   1 h                                       0.9785931
   583   8 o      585   1 h                                       0.9802998
   586   8 o      587   1 h                                       0.9671923
   586   8 o      588   1 h                                       0.9647672
   589   8 o      590   1 h                                       0.9614244
   589   8 o      591   1 h                                       0.9725929
   592   8 o      593   1 h                                       0.9662821
   592   8 o      594   1 h                                       0.9697504
   595   8 o      596   1 h                                       0.9762213
   595   8 o      597   1 h                                       0.9621635
   598   8 o      599   1 h                                       0.9672536
   598   8 o      600   1 h                                       0.9695158
   601   8 o      602   1 h                                       0.9715554
   601   8 o      603   1 h                                       0.9874523
   604   8 o      605   1 h                                       0.9812966
   604   8 o      606   1 h                                       0.9913546
   607   8 o      608   1 h                                       0.9807453
   607   8 o      609   1 h                                       0.9767782
   610   8 o      611   1 h                                       0.9644997
   610   8 o      612   1 h                                       0.9780956
   613   8 o      614   1 h                                       0.9721869
   613   8 o      615   1 h                                       0.9636701
   616   8 o      617   1 h                                       0.9737095
   616   8 o      618   1 h                                       0.9704331
   619   8 o      620   1 h                                       0.9635670
   619   8 o      621   1 h                                       0.9777900
   622   8 o      623   1 h                                       0.9741234
   622   8 o      624   1 h                                       0.9677121
   625   8 o      626   1 h                                       0.9827693
   625   8 o      627   1 h                                       0.9924525
   628   8 o      629   1 h                                       0.9774787
   628   8 o      630   1 h                                       0.9705491
   631   8 o      632   1 h                                       0.9809259
   631   8 o      633   1 h                                       0.9858818
   634   8 o      635   1 h                                       0.9653770
   634   8 o      636   1 h                                       0.9812006
   637   8 o      638   1 h                                       0.9944337
   637   8 o      639   1 h                                       0.9668455
   640   8 o      641   1 h                                       0.9719565
   640   8 o      642   1 h                                       0.9745386
   643   8 o      644   1 h                                       0.9692069
   643   8 o      645   1 h                                       0.9689247
   646   8 o      647   1 h                                       0.9664957
   646   8 o      648   1 h                                       0.9820354
   649   8 o      650   1 h                                       0.9862971
   649   8 o      651   1 h                                       0.9561488
   652   8 o      653   1 h                                       0.9714697
   652   8 o      654   1 h                                       0.9678786
   655   8 o      656   1 h                                       0.9761780
   655   8 o      657   1 h                                       0.9741386
   658   8 o      659   1 h                                       0.9683798
   658   8 o      660   1 h                                       0.9679205
   661   8 o      662   1 h                                       0.9727782
   661   8 o      663   1 h                                       0.9692276
   664   8 o      665   1 h                                       0.9573321
   664   8 o      666   1 h                                       0.9862624
   667   8 o      668   1 h                                       0.9795455
   667   8 o      669   1 h                                       0.9580699
   670   8 o      671   1 h                                       0.9726125
   670   8 o      672   1 h                                       0.9654516
   673   8 o      674   1 h                                       0.9914284
   673   8 o      675   1 h                                       0.9627853
   676   8 o      677   1 h                                       0.9734228
   676   8 o      678   1 h                                       0.9720579
   679   8 o      680   1 h                                       0.9573824
   679   8 o      681   1 h                                       0.9889233
   682   8 o      683   1 h                                       0.9722282
   682   8 o      684   1 h                                       0.9724287
   685   8 o      686   1 h                                       0.9907513
   685   8 o      687   1 h                                       0.9576494
   688   8 o      689   1 h                                       0.9891871
   688   8 o      690   1 h                                       0.9669403
   691   8 o      692   1 h                                       0.9675974
   691   8 o      693   1 h                                       0.9715057
   694   8 o      695   1 h                                       0.9788496
   694   8 o      696   1 h                                       0.9626648
   697   8 o      698   1 h                                       0.9657783
   697   8 o      699   1 h                                       0.9877478
   700   8 o      701   1 h                                       0.9767905
   700   8 o      702   1 h                                       0.9726518
   703   8 o      704   1 h                                       0.9720284
   703   8 o      705   1 h                                       0.9787662
   706   8 o      707   1 h                                       0.9724367
   706   8 o      708   1 h                                       0.9785362
   709   8 o      710   1 h                                       0.9946853
   709   8 o      711   1 h                                       0.9563946
   712   8 o      713   1 h                                       0.9938477
   712   8 o      714   1 h                                       0.9554359 (min)
   715   8 o      716   1 h                                       0.9564148
   715   8 o      717   1 h                                       0.9895740
   718   8 o      719   1 h                                       0.9656893
   718   8 o      720   1 h                                       0.9721025
   721   8 o      722   1 h                                       0.9706459
   721   8 o      723   1 h                                       0.9748842
   724   8 o      725   1 h                                       0.9817860
   724   8 o      726   1 h                                       0.9912143
   727   8 o      728   1 h                                       0.9568560
   727   8 o      729   1 h                                       0.9744707
   730   8 o      731   1 h                                       0.9765129
   730   8 o      732   1 h                                       0.9770694
   733   8 o      734   1 h                                       0.9678219
   733   8 o      735   1 h                                       0.9595337
   736   8 o      737   1 h                                       0.9812138
   736   8 o      738   1 h                                       0.9608131
   739   8 o      740   1 h                                       0.9790505
   739   8 o      741   1 h                                       0.9587623
   742   8 o      743   1 h                                       0.9641152
   742   8 o      744   1 h                                       0.9757457
   745   8 o      746   1 h                                       0.9790692
   745   8 o      747   1 h                                       0.9624154
   748   8 o      749   1 h                                       0.9639517
   748   8 o      750   1 h                                       0.9643019
   751   8 o      752   1 h                                       0.9615412
   751   8 o      753   1 h                                       0.9629464
   754   8 o      755   1 h                                       0.9850913
   754   8 o      756   1 h                                       0.9716545

 * 1 distinct bonds (by element types)

   Z      Z             #   av. dist./Å        max./Å        min./Å
   1 H    8 O         503     0.9734299     0.9972902     0.9554359


optimized geometry written to: xtbopt.coord


           -------------------------------------------------
          | TOTAL ENERGY            -1283.327038791882 Eh   |
          | GRADIENT NORM               0.007071902266 Eh/α |
          | HOMO-LUMO GAP               6.631817272369 eV   |
           -------------------------------------------------

------------------------------------------------------------------------
 * finished run on 2022/11/24 at 12:09:01.975     
------------------------------------------------------------------------
 total:
 * wall-time:     0 d,  0 h,  4 min, 17.975 sec
 *  cpu-time:     0 d,  0 h,  6 min, 22.282 sec
 * ratio c/w:     1.482 speedup
 SCF:
 * wall-time:     0 d,  0 h,  0 min, 21.051 sec
 *  cpu-time:     0 d,  0 h,  0 min, 33.856 sec
 * ratio c/w:     1.608 speedup
 ANC optimizer:
 * wall-time:     0 d,  0 h,  3 min, 55.884 sec
 *  cpu-time:     0 d,  0 h,  5 min, 46.682 sec
 * ratio c/w:     1.470 speedup

