      -----------------------------------------------------------      
     |                   =====================                   |     
     |                           x T B                           |     
     |                   =====================                   |     
     |                         S. Grimme                         |     
     |          Mulliken Center for Theoretical Chemistry        |     
     |                    University of Bonn                     |     
      -----------------------------------------------------------      

   * xtb version 6.5.1 (579679a) compiled by 'ehlert@majestix' on 2022-07-11

   xtb is free software: you can redistribute it and/or modify it under
   the terms of the GNU Lesser General Public License as published by
   the Free Software Foundation, either version 3 of the License, or
   (at your option) any later version.
   
   xtb is distributed in the hope that it will be useful,
   but WITHOUT ANY WARRANTY; without even the implied warranty of
   MERCHANTABILITY or FITNESS FOR A PARTICULAR PURPOSE.  See the
   GNU Lesser General Public License for more details.
   
   Cite this work as:
   * C. Bannwarth, E. Caldeweyher, S. Ehlert, A. Hansen, P. Pracht,
     J. Seibert, S. Spicher, S. Grimme, WIREs Comput. Mol. Sci., 2020, 11,
     e01493. DOI: 10.1002/wcms.1493
   
   for GFN2-xTB:
   * C. Bannwarth, S. Ehlert and S. Grimme., J. Chem. Theory Comput., 2019,
     15, 1652-1671. DOI: 10.1021/acs.jctc.8b01176
   for GFN1-xTB:
   * S. Grimme, C. Bannwarth, P. Shushkov, J. Chem. Theory Comput., 2017,
     13, 1989-2009. DOI: 10.1021/acs.jctc.7b00118
   for GFN0-xTB:
   * P. Pracht, E. Caldeweyher, S. Ehlert, S. Grimme, ChemRxiv, 2019, preprint.
     DOI: 10.26434/chemrxiv.8326202.v1
   for GFN-FF:
   * S. Spicher and S. Grimme, Angew. Chem. Int. Ed., 2020, 59, 15665-15673.
     DOI: 10.1002/anie.202004239
   
   for ALPB and GBSA implicit solvation:
   * S. Ehlert, M. Stahn, S. Spicher, S. Grimme, J. Chem. Theory Comput.,
     2021, 17, 4250-4261. DOI: 10.1021/acs.jctc.1c00471
   
   for DFT-D4:
   * E. Caldeweyher, C. Bannwarth and S. Grimme, J. Chem. Phys., 2017,
     147, 034112. DOI: 10.1063/1.4993215
   * E. Caldeweyher, S. Ehlert, A. Hansen, H. Neugebauer, S. Spicher,
     C. Bannwarth and S. Grimme, J. Chem. Phys., 2019, 150, 154122.
     DOI: 10.1063/1.5090222
   * E. Caldeweyher, J.-M. Mewes, S. Ehlert and S. Grimme, Phys. Chem. Chem. Phys.
     2020, 22, 8499-8512. DOI: 10.1039/D0CP00502A
   
   for sTDA-xTB:
   * S. Grimme and C. Bannwarth, J. Chem. Phys., 2016, 145, 054103.
     DOI: 10.1063/1.4959605
   
   in the mass-spec context:
   * V. Asgeirsson, C. Bauer and S. Grimme, Chem. Sci., 2017, 8, 4879.
     DOI: 10.1039/c7sc00601b
   * J. Koopman and S. Grimme, ACS Omega 2019, 4, 12, 15120-15133.
     DOI: 10.1021/acsomega.9b02011
   
   for metadynamics refer to:
   * S. Grimme, J. Chem. Theory Comput., 2019, 155, 2847-2862
     DOI: 10.1021/acs.jctc.9b00143
   
   for SPH calculations refer to:
   * S. Spicher and S. Grimme, J. Chem. Theory Comput., 2021, 17, 1701-1714
     DOI: 10.1021/acs.jctc.0c01306
   
   with help from (in alphabetical order)
   P. Atkinson, C. Bannwarth, F. Bohle, G. Brandenburg, E. Caldeweyher
   M. Checinski, S. Dohm, S. Ehlert, S. Ehrlich, I. Gerasimov, C. Hölzer
   A. Katbashev, J. Koopman, C. Lavigne, S. Lehtola, F. März, M. Müller,
   F. Musil, H. Neugebauer, J. Pisarek, C. Plett, P. Pracht, F. Pultar,
   J. Seibert, P. Shushkov, S. Spicher, M. Stahn, M. Steiner, T. Strunk,
   J. Stückrath, T. Rose, and J. Unsleber
   
 * started run on 2022/11/24 at 12:21:16.685     

           -------------------------------------------------
          |                Calculation Setup                |
           -------------------------------------------------

          program call               : xtb xtbopt.coord --gfn2 --sp --gbsa water
          hostname                   : cn0430
          coordinate file            : xtbopt.coord
          omp threads                :                     2

   ID    Z sym.   atoms
    1    8 o      1, 4, 7, 10, 13, 16, 19, 22, 25, 28, 31, 34, 37, 40, 43,
                  46, 49, 52, 55, 58, 61, 64, 67, 70, 73, 76, 79, 82, 85, 88,
                  91, 94, 97, 100, 103, 106, 109, 112, 115, 118, 121, 124,
                  127, 130, 133, 136, 139, 142, 145, 148, 151, 154, 157, 160,
                  163, 166, 169, 172, 175, 178, 181, 184, 187, 190, 193, 196,
                  199, 202, 205, 208, 211, 214, 217, 220, 223, 226, 229, 232,
                  235, 238, 241, 244, 247, 250, 253, 256, 259, 262, 265, 268,
                  271, 274, 277, 280, 283, 286, 289, 292, 295, 298, 301, 304,
                  307, 310, 313, 316, 319, 322, 325, 328, 331, 334, 337, 340,
                  343, 346, 349, 352, 355, 358, 361, 364, 367, 370, 373, 376,
                  379, 382, 385, 388, 391, 394, 397, 400, 403, 406, 409, 412,
                  415, 418, 421, 424, 427, 430, 433, 436, 439, 442, 445, 448,
                  451, 454, 457, 460, 463, 466, 469, 472, 475, 478, 481, 484,
                  487, 490, 493, 496, 499, 502, 505, 508, 511, 514, 517, 520,
                  523, 526, 529, 532, 535, 538, 541, 544, 547, 550, 553, 556,
                  559, 562, 565, 568, 571, 574, 577, 580, 583, 586, 589, 592,
                  595, 598, 601, 604, 607, 610, 613, 616, 619, 622, 625, 628,
                  631, 634, 637, 640, 643, 646, 649, 652, 655, 658, 661, 664,
                  667, 670, 673, 676, 679, 682, 685, 688, 691, 694, 697, 700,
                  703, 706, 709, 712, 715, 718, 721, 724, 727, 730, 733, 736,
                  739, 742, 745, 748, 751, 754
    2    1 h      2, 3, 5, 6, 8, 9, 11, 12, 14, 15, 17, 18, 20, 21, 23, 24,
                  26, 27, 29, 30, 32, 33, 35, 36, 38, 39, 41, 42, 44, 45, 47,
                  48, 50, 51, 53, 54, 56, 57, 59, 60, 62, 63, 65, 66, 68, 69,
                  71, 72, 74, 75, 77, 78, 80, 81, 83, 84, 86, 87, 89, 90, 92,
                  93, 95, 96, 98, 99, 101, 102, 104, 105, 107, 108, 110, 111,
                  113, 114, 116, 117, 119, 120, 122, 123, 125, 126, 128, 129,
                  131, 132, 134, 135, 137, 138, 140, 141, 143, 144, 146, 147,
                  149, 150, 152, 153, 155, 156, 158, 159, 161, 162, 164, 165,
                  167, 168, 170, 171, 173, 174, 176, 177, 179, 180, 182, 183,
                  185, 186, 188, 189, 191, 192, 194, 195, 197, 198, 200, 201,
                  203, 204, 206, 207, 209, 210, 212, 213, 215, 216, 218, 219,
                  221, 222, 224, 225, 227, 228, 230, 231, 233, 234, 236, 237,
                  239, 240, 242, 243, 245, 246, 248, 249, 251, 252, 254, 255,
                  257, 258, 260, 261, 263, 264, 266, 267, 269, 270, 272, 273,
                  275, 276, 278, 279, 281, 282, 284, 285, 287, 288, 290, 291,
                  293, 294, 296, 297, 299, 300, 302, 303, 305, 306, 308, 309,
                  311, 312, 314, 315, 317, 318, 320, 321, 323, 324, 326, 327,
                  329, 330, 332, 333, 335, 336, 338, 339, 341, 342, 344, 345,
                  347, 348, 350, 351, 353, 354, 356, 357, 359, 360, 362, 363,
                  365, 366, 368, 369, 371, 372, 374, 375, 377, 378, 380, 381,
                  383, 384, 386, 387, 389, 390, 392, 393, 395, 396, 398, 399,
                  401, 402, 404, 405, 407, 408, 410, 411, 413, 414, 416, 417,
                  419, 420, 422, 423, 425, 426, 428, 429, 431, 432, 434, 435,
                  437, 438, 440, 441, 443, 444, 446, 447, 449, 450, 452, 453,
                  455, 456, 458, 459, 461, 462, 464, 465, 467, 468, 470, 471,
                  473, 474, 476, 477, 479, 480, 482, 483, 485, 486, 488, 489,
                  491, 492, 494, 495, 497, 498, 500, 501, 503, 504, 506, 507,
                  509, 510, 512, 513, 515, 516, 518, 519, 521, 522, 524, 525,
                  527, 528, 530, 531, 533, 534, 536, 537, 539, 540, 542, 543,
                  545, 546, 548, 549, 551, 552, 554, 555, 557, 558, 560, 561,
                  563, 564, 566, 567, 569, 570, 572, 573, 575, 576, 578, 579,
                  581, 582, 584, 585, 587, 588, 590, 591, 593, 594, 596, 597,
                  599, 600, 602, 603, 605, 606, 608, 609, 611, 612, 614, 615,
                  617, 618, 620, 621, 623, 624, 626, 627, 629, 630, 632, 633,
                  635, 636, 638, 639, 641, 642, 644, 645, 647, 648, 650, 651,
                  653, 654, 656, 657, 659, 660, 662, 663, 665, 666, 668, 669,
                  671, 672, 674, 675, 677, 678, 680, 681, 683, 684, 686, 687,
                  689, 690, 692, 693, 695, 696, 698, 699, 701, 702, 704, 705,
                  707, 708, 710, 711, 713, 714, 716, 717, 719, 720, 722, 723,
                  725, 726, 728, 729, 731, 732, 734, 735, 737, 738, 740, 741,
                  743, 744, 746, 747, 749, 750, 752, 753, 755, 756

molecular fragmentation (1/2 indicates fragments):
111222222222222222222222222222222222222222222222222222222222222222222222
222222222222222222222222222222222222222222222222222222222222222222222222
222222222222222222222222222222222222222222222222222222222222222222222222
222222222222222222222222222222222222222222222222222222222222222222222222
222222222222222222222222222222222222222222222222222222222222222222222222
222222222222222222222222222222222222222222222222222222222222222222222222
222222222222222222222222222222222222222222222222222222222222222222222222
222222222222222222222222222222222222222222222222222222222222222222222222
222222222222222222222222222222222222222222222222222222222222222222222222
222222222222222222222222222222222222222222222222222222222222222222222222
222222222222222222222222222222222222
# atoms in fragment 1/2:     3   753
 fragment masses (1/2) :       18.02     4521.84
CMA distance (Bohr)    :  18.428
constraining FC (au)   :  0.0500

           -------------------------------------------------
          |                 G F N 2 - x T B                 |
           -------------------------------------------------

        Reference                      10.1021/acs.jctc.8b01176
      * Hamiltonian:
        H0-scaling (s, p, d)           1.850000    2.230000    2.230000
        zeta-weighting                 0.500000
      * Dispersion:
        s8                             2.700000
        a1                             0.520000
        a2                             5.000000
        s9                             5.000000
      * Repulsion:
        kExp                           1.500000    1.000000
        rExp                           1.000000
      * Coulomb:
        alpha                          2.000000
        third order                    shell-resolved
        anisotropic                    true
        a3                             3.000000
        a5                             4.000000
        cn-shift                       1.200000
        cn-exp                         4.000000
        max-rad                        5.000000

      * Solvation model:               GBSA
        Solvent                        water
        Parameter file                 internal GFN2-xTB/GBSA
        Dielectric constant                8.0200E+01
        Reference state                gsolv [1 M gas/solution]
        Free energy shift                  1.8574E-03 Eh       1.1656E+00 kcal/mol
        Temperature                        2.9815E+02 K
        Density                            1.0000E+00 kg/L
        Solvent mass                       1.8000E+01 g/mol
        Interaction kernel             Still
        Born radius scaling (c1)           1.5524E+00
        Born radii integrator          GBOBC
        Born offset                        2.4628E-02 a0       4.6540E-02 AA
        H-bond correction              true
        Ion screening                  false
        Surface tension                    1.0000E-05 Eh       1.5569E+01 dyn/cm
        Grid points                               230 per atom

          ...................................................
          :                      SETUP                      :
          :.................................................:
          :  # basis functions                1512          :
          :  # atomic orbitals                1512          :
          :  # shells                         1008          :
          :  # electrons                      2016          :
          :  max. iterations                   250          :
          :  Hamiltonian                  GFN2-xTB          :
          :  restarted?                      false          :
          :  GBSA solvation                   true          :
          :  PC potential                    false          :
          :  electronic temp.          300.0000000     K    :
          :  accuracy                    1.0000000          :
          :  -> integral cutoff          0.2500000E+02      :
          :  -> integral neglect         0.1000000E-07      :
          :  -> SCF convergence          0.1000000E-05 Eh   :
          :  -> wf. convergence          0.1000000E-03 e    :
          :  Broyden damping             0.4000000          :
          ...................................................

 iter      E             dE          RMSdq      gap      omega  full diag
   1  -1291.2490594 -0.129125E+04  0.409E+00    8.36       0.0  T
   2  -1291.3317207 -0.826613E-01  0.242E+00    7.92       1.0  T
   3  -1291.3672565 -0.355358E-01  0.223E-01    7.11       1.0  T
   4  -1291.3726367 -0.538014E-02  0.474E-02    7.30       1.0  T
   5  -1291.3727856 -0.148921E-03  0.308E-02    7.26       1.0  T
   6  -1291.3728325 -0.468780E-04  0.362E-03    7.27       1.0  T
   7  -1291.3728340 -0.153191E-05  0.918E-04    7.27       4.0  T
   8  -1291.3728341 -0.879625E-07  0.462E-04    7.27       7.9  T
   9  -1291.3728341 -0.334649E-07  0.132E-04    7.27      27.5  T

   *** convergence criteria satisfied after 9 iterations ***

         #    Occupation            Energy/Eh            Energy/eV
      -------------------------------------------------------------
         1        2.0000           -0.6565564             -17.8658
       ...           ...                  ...                  ...
      1002        2.0000           -0.3307529              -9.0002
      1003        2.0000           -0.3296212              -8.9694
      1004        2.0000           -0.3264773              -8.8839
      1005        2.0000           -0.3260343              -8.8718
      1006        2.0000           -0.3219230              -8.7600
      1007        2.0000           -0.3196806              -8.6990
      1008        2.0000           -0.3182945              -8.6612 (HOMO)
      1009                         -0.0512561              -1.3948 (LUMO)
      1010                         -0.0449285              -1.2226
      1011                         -0.0344166              -0.9365
      1012                         -0.0304310              -0.8281
      1013                         -0.0272437              -0.7413
       ...                                ...                  ...
      1512                          0.5015558              13.6480
      -------------------------------------------------------------
                  HL-Gap            0.2670384 Eh            7.2665 eV
             Fermi-level           -0.1847753 Eh           -5.0280 eV

 SCC (total)                   0 d,  0 h,  0 min, 21.435 sec
 SCC setup                      ...        0 min,  0.117 sec (  0.547%)
 Dispersion                     ...        0 min,  0.110 sec (  0.514%)
 classical contributions        ...        0 min,  0.023 sec (  0.109%)
 integral evaluation            ...        0 min,  0.608 sec (  2.836%)
 iterations                     ...        0 min,  7.989 sec ( 37.269%)
 molecular gradient             ...        0 min, 12.517 sec ( 58.397%)
 printout                       ...        0 min,  0.070 sec (  0.327%)

         :::::::::::::::::::::::::::::::::::::::::::::::::::::
         ::                     SUMMARY                     ::
         :::::::::::::::::::::::::::::::::::::::::::::::::::::
         :: total energy           -1283.567457537568 Eh    ::
         :: total w/o Gsasa/hb     -1283.337111327814 Eh    ::
         :: gradient norm              0.116951013867 Eh/a0 ::
         :: HOMO-LUMO gap              7.266483597775 eV    ::
         ::.................................................::
         :: SCC energy             -1291.372834109511 Eh    ::
         :: -> isotropic ES            7.334883794275 Eh    ::
         :: -> anisotropic ES         -1.639494630845 Eh    ::
         :: -> anisotropic XC         -0.119751085801 Eh    ::
         :: -> dispersion             -0.802978628804 Eh    ::
         :: -> Gsolv                  -0.255661064512 Eh    ::
         ::    -> Gelec               -0.025314854758 Eh    ::
         ::    -> Gsasa                0.005244542695 Eh    ::
         ::    -> Ghb                 -0.237448195576 Eh    ::
         ::    -> Gshift               0.001857443127 Eh    ::
         :: repulsion energy           7.645665957630 Eh    ::
         :: add. restraining           0.000000000000 Eh    ::
         :: total charge               0.000000000000 e     ::
         :::::::::::::::::::::::::::::::::::::::::::::::::::::

           -------------------------------------------------
          |                Property Printout                |
           -------------------------------------------------

    * Orbital Energies and Occupations

         #    Occupation            Energy/Eh            Energy/eV
      -------------------------------------------------------------
         1        2.0000           -0.6565564             -17.8658
       ...           ...                  ...                  ...
       996        2.0000           -0.3387067              -9.2167
       997        2.0000           -0.3375384              -9.1849
       998        2.0000           -0.3366912              -9.1618
       999        2.0000           -0.3360582              -9.1446
      1000        2.0000           -0.3357852              -9.1372
      1001        2.0000           -0.3348210              -9.1109
      1002        2.0000           -0.3307529              -9.0002
      1003        2.0000           -0.3296212              -8.9694
      1004        2.0000           -0.3264773              -8.8839
      1005        2.0000           -0.3260343              -8.8718
      1006        2.0000           -0.3219230              -8.7600
      1007        2.0000           -0.3196806              -8.6990
      1008        2.0000           -0.3182945              -8.6612 (HOMO)
      1009                         -0.0512561              -1.3948 (LUMO)
      1010                         -0.0449285              -1.2226
      1011                         -0.0344166              -0.9365
      1012                         -0.0304310              -0.8281
      1013                         -0.0272437              -0.7413
      1014                         -0.0208076              -0.5662
      1015                         -0.0167337              -0.4553
      1016                         -0.0089402              -0.2433
      1017                         -0.0065991              -0.1796
      1018                         -0.0036182              -0.0985
      1019                          0.0010114               0.0275
       ...                                ...                  ...
      1512                          0.5015558              13.6480
      -------------------------------------------------------------
                  HL-Gap            0.2670384 Eh            7.2665 eV
             Fermi-level           -0.1847753 Eh           -5.0280 eV

     #   Z          covCN         q      C6AA      α(0)
     1   8 o        1.608    -0.691    27.465     7.073
     2   1 h        0.803     0.342     0.609     1.226
     3   1 h        0.804     0.340     0.611     1.228
     4   8 o        1.607    -0.697    27.620     7.093
     5   1 h        0.803     0.356     0.575     1.191
     6   1 h        0.804     0.358     0.570     1.186
     7   8 o        1.608    -0.682    27.224     7.042
     8   1 h        0.804     0.337     0.621     1.238
     9   1 h        0.804     0.349     0.591     1.208
    10   8 o        1.606    -0.690    27.452     7.071
    11   1 h        0.802     0.363     0.558     1.174
    12   1 h        0.805     0.333     0.629     1.246
    13   8 o        1.606    -0.698    27.663     7.098
    14   1 h        0.803     0.351     0.587     1.204
    15   1 h        0.803     0.348     0.592     1.209
    16   8 o        1.606    -0.698    27.666     7.099
    17   1 h        0.803     0.339     0.615     1.232
    18   1 h        0.803     0.363     0.559     1.174
    19   8 o        1.604    -0.705    27.849     7.122
    20   1 h        0.802     0.344     0.603     1.220
    21   1 h        0.803     0.363     0.558     1.174
    22   8 o        1.608    -0.679    27.155     7.033
    23   1 h        0.804     0.349     0.590     1.207
    24   1 h        0.804     0.339     0.614     1.231
    25   8 o        1.608    -0.692    27.490     7.076
    26   1 h        0.803     0.359     0.567     1.183
    27   1 h        0.804     0.353     0.581     1.197
    28   8 o        1.606    -0.686    27.346     7.058
    29   1 h        0.803     0.344     0.602     1.218
    30   1 h        0.803     0.340     0.613     1.230
    31   8 o        1.607    -0.690    27.446     7.071
    32   1 h        0.803     0.347     0.596     1.213
    33   1 h        0.803     0.353     0.581     1.198
    34   8 o        1.608    -0.693    27.520     7.080
    35   1 h        0.804     0.346     0.597     1.214
    36   1 h        0.804     0.336     0.623     1.240
    37   8 o        1.606    -0.703    27.799     7.116
    38   1 h        0.803     0.343     0.605     1.221
    39   1 h        0.804     0.354     0.579     1.195
    40   8 o        1.610    -0.669    26.899     7.000
    41   1 h        0.804     0.335     0.623     1.240
    42   1 h        0.804     0.343     0.604     1.221
    43   8 o        1.607    -0.688    27.399     7.065
    44   1 h        0.803     0.346     0.599     1.216
    45   1 h        0.803     0.357     0.573     1.189
    46   8 o        1.607    -0.692    27.488     7.076
    47   1 h        0.803     0.351     0.587     1.203
    48   1 h        0.805     0.346     0.598     1.215
    49   8 o        1.607    -0.700    27.718     7.106
    50   1 h        0.804     0.335     0.625     1.242
    51   1 h        0.804     0.353     0.581     1.197
    52   8 o        1.609    -0.669    26.906     7.001
    53   1 h        0.805     0.337     0.620     1.237
    54   1 h        0.804     0.336     0.622     1.239
    55   8 o        1.608    -0.667    26.848     6.993
    56   1 h        0.804     0.326     0.648     1.264
    57   1 h        0.804     0.351     0.586     1.203
    58   8 o        1.607    -0.684    27.297     7.051
    59   1 h        0.804     0.331     0.636     1.253
    60   1 h        0.803     0.347     0.596     1.213
    61   8 o        1.608    -0.685    27.302     7.052
    62   1 h        0.804     0.340     0.613     1.230
    63   1 h        0.804     0.341     0.610     1.227
    64   8 o        1.607    -0.683    27.266     7.047
    65   1 h        0.804     0.348     0.594     1.210
    66   1 h        0.803     0.335     0.624     1.241
    67   8 o        1.609    -0.693    27.527     7.081
    68   1 h        0.804     0.337     0.619     1.236
    69   1 h        0.804     0.326     0.649     1.265
    70   8 o        1.609    -0.664    26.770     6.983
    71   1 h        0.805     0.319     0.665     1.281
    72   1 h        0.804     0.333     0.629     1.246
    73   8 o        1.607    -0.654    26.515     6.950
    74   1 h        0.805     0.327     0.644     1.261
    75   1 h        0.802     0.342     0.607     1.224
    76   8 o        1.608    -0.665    26.785     6.985
    77   1 h        0.804     0.334     0.626     1.243
    78   1 h        0.804     0.341     0.609     1.226
    79   8 o        1.606    -0.697    27.624     7.093
    80   1 h        0.803     0.355     0.576     1.192
    81   1 h        0.803     0.345     0.600     1.216
    82   8 o        1.605    -0.721    28.283     7.178
    83   1 h        0.803     0.353     0.580     1.197
    84   1 h        0.804     0.342     0.608     1.225
    85   8 o        1.605    -0.717    28.173     7.164
    86   1 h        0.804     0.337     0.620     1.237
    87   1 h        0.803     0.351     0.587     1.203
    88   8 o        1.606    -0.706    27.861     7.124
    89   1 h        0.803     0.352     0.583     1.199
    90   1 h        0.803     0.349     0.590     1.206
    91   8 o        1.610    -0.659    26.646     6.967
    92   1 h        0.805     0.334     0.627     1.244
    93   1 h        0.805     0.318     0.669     1.285
    94   8 o        1.607    -0.692    27.509     7.079
    95   1 h        0.803     0.352     0.583     1.199
    96   1 h        0.804     0.345     0.599     1.216
    97   8 o        1.608    -0.698    27.650     7.097
    98   1 h        0.804     0.345     0.600     1.217
    99   1 h        0.804     0.333     0.629     1.246
   100   8 o        1.607    -0.709    27.946     7.135
   101   1 h        0.804     0.346     0.598     1.215
   102   1 h        0.803     0.346     0.597     1.214
   103   8 o        1.609    -0.695    27.572     7.087
   104   1 h        0.805     0.336     0.621     1.238
   105   1 h        0.803     0.345     0.601     1.218
   106   8 o        1.608    -0.672    26.977     7.010
   107   1 h        0.804     0.362     0.561     1.177
   108   1 h        0.805     0.333     0.630     1.247
   109   8 o        1.610    -0.664    26.769     6.983
   110   1 h        0.804     0.352     0.583     1.200
   111   1 h        0.805     0.333     0.628     1.245
   112   8 o        1.609    -0.687    27.363     7.060
   113   1 h        0.804     0.350     0.589     1.205
   114   1 h        0.802     0.360     0.566     1.181
   115   8 o        1.607    -0.678    27.134     7.030
   116   1 h        0.804     0.348     0.593     1.210
   117   1 h        0.803     0.349     0.590     1.207
   118   8 o        1.608    -0.675    27.049     7.019
   119   1 h        0.804     0.356     0.573     1.190
   120   1 h        0.805     0.326     0.648     1.265
   121   8 o        1.607    -0.690    27.450     7.071
   122   1 h        0.803     0.347     0.596     1.213
   123   1 h        0.802     0.364     0.557     1.172
   124   8 o        1.609    -0.685    27.310     7.053
   125   1 h        0.804     0.346     0.598     1.215
   126   1 h        0.805     0.334     0.627     1.244
   127   8 o        1.609    -0.685    27.302     7.052
   128   1 h        0.804     0.340     0.611     1.228
   129   1 h        0.804     0.340     0.613     1.230
   130   8 o        1.608    -0.689    27.424     7.068
   131   1 h        0.805     0.347     0.596     1.212
   132   1 h        0.803     0.359     0.568     1.184
   133   8 o        1.608    -0.688    27.400     7.065
   134   1 h        0.803     0.349     0.590     1.207
   135   1 h        0.803     0.361     0.564     1.180
   136   8 o        1.603    -0.699    27.677     7.100
   137   1 h        0.804     0.331     0.636     1.253
   138   1 h        0.802     0.361     0.564     1.179
   139   8 o        1.608    -0.675    27.061     7.021
   140   1 h        0.804     0.325     0.651     1.268
   141   1 h        0.804     0.343     0.606     1.223
   142   8 o        1.609    -0.680    27.193     7.038
   143   1 h        0.803     0.339     0.614     1.231
   144   1 h        0.805     0.333     0.629     1.246
   145   8 o        1.609    -0.678    27.134     7.030
   146   1 h        0.804     0.345     0.599     1.216
   147   1 h        0.805     0.321     0.662     1.278
   148   8 o        1.607    -0.705    27.833     7.120
   149   1 h        0.803     0.350     0.588     1.204
   150   1 h        0.803     0.347     0.595     1.212
   151   8 o        1.608    -0.685    27.314     7.054
   152   1 h        0.805     0.336     0.621     1.238
   153   1 h        0.803     0.357     0.572     1.188
   154   8 o        1.606    -0.676    27.090     7.025
   155   1 h        0.804     0.340     0.612     1.229
   156   1 h        0.802     0.337     0.620     1.237
   157   8 o        1.610    -0.682    27.223     7.042
   158   1 h        0.804     0.346     0.597     1.214
   159   1 h        0.805     0.336     0.622     1.239
   160   8 o        1.609    -0.680    27.173     7.035
   161   1 h        0.805     0.326     0.649     1.265
   162   1 h        0.804     0.337     0.619     1.236
   163   8 o        1.608    -0.699    27.691     7.102
   164   1 h        0.804     0.346     0.598     1.214
   165   1 h        0.804     0.356     0.574     1.191
   166   8 o        1.608    -0.664    26.770     6.983
   167   1 h        0.805     0.334     0.626     1.243
   168   1 h        0.804     0.357     0.572     1.188
   169   8 o        1.608    -0.693    27.531     7.082
   170   1 h        0.804     0.355     0.576     1.192
   171   1 h        0.804     0.354     0.578     1.194
   172   8 o        1.606    -0.701    27.733     7.107
   173   1 h        0.803     0.329     0.641     1.258
   174   1 h        0.803     0.363     0.559     1.175
   175   8 o        1.608    -0.682    27.237     7.044
   176   1 h        0.803     0.348     0.594     1.210
   177   1 h        0.804     0.350     0.588     1.205
   178   8 o        1.608    -0.672    26.980     7.010
   179   1 h        0.803     0.343     0.604     1.221
   180   1 h        0.805     0.326     0.649     1.265
   181   8 o        1.608    -0.672    26.966     7.009
   182   1 h        0.804     0.340     0.611     1.228
   183   1 h        0.804     0.342     0.609     1.225
   184   8 o        1.607    -0.669    26.904     7.001
   185   1 h        0.803     0.347     0.596     1.213
   186   1 h        0.803     0.340     0.611     1.228
   187   8 o        1.606    -0.712    28.024     7.145
   188   1 h        0.803     0.335     0.624     1.241
   189   1 h        0.803     0.338     0.618     1.235
   190   8 o        1.605    -0.711    27.996     7.141
   191   1 h        0.803     0.351     0.586     1.203
   192   1 h        0.803     0.351     0.585     1.202
   193   8 o        1.608    -0.668    26.877     6.997
   194   1 h        0.802     0.358     0.569     1.185
   195   1 h        0.805     0.317     0.672     1.288
   196   8 o        1.608    -0.678    27.132     7.030
   197   1 h        0.805     0.319     0.666     1.282
   198   1 h        0.803     0.361     0.563     1.179
   199   8 o        1.606    -0.697    27.641     7.096
   200   1 h        0.803     0.342     0.607     1.224
   201   1 h        0.804     0.347     0.596     1.213
   202   8 o        1.608    -0.678    27.136     7.031
   203   1 h        0.804     0.354     0.580     1.196
   204   1 h        0.804     0.327     0.644     1.261
   205   8 o        1.608    -0.670    26.925     7.003
   206   1 h        0.804     0.342     0.608     1.224
   207   1 h        0.803     0.338     0.617     1.234
   208   8 o        1.605    -0.699    27.682     7.101
   209   1 h        0.801     0.372     0.540     1.155
   210   1 h        0.805     0.324     0.653     1.269
   211   8 o        1.608    -0.683    27.255     7.046
   212   1 h        0.805     0.323     0.656     1.272
   213   1 h        0.804     0.343     0.605     1.222
   214   8 o        1.607    -0.694    27.547     7.084
   215   1 h        0.805     0.333     0.630     1.246
   216   1 h        0.803     0.356     0.574     1.190
   217   8 o        1.607    -0.692    27.487     7.076
   218   1 h        0.804     0.354     0.579     1.195
   219   1 h        0.803     0.351     0.586     1.203
   220   8 o        1.610    -0.656    26.554     6.955
   221   1 h        0.804     0.341     0.611     1.228
   222   1 h        0.805     0.320     0.665     1.281
   223   8 o        1.609    -0.669    26.903     7.000
   224   1 h        0.805     0.317     0.673     1.289
   225   1 h        0.804     0.364     0.557     1.173
   226   8 o        1.607    -0.674    27.025     7.016
   227   1 h        0.803     0.332     0.633     1.249
   228   1 h        0.803     0.341     0.610     1.227
   229   8 o        1.605    -0.705    27.848     7.122
   230   1 h        0.802     0.353     0.583     1.199
   231   1 h        0.803     0.348     0.594     1.210
   232   8 o        1.609    -0.664    26.782     6.985
   233   1 h        0.804     0.333     0.631     1.247
   234   1 h        0.805     0.330     0.637     1.254
   235   8 o        1.608    -0.667    26.857     6.994
   236   1 h        0.804     0.325     0.650     1.267
   237   1 h        0.804     0.354     0.579     1.195
   238   8 o        1.608    -0.675    27.053     7.020
   239   1 h        0.803     0.366     0.552     1.167
   240   1 h        0.805     0.320     0.664     1.280
   241   8 o        1.606    -0.699    27.698     7.103
   242   1 h        0.803     0.337     0.621     1.238
   243   1 h        0.803     0.353     0.581     1.197
   244   8 o        1.606    -0.693    27.535     7.082
   245   1 h        0.803     0.371     0.543     1.157
   246   1 h        0.803     0.337     0.620     1.237
   247   8 o        1.608    -0.678    27.138     7.031
   248   1 h        0.803     0.350     0.589     1.206
   249   1 h        0.804     0.332     0.633     1.249
   250   8 o        1.606    -0.691    27.483     7.075
   251   1 h        0.802     0.342     0.607     1.224
   252   1 h        0.803     0.359     0.568     1.184
   253   8 o        1.609    -0.673    26.993     7.012
   254   1 h        0.803     0.352     0.584     1.201
   255   1 h        0.805     0.310     0.693     1.307
   256   8 o        1.608    -0.678    27.125     7.029
   257   1 h        0.804     0.324     0.654     1.270
   258   1 h        0.803     0.356     0.574     1.190
   259   8 o        1.608    -0.669    26.891     6.999
   260   1 h        0.803     0.359     0.568     1.184
   261   1 h        0.805     0.322     0.659     1.275
   262   8 o        1.607    -0.685    27.318     7.054
   263   1 h        0.803     0.354     0.580     1.196
   264   1 h        0.805     0.346     0.598     1.215
   265   8 o        1.607    -0.672    26.986     7.011
   266   1 h        0.802     0.341     0.611     1.228
   267   1 h        0.805     0.338     0.617     1.234
   268   8 o        1.606    -0.684    27.301     7.052
   269   1 h        0.803     0.344     0.602     1.218
   270   1 h        0.803     0.332     0.633     1.250
   271   8 o        1.607    -0.695    27.571     7.087
   272   1 h        0.803     0.344     0.602     1.219
   273   1 h        0.804     0.347     0.595     1.212
   274   8 o        1.608    -0.698    27.663     7.099
   275   1 h        0.803     0.348     0.592     1.209
   276   1 h        0.805     0.322     0.659     1.275
   277   8 o        1.607    -0.694    27.554     7.084
   278   1 h        0.803     0.358     0.571     1.187
   279   1 h        0.803     0.351     0.585     1.201
   280   8 o        1.608    -0.680    27.196     7.038
   281   1 h        0.804     0.352     0.583     1.200
   282   1 h        0.805     0.318     0.670     1.286
   283   8 o        1.606    -0.682    27.236     7.044
   284   1 h        0.805     0.320     0.665     1.281
   285   1 h        0.801     0.371     0.542     1.156
   286   8 o        1.610    -0.663    26.740     6.979
   287   1 h        0.805     0.331     0.636     1.252
   288   1 h        0.805     0.344     0.603     1.220
   289   8 o        1.605    -0.715    28.109     7.155
   290   1 h        0.802     0.356     0.575     1.191
   291   1 h        0.804     0.329     0.639     1.256
   292   8 o        1.608    -0.690    27.449     7.071
   293   1 h        0.804     0.334     0.627     1.244
   294   1 h        0.804     0.340     0.613     1.230
   295   8 o        1.608    -0.659    26.644     6.967
   296   1 h        0.803     0.361     0.563     1.178
   297   1 h        0.806     0.307     0.699     1.313
   298   8 o        1.608    -0.677    27.100     7.026
   299   1 h        0.804     0.355     0.576     1.193
   300   1 h        0.804     0.329     0.639     1.256
   301   8 o        1.607    -0.690    27.459     7.072
   302   1 h        0.802     0.360     0.566     1.182
   303   1 h        0.804     0.351     0.585     1.202
   304   8 o        1.606    -0.684    27.293     7.051
   305   1 h        0.804     0.327     0.646     1.263
   306   1 h        0.803     0.346     0.598     1.215
   307   8 o        1.607    -0.690    27.439     7.070
   308   1 h        0.804     0.346     0.597     1.214
   309   1 h        0.803     0.332     0.633     1.250
   310   8 o        1.609    -0.693    27.524     7.081
   311   1 h        0.805     0.320     0.664     1.280
   312   1 h        0.804     0.349     0.590     1.206
   313   8 o        1.606    -0.685    27.317     7.054
   314   1 h        0.804     0.327     0.645     1.261
   315   1 h        0.802     0.359     0.569     1.185
   316   8 o        1.608    -0.657    26.596     6.960
   317   1 h        0.802     0.355     0.576     1.192
   318   1 h        0.806     0.319     0.665     1.281
   319   8 o        1.607    -0.684    27.279     7.049
   320   1 h        0.804     0.338     0.618     1.235
   321   1 h        0.803     0.338     0.617     1.234
   322   8 o        1.607    -0.686    27.344     7.057
   323   1 h        0.804     0.324     0.653     1.269
   324   1 h        0.803     0.343     0.606     1.223
   325   8 o        1.607    -0.696    27.615     7.092
   326   1 h        0.804     0.320     0.665     1.281
   327   1 h        0.803     0.356     0.574     1.190
   328   8 o        1.608    -0.693    27.525     7.081
   329   1 h        0.804     0.327     0.646     1.263
   330   1 h        0.804     0.362     0.560     1.176
   331   8 o        1.608    -0.648    26.358     6.929
   332   1 h        0.805     0.313     0.684     1.299
   333   1 h        0.802     0.345     0.601     1.218
   334   8 o        1.607    -0.677    27.101     7.026
   335   1 h        0.803     0.344     0.602     1.219
   336   1 h        0.804     0.354     0.580     1.196
   337   8 o        1.610    -0.688    27.396     7.064
   338   1 h        0.805     0.355     0.578     1.194
   339   1 h        0.805     0.328     0.643     1.259
   340   8 o        1.609    -0.675    27.041     7.018
   341   1 h        0.804     0.348     0.594     1.211
   342   1 h        0.805     0.326     0.649     1.265
   343   8 o        1.607    -0.675    27.060     7.021
   344   1 h        0.804     0.329     0.639     1.256
   345   1 h        0.803     0.331     0.634     1.251
   346   8 o        1.609    -0.683    27.251     7.046
   347   1 h        0.805     0.323     0.657     1.273
   348   1 h        0.804     0.345     0.599     1.216
   349   8 o        1.609    -0.649    26.400     6.935
   350   1 h        0.804     0.335     0.624     1.241
   351   1 h        0.805     0.317     0.672     1.288
   352   8 o        1.608    -0.683    27.258     7.046
   353   1 h        0.805     0.327     0.646     1.263
   354   1 h        0.803     0.352     0.583     1.199
   355   8 o        1.606    -0.678    27.138     7.031
   356   1 h        0.802     0.338     0.617     1.234
   357   1 h        0.805     0.317     0.671     1.286
   358   8 o        1.609    -0.688    27.388     7.063
   359   1 h        0.805     0.339     0.614     1.231
   360   1 h        0.804     0.339     0.616     1.232
   361   8 o        1.606    -0.706    27.882     7.127
   362   1 h        0.802     0.356     0.574     1.190
   363   1 h        0.804     0.323     0.656     1.273
   364   8 o        1.607    -0.684    27.283     7.050
   365   1 h        0.804     0.343     0.604     1.221
   366   1 h        0.803     0.349     0.591     1.208
   367   8 o        1.608    -0.670    26.914     7.002
   368   1 h        0.803     0.328     0.644     1.261
   369   1 h        0.804     0.350     0.588     1.204
   370   8 o        1.609    -0.662    26.710     6.975
   371   1 h        0.805     0.332     0.632     1.249
   372   1 h        0.805     0.331     0.634     1.251
   373   8 o        1.610    -0.647    26.327     6.925
   374   1 h        0.805     0.337     0.620     1.237
   375   1 h        0.805     0.334     0.628     1.245
   376   8 o        1.606    -0.683    27.255     7.046
   377   1 h        0.803     0.327     0.646     1.263
   378   1 h        0.803     0.355     0.577     1.193
   379   8 o        1.607    -0.680    27.176     7.036
   380   1 h        0.804     0.357     0.572     1.188
   381   1 h        0.803     0.327     0.646     1.263
   382   8 o        1.610    -0.642    26.219     6.911
   383   1 h        0.805     0.313     0.682     1.297
   384   1 h        0.804     0.336     0.623     1.240
   385   8 o        1.607    -0.676    27.080     7.023
   386   1 h        0.806     0.310     0.692     1.307
   387   1 h        0.802     0.357     0.572     1.188
   388   8 o        1.607    -0.688    27.388     7.063
   389   1 h        0.803     0.361     0.563     1.178
   390   1 h        0.804     0.338     0.617     1.233
   391   8 o        1.608    -0.666    26.814     6.989
   392   1 h        0.806     0.321     0.662     1.278
   393   1 h        0.803     0.350     0.588     1.205
   394   8 o        1.609    -0.673    27.011     7.014
   395   1 h        0.805     0.326     0.648     1.264
   396   1 h        0.803     0.353     0.582     1.199
   397   8 o        1.608    -0.680    27.175     7.036
   398   1 h        0.803     0.361     0.562     1.178
   399   1 h        0.805     0.317     0.671     1.287
   400   8 o        1.606    -0.688    27.393     7.064
   401   1 h        0.804     0.336     0.623     1.240
   402   1 h        0.802     0.337     0.620     1.237
   403   8 o        1.607    -0.682    27.227     7.042
   404   1 h        0.804     0.320     0.665     1.281
   405   1 h        0.803     0.360     0.565     1.181
   406   8 o        1.609    -0.670    26.917     7.002
   407   1 h        0.805     0.334     0.627     1.244
   408   1 h        0.804     0.343     0.605     1.222
   409   8 o        1.604    -0.701    27.732     7.107
   410   1 h        0.802     0.324     0.652     1.269
   411   1 h        0.802     0.360     0.565     1.181
   412   8 o        1.606    -0.715    28.106     7.155
   413   1 h        0.804     0.346     0.596     1.213
   414   1 h        0.803     0.359     0.568     1.184
   415   8 o        1.607    -0.671    26.948     7.006
   416   1 h        0.801     0.354     0.580     1.197
   417   1 h        0.806     0.312     0.686     1.301
   418   8 o        1.610    -0.643    26.228     6.912
   419   1 h        0.804     0.350     0.588     1.205
   420   1 h        0.805     0.329     0.640     1.256
   421   8 o        1.607    -0.675    27.061     7.021
   422   1 h        0.804     0.336     0.623     1.239
   423   1 h        0.804     0.346     0.599     1.216
   424   8 o        1.608    -0.667    26.845     6.993
   425   1 h        0.803     0.334     0.626     1.243
   426   1 h        0.805     0.329     0.640     1.256
   427   8 o        1.607    -0.681    27.201     7.039
   428   1 h        0.803     0.355     0.576     1.193
   429   1 h        0.804     0.319     0.667     1.283
   430   8 o        1.607    -0.706    27.861     7.124
   431   1 h        0.804     0.342     0.607     1.223
   432   1 h        0.803     0.352     0.585     1.201
   433   8 o        1.607    -0.677    27.104     7.026
   434   1 h        0.801     0.366     0.552     1.168
   435   1 h        0.805     0.316     0.675     1.290
   436   8 o        1.606    -0.698    27.661     7.098
   437   1 h        0.805     0.317     0.671     1.287
   438   1 h        0.801     0.369     0.546     1.161
   439   8 o        1.608    -0.682    27.242     7.044
   440   1 h        0.803     0.339     0.614     1.231
   441   1 h        0.805     0.337     0.621     1.237
   442   8 o        1.608    -0.677    27.106     7.027
   443   1 h        0.803     0.359     0.569     1.185
   444   1 h        0.804     0.354     0.579     1.195
   445   8 o        1.608    -0.703    27.804     7.117
   446   1 h        0.803     0.343     0.606     1.223
   447   1 h        0.804     0.332     0.633     1.250
   448   8 o        1.608    -0.695    27.587     7.089
   449   1 h        0.804     0.364     0.557     1.172
   450   1 h        0.804     0.326     0.647     1.263
   451   8 o        1.609    -0.654    26.514     6.950
   452   1 h        0.804     0.323     0.657     1.273
   453   1 h        0.804     0.342     0.607     1.224
   454   8 o        1.608    -0.671    26.949     7.006
   455   1 h        0.805     0.342     0.607     1.224
   456   1 h        0.804     0.352     0.583     1.199
   457   8 o        1.609    -0.674    27.026     7.016
   458   1 h        0.804     0.339     0.614     1.231
   459   1 h        0.804     0.318     0.669     1.285
   460   8 o        1.608    -0.689    27.409     7.066
   461   1 h        0.804     0.338     0.617     1.234
   462   1 h        0.804     0.334     0.628     1.245
   463   8 o        1.609    -0.663    26.733     6.978
   464   1 h        0.805     0.318     0.669     1.285
   465   1 h        0.804     0.339     0.614     1.231
   466   8 o        1.607    -0.682    27.226     7.042
   467   1 h        0.804     0.336     0.622     1.239
   468   1 h        0.804     0.345     0.599     1.216
   469   8 o        1.608    -0.657    26.591     6.960
   470   1 h        0.805     0.323     0.655     1.271
   471   1 h        0.803     0.342     0.607     1.223
   472   8 o        1.608    -0.665    26.788     6.985
   473   1 h        0.803     0.342     0.606     1.223
   474   1 h        0.804     0.331     0.635     1.252
   475   8 o        1.609    -0.666    26.826     6.990
   476   1 h        0.804     0.337     0.620     1.237
   477   1 h        0.805     0.348     0.593     1.210
   478   8 o        1.608    -0.685    27.308     7.053
   479   1 h        0.804     0.342     0.607     1.223
   480   1 h        0.805     0.322     0.659     1.275
   481   8 o        1.609    -0.661    26.703     6.974
   482   1 h        0.804     0.345     0.600     1.216
   483   1 h        0.805     0.314     0.680     1.295
   484   8 o        1.609    -0.665    26.785     6.985
   485   1 h        0.804     0.342     0.606     1.223
   486   1 h        0.805     0.316     0.673     1.289
   487   8 o        1.606    -0.698    27.647     7.096
   488   1 h        0.804     0.330     0.637     1.254
   489   1 h        0.802     0.369     0.547     1.162
   490   8 o        1.607    -0.693    27.527     7.081
   491   1 h        0.805     0.330     0.637     1.254
   492   1 h        0.802     0.342     0.607     1.224
   493   8 o        1.607    -0.693    27.539     7.083
   494   1 h        0.803     0.328     0.642     1.258
   495   1 h        0.803     0.356     0.574     1.191
   496   8 o        1.609    -0.658    26.605     6.962
   497   1 h        0.803     0.347     0.595     1.211
   498   1 h        0.806     0.316     0.676     1.291
   499   8 o        1.609    -0.658    26.610     6.962
   500   1 h        0.804     0.337     0.620     1.237
   501   1 h        0.805     0.332     0.632     1.249
   502   8 o        1.606    -0.674    27.035     7.017
   503   1 h        0.803     0.335     0.625     1.242
   504   1 h        0.804     0.337     0.620     1.237
   505   8 o        1.608    -0.680    27.177     7.036
   506   1 h        0.804     0.322     0.659     1.275
   507   1 h        0.804     0.328     0.643     1.260
   508   8 o        1.607    -0.693    27.531     7.082
   509   1 h        0.804     0.354     0.579     1.195
   510   1 h        0.803     0.358     0.570     1.186
   511   8 o        1.609    -0.666    26.834     6.991
   512   1 h        0.804     0.335     0.625     1.242
   513   1 h        0.805     0.334     0.628     1.245
   514   8 o        1.608    -0.687    27.363     7.060
   515   1 h        0.804     0.322     0.658     1.274
   516   1 h        0.804     0.339     0.614     1.231
   517   8 o        1.610    -0.653    26.486     6.946
   518   1 h        0.805     0.323     0.656     1.273
   519   1 h        0.805     0.339     0.616     1.232
   520   8 o        1.608    -0.665    26.787     6.985
   521   1 h        0.803     0.347     0.595     1.212
   522   1 h        0.805     0.331     0.634     1.250
   523   8 o        1.609    -0.667    26.839     6.992
   524   1 h        0.804     0.359     0.568     1.184
   525   1 h        0.806     0.306     0.703     1.317
   526   8 o        1.609    -0.663    26.746     6.980
   527   1 h        0.804     0.353     0.582     1.198
   528   1 h        0.805     0.329     0.640     1.257
   529   8 o        1.609    -0.671    26.944     7.006
   530   1 h        0.804     0.357     0.571     1.187
   531   1 h        0.806     0.309     0.695     1.309
   532   8 o        1.607    -0.702    27.776     7.113
   533   1 h        0.803     0.354     0.579     1.195
   534   1 h        0.804     0.347     0.596     1.212
   535   8 o        1.608    -0.673    27.012     7.014
   536   1 h        0.804     0.334     0.628     1.245
   537   1 h        0.803     0.341     0.609     1.226
   538   8 o        1.608    -0.669    26.899     7.000
   539   1 h        0.804     0.335     0.626     1.243
   540   1 h        0.804     0.342     0.608     1.225
   541   8 o        1.609    -0.674    27.021     7.016
   542   1 h        0.805     0.332     0.633     1.249
   543   1 h        0.804     0.333     0.631     1.248
   544   8 o        1.610    -0.648    26.356     6.929
   545   1 h        0.805     0.343     0.605     1.221
   546   1 h        0.805     0.329     0.640     1.257
   547   8 o        1.609    -0.680    27.177     7.036
   548   1 h        0.804     0.349     0.591     1.208
   549   1 h        0.805     0.328     0.642     1.259
   550   8 o        1.608    -0.667    26.850     6.993
   551   1 h        0.803     0.349     0.591     1.208
   552   1 h        0.806     0.308     0.696     1.311
   553   8 o        1.607    -0.683    27.265     7.047
   554   1 h        0.803     0.342     0.609     1.226
   555   1 h        0.804     0.335     0.625     1.242
   556   8 o        1.607    -0.693    27.519     7.080
   557   1 h        0.803     0.341     0.609     1.226
   558   1 h        0.803     0.363     0.559     1.174
   559   8 o        1.608    -0.678    27.140     7.031
   560   1 h        0.803     0.336     0.623     1.240
   561   1 h        0.805     0.325     0.651     1.267
   562   8 o        1.607    -0.682    27.230     7.043
   563   1 h        0.804     0.341     0.610     1.227
   564   1 h        0.802     0.362     0.560     1.176
   565   8 o        1.607    -0.685    27.307     7.053
   566   1 h        0.803     0.336     0.622     1.239
   567   1 h        0.804     0.362     0.560     1.175
   568   8 o        1.608    -0.666    26.835     6.991
   569   1 h        0.805     0.316     0.675     1.291
   570   1 h        0.803     0.346     0.598     1.215
   571   8 o        1.607    -0.677    27.117     7.028
   572   1 h        0.803     0.338     0.618     1.235
   573   1 h        0.804     0.344     0.602     1.219
   574   8 o        1.607    -0.692    27.510     7.079
   575   1 h        0.804     0.339     0.615     1.231
   576   1 h        0.803     0.347     0.596     1.213
   577   8 o        1.610    -0.646    26.320     6.924
   578   1 h        0.805     0.321     0.660     1.276
   579   1 h        0.804     0.339     0.613     1.230
   580   8 o        1.609    -0.672    26.984     7.011
   581   1 h        0.804     0.347     0.595     1.212
   582   1 h        0.805     0.329     0.640     1.256
   583   8 o        1.606    -0.690    27.451     7.071
   584   1 h        0.803     0.322     0.658     1.274
   585   1 h        0.803     0.357     0.572     1.188
   586   8 o        1.610    -0.664    26.771     6.983
   587   1 h        0.805     0.340     0.613     1.230
   588   1 h        0.805     0.339     0.616     1.232
   589   8 o        1.610    -0.662    26.714     6.976
   590   1 h        0.805     0.327     0.646     1.262
   591   1 h        0.804     0.345     0.600     1.216
   592   8 o        1.609    -0.679    27.152     7.033
   593   1 h        0.805     0.334     0.628     1.245
   594   1 h        0.804     0.336     0.622     1.238
   595   8 o        1.609    -0.664    26.782     6.985
   596   1 h        0.803     0.341     0.609     1.226
   597   1 h        0.805     0.325     0.650     1.267
   598   8 o        1.609    -0.667    26.842     6.993
   599   1 h        0.805     0.335     0.625     1.241
   600   1 h        0.804     0.341     0.609     1.226
   601   8 o        1.606    -0.704    27.809     7.117
   602   1 h        0.804     0.325     0.650     1.266
   603   1 h        0.802     0.349     0.591     1.207
   604   8 o        1.604    -0.693    27.528     7.081
   605   1 h        0.803     0.336     0.622     1.239
   606   1 h        0.802     0.336     0.621     1.238
   607   8 o        1.606    -0.687    27.372     7.061
   608   1 h        0.803     0.359     0.567     1.183
   609   1 h        0.803     0.334     0.626     1.243
   610   8 o        1.608    -0.661    26.697     6.974
   611   1 h        0.805     0.323     0.655     1.271
   612   1 h        0.803     0.345     0.599     1.216
   613   8 o        1.609    -0.656    26.568     6.957
   614   1 h        0.804     0.338     0.618     1.235
   615   1 h        0.805     0.333     0.629     1.246
   616   8 o        1.608    -0.689    27.427     7.068
   617   1 h        0.804     0.339     0.614     1.231
   618   1 h        0.804     0.326     0.647     1.263
   619   8 o        1.608    -0.670    26.922     7.003
   620   1 h        0.805     0.321     0.661     1.277
   621   1 h        0.803     0.364     0.558     1.173
   622   8 o        1.608    -0.654    26.520     6.950
   623   1 h        0.804     0.330     0.637     1.254
   624   1 h        0.805     0.331     0.635     1.252
   625   8 o        1.603    -0.724    28.362     7.188
   626   1 h        0.803     0.332     0.633     1.250
   627   1 h        0.802     0.359     0.569     1.185
   628   8 o        1.607    -0.675    27.047     7.019
   629   1 h        0.803     0.335     0.625     1.242
   630   1 h        0.804     0.350     0.589     1.205
   631   8 o        1.605    -0.689    27.417     7.067
   632   1 h        0.803     0.339     0.615     1.232
   633   1 h        0.802     0.370     0.544     1.159
   634   8 o        1.608    -0.673    26.992     7.012
   635   1 h        0.805     0.323     0.657     1.273
   636   1 h        0.803     0.364     0.557     1.172
   637   8 o        1.605    -0.701    27.728     7.107
   638   1 h        0.802     0.362     0.562     1.178
   639   1 h        0.805     0.319     0.666     1.282
   640   8 o        1.608    -0.675    27.063     7.021
   641   1 h        0.804     0.345     0.600     1.216
   642   1 h        0.804     0.335     0.624     1.241
   643   8 o        1.609    -0.655    26.550     6.954
   644   1 h        0.804     0.327     0.645     1.262
   645   1 h        0.804     0.332     0.632     1.248
   646   8 o        1.607    -0.685    27.304     7.052
   647   1 h        0.805     0.329     0.639     1.256
   648   1 h        0.803     0.341     0.609     1.226
   649   8 o        1.608    -0.669    26.901     7.000
   650   1 h        0.802     0.356     0.575     1.192
   651   1 h        0.806     0.313     0.682     1.297
   652   8 o        1.609    -0.668    26.876     6.997
   653   1 h        0.804     0.321     0.660     1.276
   654   1 h        0.805     0.327     0.646     1.263
   655   8 o        1.607    -0.687    27.357     7.059
   656   1 h        0.804     0.333     0.630     1.247
   657   1 h        0.804     0.360     0.566     1.182
   658   8 o        1.609    -0.664    26.776     6.984
   659   1 h        0.804     0.340     0.613     1.229
   660   1 h        0.804     0.325     0.651     1.268
   661   8 o        1.608    -0.683    27.263     7.047
   662   1 h        0.804     0.358     0.570     1.186
   663   1 h        0.804     0.335     0.625     1.241
   664   8 o        1.607    -0.680    27.175     7.036
   665   1 h        0.806     0.312     0.685     1.300
   666   1 h        0.802     0.363     0.558     1.174
   667   8 o        1.609    -0.678    27.136     7.031
   668   1 h        0.803     0.358     0.570     1.186
   669   1 h        0.806     0.310     0.692     1.306
   670   8 o        1.609    -0.677    27.094     7.025
   671   1 h        0.804     0.322     0.658     1.275
   672   1 h        0.805     0.341     0.609     1.226
   673   8 o        1.607    -0.682    27.241     7.044
   674   1 h        0.803     0.364     0.557     1.172
   675   1 h        0.805     0.334     0.627     1.243
   676   8 o        1.608    -0.685    27.324     7.055
   677   1 h        0.804     0.346     0.597     1.214
   678   1 h        0.804     0.321     0.660     1.276
   679   8 o        1.607    -0.668    26.879     6.997
   680   1 h        0.806     0.315     0.677     1.292
   681   1 h        0.802     0.365     0.556     1.171
   682   8 o        1.608    -0.676    27.073     7.022
   683   1 h        0.804     0.356     0.575     1.191
   684   1 h        0.804     0.327     0.646     1.262
   685   8 o        1.607    -0.678    27.122     7.029
   686   1 h        0.801     0.365     0.554     1.170
   687   1 h        0.806     0.304     0.710     1.323
   688   8 o        1.606    -0.671    26.959     7.008
   689   1 h        0.802     0.344     0.602     1.219
   690   1 h        0.805     0.338     0.617     1.233
   691   8 o        1.609    -0.672    26.980     7.010
   692   1 h        0.805     0.336     0.621     1.238
   693   1 h        0.804     0.339     0.614     1.231
   694   8 o        1.608    -0.679    27.151     7.033
   695   1 h        0.803     0.326     0.647     1.264
   696   1 h        0.805     0.325     0.651     1.267
   697   8 o        1.606    -0.686    27.344     7.057
   698   1 h        0.805     0.325     0.651     1.267
   699   1 h        0.802     0.349     0.591     1.208
   700   8 o        1.607    -0.680    27.186     7.037
   701   1 h        0.803     0.326     0.649     1.265
   702   1 h        0.804     0.359     0.567     1.183
   703   8 o        1.607    -0.674    27.031     7.017
   704   1 h        0.804     0.333     0.630     1.247
   705   1 h        0.803     0.350     0.589     1.206
   706   8 o        1.607    -0.692    27.496     7.077
   707   1 h        0.804     0.346     0.598     1.215
   708   1 h        0.803     0.344     0.603     1.220
   709   8 o        1.606    -0.673    27.011     7.014
   710   1 h        0.801     0.357     0.574     1.190
   711   1 h        0.806     0.304     0.708     1.321
   712   8 o        1.606    -0.682    27.239     7.044
   713   1 h        0.801     0.356     0.575     1.191
   714   1 h        0.806     0.316     0.676     1.291
   715   8 o        1.607    -0.669    26.890     6.999
   716   1 h        0.806     0.315     0.677     1.293
   717   1 h        0.802     0.357     0.573     1.189
   718   8 o        1.609    -0.657    26.593     6.960
   719   1 h        0.805     0.318     0.670     1.286
   720   1 h        0.804     0.347     0.595     1.211
   721   8 o        1.608    -0.686    27.333     7.056
   722   1 h        0.804     0.328     0.642     1.259
   723   1 h        0.804     0.341     0.610     1.227
   724   8 o        1.604    -0.708    27.938     7.134
   725   1 h        0.803     0.327     0.645     1.261
   726   1 h        0.802     0.365     0.555     1.170
   727   8 o        1.609    -0.662    26.711     6.975
   728   1 h        0.806     0.319     0.666     1.282
   729   1 h        0.804     0.345     0.600     1.217
   730   8 o        1.607    -0.668    26.879     6.997
   731   1 h        0.803     0.328     0.643     1.259
   732   1 h        0.803     0.341     0.610     1.227
   733   8 o        1.610    -0.654    26.524     6.951
   734   1 h        0.805     0.332     0.632     1.248
   735   1 h        0.805     0.315     0.677     1.292
   736   8 o        1.608    -0.650    26.424     6.938
   737   1 h        0.803     0.353     0.581     1.198
   738   1 h        0.805     0.322     0.659     1.275
   739   8 o        1.609    -0.669    26.901     7.000
   740   1 h        0.803     0.356     0.574     1.190
   741   1 h        0.805     0.303     0.712     1.325
   742   8 o        1.608    -0.697    27.620     7.093
   743   1 h        0.805     0.316     0.676     1.291
   744   1 h        0.804     0.348     0.594     1.211
   745   8 o        1.608    -0.666    26.828     6.991
   746   1 h        0.803     0.340     0.613     1.230
   747   1 h        0.805     0.342     0.606     1.223
   748   8 o        1.610    -0.654    26.505     6.948
   749   1 h        0.805     0.329     0.640     1.256
   750   1 h        0.805     0.348     0.592     1.209
   751   8 o        1.611    -0.638    26.102     6.895
   752   1 h        0.805     0.332     0.631     1.248
   753   1 h        0.805     0.337     0.621     1.237
   754   8 o        1.607    -0.681    27.209     7.040
   755   1 h        0.802     0.349     0.590     1.207
   756   1 h        0.804     0.344     0.602     1.218

 Mol. C6AA /au·bohr⁶  :    2899605.576055
 Mol. C8AA /au·bohr⁸  :   52612282.403919
 Mol. α(0) /au        :       2393.148694


Wiberg/Mayer (AO) data.
largest (>0.10) Wiberg bond orders for each atom

 ---------------------------------------------------------------------------
     #   Z sym  total        # sym  WBO       # sym  WBO       # sym  WBO
 ---------------------------------------------------------------------------
     1   8 o    1.833 --     3 h    0.847     2 h    0.819
     2   1 h    0.883 --     1 o    0.819
     3   1 h    0.884 --     1 o    0.847
     4   8 o    1.864 --     6 h    0.813     5 h    0.794
     5   1 h    0.873 --     4 o    0.794
     6   1 h    0.872 --     4 o    0.813
     7   8 o    1.835 --     8 h    0.834     9 h    0.822
     8   1 h    0.887 --     7 o    0.834
     9   1 h    0.878 --     7 o    0.822
    10   8 o    1.853 --    12 h    0.850    11 h    0.774
    11   1 h    0.868 --    10 o    0.774
    12   1 h    0.889 --    10 o    0.850
    13   8 o    1.865 --    15 h    0.815    14 h    0.802
    14   1 h    0.877 --    13 o    0.802
    15   1 h    0.879 --    13 o    0.815
    16   8 o    1.863 --    17 h    0.823    18 h    0.783
    17   1 h    0.885 --    16 o    0.823
    18   1 h    0.868 --    16 o    0.783
    19   8 o    1.857 --    20 h    0.807    21 h    0.785
    20   1 h    0.882 --    19 o    0.807
    21   1 h    0.868 --    19 o    0.785
    22   8 o    1.863 --    24 h    0.827    23 h    0.815
    23   1 h    0.878 --    22 o    0.815
    24   1 h    0.885 --    22 o    0.827
    25   8 o    1.878 --    27 h    0.825    26 h    0.778
    26   1 h    0.871 --    25 o    0.778
    27   1 h    0.875 --    25 o    0.825
    28   8 o    1.879 --    30 h    0.816    29 h    0.806
    29   1 h    0.881 --    28 o    0.806
    30   1 h    0.884 --    28 o    0.816
    31   8 o    1.875 --    33 h    0.810    32 h    0.801
    32   1 h    0.880 --    31 o    0.801
    33   1 h    0.875 --    31 o    0.810
    34   8 o    1.832 --    36 h    0.828    35 h    0.810
    35   1 h    0.880 --    34 o    0.810
    36   1 h    0.887 --    34 o    0.828
    37   8 o    1.856 --    38 h    0.808    39 h    0.789
    38   1 h    0.882 --    37 o    0.808
    39   1 h    0.875 --    37 o    0.789
    40   8 o    1.848 --    41 h    0.842    42 h    0.836
    41   1 h    0.887 --    40 o    0.842
    42   1 h    0.882 --    40 o    0.836
    43   8 o    1.873 --    44 h    0.817    45 h    0.807
    44   1 h    0.881 --    43 o    0.817
    45   1 h    0.873 --    43 o    0.807
    46   8 o    1.855 --    48 h    0.829    47 h    0.798
    47   1 h    0.877 --    46 o    0.798
    48   1 h    0.880 --    46 o    0.829
    49   8 o    1.860 --    50 h    0.825    51 h    0.788
    50   1 h    0.888 --    49 o    0.825
    51   1 h    0.875 --    49 o    0.788
    52   8 o    1.837 --    53 h    0.852    54 h    0.844
    53   1 h    0.886 --    52 o    0.852
    54   1 h    0.887 --    52 o    0.844
    55   8 o    1.863 --    56 h    0.834    57 h    0.826
    56   1 h    0.894 --    55 o    0.834
    57   1 h    0.877 --    55 o    0.826
    58   8 o    1.857 --    59 h    0.826    60 h    0.799
    59   1 h    0.891 --    58 o    0.826
    60   1 h    0.880 --    58 o    0.799
    61   8 o    1.833 --    62 h    0.830    63 h    0.826
    62   1 h    0.884 --    61 o    0.830
    63   1 h    0.884 --    61 o    0.826
    64   8 o    1.870 --    65 h    0.820    66 h    0.819
    65   1 h    0.879 --    64 o    0.820
    66   1 h    0.888 --    64 o    0.819
    67   8 o    1.783 --    69 h    0.849    68 h    0.840
    68   1 h    0.886 --    67 o    0.840
    69   1 h    0.894 --    67 o    0.849
    70   8 o    1.842 --    71 h    0.855    72 h    0.828
    71   1 h    0.898 --    70 o    0.855
    72   1 h    0.889 --    70 o    0.828
    73   8 o    1.888 --    74 h    0.863    75 h    0.808
    74   1 h    0.893 --    73 o    0.863
    75   1 h    0.883 --    73 o    0.808
    76   8 o    1.873 --    77 h    0.850    78 h    0.821
    77   1 h    0.888 --    76 o    0.850
    78   1 h    0.883 --    76 o    0.821
    79   8 o    1.879 --    81 h    0.800    80 h    0.792
    80   1 h    0.874 --    79 o    0.792
    81   1 h    0.881 --    79 o    0.800
    82   8 o    1.833 --    84 h    0.809    83 h    0.779
    83   1 h    0.875 --    82 o    0.779
    84   1 h    0.883 --    82 o    0.809
    85   8 o    1.825 --    86 h    0.814    87 h    0.777
    86   1 h    0.886 --    85 o    0.814
    87   1 h    0.877 --    85 o    0.777
    88   8 o    1.851 --    90 h    0.809    89 h    0.788
    89   1 h    0.876 --    88 o    0.788
    90   1 h    0.878 --    88 o    0.809
    91   8 o    1.822 --    93 h    0.853    92 h    0.851
    92   1 h    0.888 --    91 o    0.851
    93   1 h    0.899 --    91 o    0.853
    94   8 o    1.850 --    96 h    0.821    95 h    0.804
    95   1 h    0.876 --    94 o    0.804
    96   1 h    0.880 --    94 o    0.821
    97   8 o    1.828 --    99 h    0.832    98 h    0.812
    98   1 h    0.881 --    97 o    0.812
    99   1 h    0.889 --    97 o    0.832
   100   8 o    1.814 --   101 h    0.813   102 h    0.806
   101   1 h    0.880 --   100 o    0.813
   102   1 h    0.880 --   100 o    0.806
   103   8 o    1.842 --   104 h    0.828   105 h    0.812
   104   1 h    0.887 --   103 o    0.828
   105   1 h    0.881 --   103 o    0.812
   106   8 o    1.860 --   108 h    0.855   107 h    0.809
   107   1 h    0.869 --   106 o    0.809
   108   1 h    0.889 --   106 o    0.855
   109   8 o    1.864 --   111 h    0.855   110 h    0.809
   110   1 h    0.876 --   109 o    0.809
   111   1 h    0.889 --   109 o    0.855
   112   8 o    1.877 --   113 h    0.818   114 h    0.793
   113   1 h    0.878 --   112 o    0.818
   114   1 h    0.870 --   112 o    0.793
   115   8 o    1.875 --   116 h    0.819   117 h    0.806
   116   1 h    0.879 --   115 o    0.819
   117   1 h    0.878 --   115 o    0.806
   118   8 o    1.853 --   120 h    0.854   119 h    0.814
   119   1 h    0.873 --   118 o    0.814
   120   1 h    0.894 --   118 o    0.854
   121   8 o    1.902 --   122 h    0.810   123 h    0.786
   122   1 h    0.880 --   121 o    0.810
   123   1 h    0.867 --   121 o    0.786
   124   8 o    1.819 --   126 h    0.854   125 h    0.818
   125   1 h    0.880 --   124 o    0.818
   126   1 h    0.888 --   124 o    0.854
   127   8 o    1.822 --   128 h    0.847   129 h    0.847
   128   1 h    0.884 --   127 o    0.847
   129   1 h    0.885 --   127 o    0.847
   130   8 o    1.866 --   131 h    0.842   132 h    0.786
   131   1 h    0.880 --   130 o    0.842
   132   1 h    0.871 --   130 o    0.786
   133   8 o    1.886 --   134 h    0.808   135 h    0.804
   134   1 h    0.878 --   133 o    0.808
   135   1 h    0.870 --   133 o    0.804
   136   8 o    1.860 --   137 h    0.826   138 h    0.764
   137   1 h    0.891 --   136 o    0.826
   138   1 h    0.870 --   136 o    0.764
   139   8 o    1.837 --   140 h    0.838   141 h    0.826
   140   1 h    0.894 --   139 o    0.838
   141   1 h    0.883 --   139 o    0.826
   142   8 o    1.832 --   144 h    0.858   143 h    0.821
   143   1 h    0.885 --   142 o    0.821
   144   1 h    0.889 --   142 o    0.858
   145   8 o    1.810 --   147 h    0.866   146 h    0.819
   146   1 h    0.881 --   145 o    0.819
   147   1 h    0.897 --   145 o    0.866
   148   8 o    1.846 --   150 h    0.806   149 h    0.796
   149   1 h    0.877 --   148 o    0.796
   150   1 h    0.879 --   148 o    0.806
   151   8 o    1.851 --   152 h    0.842   153 h    0.796
   152   1 h    0.887 --   151 o    0.842
   153   1 h    0.872 --   151 o    0.796
   154   8 o    1.850 --   155 h    0.839   156 h    0.815
   155   1 h    0.884 --   154 o    0.839
   156   1 h    0.887 --   154 o    0.815
   157   8 o    1.844 --   159 h    0.842   158 h    0.819
   158   1 h    0.880 --   157 o    0.819
   159   1 h    0.887 --   157 o    0.842
   160   8 o    1.796 --   161 h    0.867   162 h    0.843
   161   1 h    0.894 --   160 o    0.867
   162   1 h    0.886 --   160 o    0.843
   163   8 o    1.837 --   165 h    0.814   164 h    0.808
   164   1 h    0.880 --   163 o    0.808
   165   1 h    0.873 --   163 o    0.814
   166   8 o    1.888 --   167 h    0.851   168 h    0.802
   167   1 h    0.888 --   166 o    0.851
   168   1 h    0.872 --   166 o    0.802
   169   8 o    1.848 --   171 h    0.821   170 h    0.807
   170   1 h    0.874 --   169 o    0.807
   171   1 h    0.874 --   169 o    0.821
   172   8 o    1.826 --   173 h    0.834   174 h    0.805
   173   1 h    0.892 --   172 o    0.834
   174   1 h    0.868 --   172 o    0.805
   175   8 o    1.868 --   176 h    0.826   177 h    0.813
   176   1 h    0.879 --   175 o    0.826
   177   1 h    0.877 --   175 o    0.813
   178   8 o    1.830 --   180 h    0.868   179 h    0.822
   179   1 h    0.882 --   178 o    0.822
   180   1 h    0.894 --   178 o    0.868
   181   8 o    1.861 --   182 h    0.829   183 h    0.825
   182   1 h    0.884 --   181 o    0.829
   183   1 h    0.883 --   181 o    0.825
   184   8 o    1.887 --   185 h    0.821   186 h    0.815
   185   1 h    0.880 --   184 o    0.821
   186   1 h    0.884 --   184 o    0.815
   187   8 o    1.812 --   188 h    0.825   189 h    0.808
   188   1 h    0.887 --   187 o    0.825
   189   1 h    0.886 --   187 o    0.808
   190   8 o    1.858 --   191 h    0.801   192 h    0.792
   191   1 h    0.877 --   190 o    0.801
   192   1 h    0.877 --   190 o    0.792
   193   8 o    1.833 --   195 h    0.888   194 h    0.802
   194   1 h    0.871 --   193 o    0.802
   195   1 h    0.899 --   193 o    0.888
   196   8 o    1.841 --   197 h    0.862   198 h    0.806
   197   1 h    0.898 --   196 o    0.862
   198   1 h    0.870 --   196 o    0.806
   199   8 o    1.858 --   200 h    0.813   201 h    0.804
   200   1 h    0.883 --   199 o    0.813
   201   1 h    0.880 --   199 o    0.804
   202   8 o    1.863 --   204 h    0.827   203 h    0.822
   203   1 h    0.875 --   202 o    0.822
   204   1 h    0.893 --   202 o    0.827
   205   8 o    1.857 --   206 h    0.837   207 h    0.825
   206   1 h    0.883 --   205 o    0.837
   207   1 h    0.886 --   205 o    0.825
   208   8 o    1.838 --   210 h    0.863   209 h    0.757
   209   1 h    0.862 --   208 o    0.757
   210   1 h    0.895 --   208 o    0.863
   211   8 o    1.810 --   212 h    0.859   213 h    0.825
   212   1 h    0.896 --   211 o    0.859
   213   1 h    0.882 --   211 o    0.825
   214   8 o    1.842 --   215 h    0.847   216 h    0.790
   215   1 h    0.889 --   214 o    0.847
   216   1 h    0.873 --   214 o    0.790
   217   8 o    1.864 --   218 h    0.821   219 h    0.798
   218   1 h    0.875 --   217 o    0.821
   219   1 h    0.877 --   217 o    0.798
   220   8 o    1.857 --   222 h    0.850   221 h    0.838
   221   1 h    0.884 --   220 o    0.838
   222   1 h    0.898 --   220 o    0.850
   223   8 o    1.841 --   224 h    0.871   225 h    0.819
   224   1 h    0.900 --   223 o    0.871
   225   1 h    0.868 --   223 o    0.819
   226   8 o    1.849 --   228 h    0.833   227 h    0.828
   227   1 h    0.890 --   226 o    0.828
   228   1 h    0.884 --   226 o    0.833
   229   8 o    1.872 --   231 h    0.797   230 h    0.787
   230   1 h    0.876 --   229 o    0.787
   231   1 h    0.879 --   229 o    0.797
   232   8 o    1.825 --   234 h    0.861   233 h    0.837
   233   1 h    0.889 --   232 o    0.837
   234   1 h    0.891 --   232 o    0.861
   235   8 o    1.868 --   236 h    0.848   237 h    0.809
   236   1 h    0.894 --   235 o    0.848
   237   1 h    0.874 --   235 o    0.809
   238   8 o    1.859 --   240 h    0.866   239 h    0.800
   239   1 h    0.866 --   238 o    0.800
   240   1 h    0.897 --   238 o    0.866
   241   8 o    1.825 --   243 h    0.824   242 h    0.813
   242   1 h    0.887 --   241 o    0.813
   243   1 h    0.875 --   241 o    0.824
   244   8 o    1.880 --   246 h    0.821   245 h    0.800
   245   1 h    0.863 --   244 o    0.800
   246   1 h    0.886 --   244 o    0.821
   247   8 o    1.856 --   249 h    0.838   248 h    0.807
   248   1 h    0.878 --   247 o    0.807
   249   1 h    0.890 --   247 o    0.838
   250   8 o    1.872 --   251 h    0.810   252 h    0.806
   251   1 h    0.883 --   250 o    0.810
   252   1 h    0.871 --   250 o    0.806
   253   8 o    1.812 --   255 h    0.878   254 h    0.812
   254   1 h    0.876 --   253 o    0.812
   255   1 h    0.904 --   253 o    0.878
   256   8 o    1.834 --   257 h    0.861   258 h    0.822
   257   1 h    0.895 --   256 o    0.861
   258   1 h    0.873 --   256 o    0.822
   259   8 o    1.857 --   261 h    0.868   260 h    0.806
   260   1 h    0.871 --   259 o    0.806
   261   1 h    0.897 --   259 o    0.868
   262   8 o    1.855 --   264 h    0.836   263 h    0.808
   263   1 h    0.875 --   262 o    0.808
   264   1 h    0.880 --   262 o    0.836
   265   8 o    1.862 --   267 h    0.849   266 h    0.808
   266   1 h    0.884 --   265 o    0.808
   267   1 h    0.886 --   265 o    0.849
   268   8 o    1.854 --   270 h    0.824   269 h    0.819
   269   1 h    0.881 --   268 o    0.819
   270   1 h    0.890 --   268 o    0.824
   271   8 o    1.865 --   273 h    0.819   272 h    0.799
   272   1 h    0.881 --   271 o    0.799
   273   1 h    0.879 --   271 o    0.819
   274   8 o    1.785 --   276 h    0.863   275 h    0.803
   275   1 h    0.879 --   274 o    0.803
   276   1 h    0.896 --   274 o    0.863
   277   8 o    1.875 --   279 h    0.809   278 h    0.792
   278   1 h    0.872 --   277 o    0.792
   279   1 h    0.876 --   277 o    0.809
   280   8 o    1.830 --   282 h    0.855   281 h    0.802
   281   1 h    0.876 --   280 o    0.802
   282   1 h    0.899 --   280 o    0.855
   283   8 o    1.852 --   284 h    0.882   285 h    0.774
   284   1 h    0.898 --   283 o    0.882
   285   1 h    0.862 --   283 o    0.774
   286   8 o    1.832 --   287 h    0.867   288 h    0.853
   287   1 h    0.891 --   286 o    0.867
   288   1 h    0.882 --   286 o    0.853
   289   8 o    1.820 --   291 h    0.842   290 h    0.780
   290   1 h    0.873 --   289 o    0.780
   291   1 h    0.891 --   289 o    0.842
   292   8 o    1.815 --   293 h    0.847   294 h    0.828
   293   1 h    0.888 --   292 o    0.847
   294   1 h    0.885 --   292 o    0.828
   295   8 o    1.841 --   297 h    0.900   296 h    0.808
   296   1 h    0.869 --   295 o    0.808
   297   1 h    0.905 --   295 o    0.900
   298   8 o    1.847 --   300 h    0.847   299 h    0.837
   299   1 h    0.874 --   298 o    0.837
   300   1 h    0.892 --   298 o    0.847
   301   8 o    1.878 --   303 h    0.821   302 h    0.791
   302   1 h    0.871 --   301 o    0.791
   303   1 h    0.877 --   301 o    0.821
   304   8 o    1.844 --   305 h    0.844   306 h    0.807
   305   1 h    0.893 --   304 o    0.844
   306   1 h    0.880 --   304 o    0.807
   307   8 o    1.846 --   309 h    0.832   308 h    0.818
   308   1 h    0.880 --   307 o    0.818
   309   1 h    0.890 --   307 o    0.832
   310   8 o    1.807 --   311 h    0.855   312 h    0.801
   311   1 h    0.898 --   310 o    0.855
   312   1 h    0.878 --   310 o    0.801
   313   8 o    1.890 --   314 h    0.828   315 h    0.780
   314   1 h    0.893 --   313 o    0.828
   315   1 h    0.871 --   313 o    0.780
   316   8 o    1.849 --   318 h    0.892   317 h    0.813
   317   1 h    0.874 --   316 o    0.813
   318   1 h    0.898 --   316 o    0.892
   319   8 o    1.831 --   320 h    0.851   321 h    0.823
   320   1 h    0.886 --   319 o    0.851
   321   1 h    0.886 --   319 o    0.823
   322   8 o    1.821 --   323 h    0.852   324 h    0.800
   323   1 h    0.895 --   322 o    0.852
   324   1 h    0.882 --   322 o    0.800
   325   8 o    1.818 --   326 h    0.850   327 h    0.808
   326   1 h    0.898 --   325 o    0.850
   327   1 h    0.873 --   325 o    0.808
   328   8 o    1.838 --   329 h    0.836   330 h    0.813
   329   1 h    0.893 --   328 o    0.836
   330   1 h    0.869 --   328 o    0.813
   331   8 o    1.873 --   332 h    0.885   333 h    0.807
   332   1 h    0.902 --   331 o    0.885
   333   1 h    0.881 --   331 o    0.807
   334   8 o    1.879 --   336 h    0.819   335 h    0.815
   335   1 h    0.882 --   334 o    0.815
   336   1 h    0.875 --   334 o    0.819
   337   8 o    1.830 --   339 h    0.854   338 h    0.803
   338   1 h    0.874 --   337 o    0.803
   339   1 h    0.892 --   337 o    0.854
   340   8 o    1.809 --   342 h    0.875   341 h    0.825
   341   1 h    0.879 --   340 o    0.825
   342   1 h    0.894 --   340 o    0.875
   343   8 o    1.842 --   344 h    0.830   345 h    0.830
   344   1 h    0.891 --   343 o    0.830
   345   1 h    0.890 --   343 o    0.830
   346   8 o    1.824 --   347 h    0.846   348 h    0.824
   347   1 h    0.896 --   346 o    0.846
   348   1 h    0.881 --   346 o    0.824
   349   8 o    1.863 --   351 h    0.864   350 h    0.828
   350   1 h    0.888 --   349 o    0.828
   351   1 h    0.900 --   349 o    0.864
   352   8 o    1.830 --   353 h    0.867   354 h    0.808
   353   1 h    0.893 --   352 o    0.867
   354   1 h    0.876 --   352 o    0.808
   355   8 o    1.821 --   357 h    0.868   356 h    0.799
   356   1 h    0.885 --   355 o    0.799
   357   1 h    0.899 --   355 o    0.868
   358   8 o    1.815 --   359 h    0.853   360 h    0.830
   359   1 h    0.885 --   358 o    0.853
   360   1 h    0.885 --   358 o    0.830
   361   8 o    1.820 --   363 h    0.858   362 h    0.786
   362   1 h    0.873 --   361 o    0.786
   363   1 h    0.896 --   361 o    0.858
   364   8 o    1.874 --   365 h    0.827   366 h    0.799
[...]
   369   1 h    0.877 --   367 o    0.816
   370   8 o    1.817 --   372 h    0.870   371 h    0.858
   371   1 h    0.890 --   370 o    0.858
   372   1 h    0.890 --   370 o    0.870
   373   8 o    1.859 --   375 h    0.856   374 h    0.854
   374   1 h    0.887 --   373 o    0.854
   375   1 h    0.889 --   373 o    0.856
   376   8 o    1.880 --   377 h    0.818   378 h    0.798
   377   1 h    0.893 --   376 o    0.818
   378   1 h    0.874 --   376 o    0.798
   379   8 o    1.873 --   381 h    0.825   380 h    0.811
   380   1 h    0.872 --   379 o    0.811
   381   1 h    0.893 --   379 o    0.825
   382   8 o    1.835 --   383 h    0.879   384 h    0.841
   383   1 h    0.902 --   382 o    0.879
   384   1 h    0.887 --   382 o    0.841
   385   8 o    1.833 --   386 h    0.900   387 h    0.784
   386   1 h    0.904 --   385 o    0.900
   387   1 h    0.872 --   385 o    0.784
   388   8 o    1.865 --   390 h    0.831   389 h    0.811
   389   1 h    0.869 --   388 o    0.811
   390   1 h    0.886 --   388 o    0.831
   391   8 o    1.827 --   392 h    0.887   393 h    0.818
   392   1 h    0.897 --   391 o    0.887
   393   1 h    0.877 --   391 o    0.818
   394   8 o    1.832 --   395 h    0.881   396 h    0.819
   395   1 h    0.894 --   394 o    0.881
   396   1 h    0.876 --   394 o    0.819
   397   8 o    1.832 --   399 h    0.868   398 h    0.812
   398   1 h    0.869 --   397 o    0.812
   399   1 h    0.899 --   397 o    0.868
   400   8 o    1.839 --   401 h    0.827   402 h    0.812
   401   1 h    0.887 --   400 o    0.827
   402   1 h    0.886 --   400 o    0.812
   403   8 o    1.861 --   404 h    0.835   405 h    0.792
   404   1 h    0.898 --   403 o    0.835
   405   1 h    0.870 --   403 o    0.792
   406   8 o    1.834 --   407 h    0.863   408 h    0.840
   407   1 h    0.888 --   406 o    0.863
   408   1 h    0.882 --   406 o    0.840
   409   8 o    1.846 --   410 h    0.826   411 h    0.791
   410   1 h    0.895 --   409 o    0.826
   411   1 h    0.870 --   409 o    0.791
   412   8 o    1.827 --   413 h    0.822   414 h    0.773
   413   1 h    0.880 --   412 o    0.822
   414   1 h    0.871 --   412 o    0.773
   415   8 o    1.841 --   417 h    0.896   416 h    0.785
   416   1 h    0.875 --   415 o    0.785
   417   1 h    0.903 --   415 o    0.896
   418   8 o    1.868 --   420 h    0.883   419 h    0.838
   419   1 h    0.877 --   418 o    0.838
   420   1 h    0.892 --   418 o    0.883
   421   8 o    1.872 --   422 h    0.827   423 h    0.824
   422   1 h    0.887 --   421 o    0.827
   423   1 h    0.881 --   421 o    0.824
   424   8 o    1.831 --   426 h    0.873   425 h    0.834
   425   1 h    0.888 --   424 o    0.834
   426   1 h    0.892 --   424 o    0.873
   427   8 o    1.843 --   429 h    0.844   428 h    0.804
   428   1 h    0.874 --   427 o    0.804
   429   1 h    0.898 --   427 o    0.844
   430   8 o    1.831 --   431 h    0.841   432 h    0.797
   431   1 h    0.883 --   430 o    0.841
   432   1 h    0.876 --   430 o    0.797
   433   8 o    1.853 --   435 h    0.882   434 h    0.780
   434   1 h    0.866 --   433 o    0.780
   435   1 h    0.900 --   433 o    0.882
   436   8 o    1.816 --   437 h    0.879   438 h    0.774
   437   1 h    0.899 --   436 o    0.879
   438   1 h    0.864 --   436 o    0.774
   439   8 o    1.820 --   441 h    0.857   440 h    0.827
   440   1 h    0.885 --   439 o    0.827
   441   1 h    0.887 --   439 o    0.857
   442   8 o    1.896 --   444 h    0.819   443 h    0.805
   443   1 h    0.871 --   442 o    0.805
   444   1 h    0.875 --   442 o    0.819
   445   8 o    1.820 --   447 h    0.841   446 h    0.804
   446   1 h    0.882 --   445 o    0.804
   447   1 h    0.890 --   445 o    0.841
   448   8 o    1.811 --   450 h    0.848   449 h    0.819
   449   1 h    0.868 --   448 o    0.819
   450   1 h    0.893 --   448 o    0.848
   451   8 o    1.856 --   452 h    0.849   453 h    0.839
   452   1 h    0.896 --   451 o    0.849
   453   1 h    0.883 --   451 o    0.839
   454   8 o    1.873 --   455 h    0.842   456 h    0.812
   455   1 h    0.883 --   454 o    0.842
   456   1 h    0.876 --   454 o    0.812
   457   8 o    1.844 --   459 h    0.840   458 h    0.823
   458   1 h    0.885 --   457 o    0.823
   459   1 h    0.899 --   457 o    0.840
   460   8 o    1.810 --   461 h    0.840   462 h    0.824
   461   1 h    0.886 --   460 o    0.840
   462   1 h    0.888 --   460 o    0.824
   463   8 o    1.814 --   464 h    0.884   465 h    0.830
   464   1 h    0.899 --   463 o    0.884
   465   1 h    0.885 --   463 o    0.830
   466   8 o    1.843 --   467 h    0.830   468 h    0.823
   467   1 h    0.887 --   466 o    0.830
   468   1 h    0.881 --   466 o    0.823
   469   8 o    1.869 --   470 h    0.862   471 h    0.821
   470   1 h    0.895 --   469 o    0.862
   471   1 h    0.883 --   469 o    0.821
   472   8 o    1.860 --   474 h    0.856   473 h    0.816
   473   1 h    0.883 --   472 o    0.816
   474   1 h    0.891 --   472 o    0.856
   475   8 o    1.868 --   477 h    0.834   476 h    0.833
   476   1 h    0.886 --   475 o    0.833
   477   1 h    0.879 --   475 o    0.834
   478   8 o    1.809 --   480 h    0.859   479 h    0.829
   479   1 h    0.883 --   478 o    0.829
   480   1 h    0.896 --   478 o    0.859
   481   8 o    1.819 --   483 h    0.889   482 h    0.829
   482   1 h    0.881 --   481 o    0.829
   483   1 h    0.901 --   481 o    0.889
   484   8 o    1.804 --   486 h    0.880   485 h    0.834
   485   1 h    0.883 --   484 o    0.834
   486   1 h    0.900 --   484 o    0.880
   487   8 o    1.848 --   488 h    0.841   489 h    0.796
   488   1 h    0.891 --   487 o    0.841
   489   1 h    0.864 --   487 o    0.796
   490   8 o    1.810 --   491 h    0.863   492 h    0.800
   491   1 h    0.891 --   490 o    0.863
   492   1 h    0.883 --   490 o    0.800
   493   8 o    1.843 --   494 h    0.833   495 h    0.806
   494   1 h    0.892 --   493 o    0.833
   495   1 h    0.873 --   493 o    0.806
   496   8 o    1.830 --   498 h    0.895   497 h    0.828
   497   1 h    0.879 --   496 o    0.828
   498   1 h    0.900 --   496 o    0.895
   499   8 o    1.842 --   501 h    0.865   500 h    0.839
   500   1 h    0.886 --   499 o    0.839
   501   1 h    0.890 --   499 o    0.865
   502   8 o    1.867 --   504 h    0.836   503 h    0.808
   503   1 h    0.888 --   502 o    0.808
   504   1 h    0.887 --   502 o    0.836
   505   8 o    1.807 --   506 h    0.845   507 h    0.832
   506   1 h    0.896 --   505 o    0.845
   507   1 h    0.892 --   505 o    0.832
   508   8 o    1.870 --   509 h    0.820   510 h    0.798
   509   1 h    0.875 --   508 o    0.820
   510   1 h    0.872 --   508 o    0.798
   511   8 o    1.828 --   513 h    0.856   512 h    0.835
   512   1 h    0.888 --   511 o    0.835
   513   1 h    0.889 --   511 o    0.856
   514   8 o    1.804 --   515 h    0.853   516 h    0.829
   515   1 h    0.896 --   514 o    0.853
   516   1 h    0.885 --   514 o    0.829
   517   8 o    1.816 --   518 h    0.888   519 h    0.855
   518   1 h    0.896 --   517 o    0.888
   519   1 h    0.885 --   517 o    0.855
   520   8 o    1.844 --   522 h    0.864   521 h    0.827
   521   1 h    0.879 --   520 o    0.827
   522   1 h    0.890 --   520 o    0.864
   523   8 o    1.816 --   525 h    0.892   524 h    0.815
   524   1 h    0.871 --   523 o    0.815
   525   1 h    0.906 --   523 o    0.892
   526   8 o    1.853 --   528 h    0.864   527 h    0.830
   527   1 h    0.875 --   526 o    0.830
   528   1 h    0.892 --   526 o    0.864
   529   8 o    1.808 --   531 h    0.889   530 h    0.815
   530   1 h    0.872 --   529 o    0.815
   531   1 h    0.904 --   529 o    0.889
   532   8 o    1.833 --   534 h    0.825   533 h    0.815
   533   1 h    0.874 --   532 o    0.815
   534   1 h    0.880 --   532 o    0.825
   535   8 o    1.858 --   536 h    0.845   537 h    0.809
   536   1 h    0.889 --   535 o    0.845
   537   1 h    0.883 --   535 o    0.809
   538   8 o    1.863 --   539 h    0.837   540 h    0.826
   539   1 h    0.888 --   538 o    0.837
   540   1 h    0.883 --   538 o    0.826
   541   8 o    1.819 --   542 h    0.861   543 h    0.829
   542   1 h    0.890 --   541 o    0.861
   543   1 h    0.889 --   541 o    0.829
   544   8 o    1.839 --   546 h    0.882   545 h    0.859
   545   1 h    0.882 --   544 o    0.859
   546   1 h    0.892 --   544 o    0.882
   547   8 o    1.829 --   549 h    0.857   548 h    0.828
   548   1 h    0.878 --   547 o    0.828
   549   1 h    0.892 --   547 o    0.857
   550   8 o    1.810 --   552 h    0.898   551 h    0.813
   551   1 h    0.878 --   550 o    0.813
   552   1 h    0.905 --   550 o    0.898
   553   8 o    1.823 --   555 h    0.854   554 h    0.816
   554   1 h    0.883 --   553 o    0.816
   555   1 h    0.888 --   553 o    0.854
   556   8 o    1.880 --   557 h    0.816   558 h    0.780
   557   1 h    0.883 --   556 o    0.816
   558   1 h    0.868 --   556 o    0.780
   559   8 o    1.824 --   561 h    0.846   560 h    0.818
   560   1 h    0.887 --   559 o    0.818
   561   1 h    0.894 --   559 o    0.846
   562   8 o    1.888 --   563 h    0.835   564 h    0.786
   563   1 h    0.884 --   562 o    0.835
   564   1 h    0.869 --   562 o    0.786
   565   8 o    1.865 --   567 h    0.816   566 h    0.815
   566   1 h    0.887 --   565 o    0.815
   567   1 h    0.869 --   565 o    0.816
   568   8 o    1.829 --   569 h    0.882   570 h    0.816
   569   1 h    0.900 --   568 o    0.882
   570   1 h    0.880 --   568 o    0.816
   571   8 o    1.872 --   573 h    0.834   572 h    0.807
   572   1 h    0.886 --   571 o    0.807
   573   1 h    0.881 --   571 o    0.834
   574   8 o    1.831 --   575 h    0.843   576 h    0.820
   575   1 h    0.885 --   574 o    0.843
   576   1 h    0.880 --   574 o    0.820
   577   8 o    1.838 --   578 h    0.888   579 h    0.844
   578   1 h    0.897 --   577 o    0.888
   579   1 h    0.885 --   577 o    0.844
   580   8 o    1.828 --   582 h    0.874   581 h    0.832
   581   1 h    0.879 --   580 o    0.832
   582   1 h    0.892 --   580 o    0.874
   583   8 o    1.844 --   584 h    0.840   585 h    0.804
   584   1 h    0.896 --   583 o    0.840
   585   1 h    0.872 --   583 o    0.804
   586   8 o    1.839 --   588 h    0.865   587 h    0.846
   587   1 h    0.885 --   586 o    0.846
   588   1 h    0.885 --   586 o    0.865
   589   8 o    1.855 --   590 h    0.861   591 h    0.813
   590   1 h    0.893 --   589 o    0.861
   591   1 h    0.881 --   589 o    0.813
   592   8 o    1.814 --   593 h    0.854   594 h    0.846
   593   1 h    0.889 --   592 o    0.854
   594   1 h    0.887 --   592 o    0.846
   595   8 o    1.826 --   597 h    0.879   596 h    0.833
   596   1 h    0.883 --   595 o    0.833
   597   1 h    0.894 --   595 o    0.879
   598   8 o    1.841 --   599 h    0.853   600 h    0.846
   599   1 h    0.888 --   598 o    0.853
   600   1 h    0.883 --   598 o    0.846
   601   8 o    1.818 --   602 h    0.845   603 h    0.791
   602   1 h    0.894 --   601 o    0.845
   603   1 h    0.878 --   601 o    0.791
   604   8 o    1.845 --   605 h    0.820   606 h    0.797
   605   1 h    0.887 --   604 o    0.820
   606   1 h    0.887 --   604 o    0.797
   607   8 o    1.862 --   609 h    0.829   608 h    0.805
   608   1 h    0.871 --   607 o    0.805
   609   1 h    0.888 --   607 o    0.829
   610   8 o    1.851 --   611 h    0.868   612 h    0.827
   611   1 h    0.895 --   610 o    0.868
   612   1 h    0.881 --   610 o    0.827
   613   8 o    1.838 --   615 h    0.873   614 h    0.839
   614   1 h    0.886 --   613 o    0.839
   615   1 h    0.889 --   613 o    0.873
   616   8 o    1.808 --   618 h    0.845   617 h    0.834
   617   1 h    0.885 --   616 o    0.834
   618   1 h    0.893 --   616 o    0.845
   619   8 o    1.852 --   620 h    0.871   621 h    0.803
   620   1 h    0.897 --   619 o    0.871
   621   1 h    0.868 --   619 o    0.803
   622   8 o    1.865 --   624 h    0.848   623 h    0.836
   623   1 h    0.891 --   622 o    0.836
   624   1 h    0.891 --   622 o    0.848
   625   8 o    1.829 --   626 h    0.817   627 h    0.775
   626   1 h    0.890 --   625 o    0.817
   627   1 h    0.871 --   625 o    0.775
   628   8 o    1.862 --   630 h    0.832   629 h    0.822
   629   1 h    0.888 --   628 o    0.822
   630   1 h    0.878 --   628 o    0.832
   631   8 o    1.897 --   632 h    0.821   633 h    0.787
   632   1 h    0.885 --   631 o    0.821
   633   1 h    0.863 --   631 o    0.787
   634   8 o    1.861 --   635 h    0.863   636 h    0.801
   635   1 h    0.896 --   634 o    0.863
   636   1 h    0.867 --   634 o    0.801
   637   8 o    1.834 --   639 h    0.862   638 h    0.767
   638   1 h    0.869 --   637 o    0.767
   639   1 h    0.898 --   637 o    0.862
   640   8 o    1.859 --   642 h    0.834   641 h    0.815
   641   1 h    0.881 --   640 o    0.815
   642   1 h    0.888 --   640 o    0.834
   643   8 o    1.842 --   644 h    0.860   645 h    0.852
   644   1 h    0.893 --   643 o    0.860
   645   1 h    0.890 --   643 o    0.852
   646   8 o    1.821 --   647 h    0.862   648 h    0.810
   647   1 h    0.892 --   646 o    0.862
   648   1 h    0.883 --   646 o    0.810
   649   8 o    1.831 --   651 h    0.895   650 h    0.800
   650   1 h    0.873 --   649 o    0.800
   651   1 h    0.902 --   649 o    0.895
   652   8 o    1.821 --   654 h    0.843   653 h    0.835
   653   1 h    0.897 --   652 o    0.835
   654   1 h    0.893 --   652 o    0.843
   655   8 o    1.856 --   656 h    0.827   657 h    0.812
   656   1 h    0.889 --   655 o    0.827
   657   1 h    0.871 --   655 o    0.812
   658   8 o    1.830 --   660 h    0.858   659 h    0.847
   659   1 h    0.884 --   658 o    0.847
   660   1 h    0.895 --   658 o    0.858
   661   8 o    1.850 --   663 h    0.839   662 h    0.813
   662   1 h    0.872 --   661 o    0.813
   663   1 h    0.888 --   661 o    0.839
   664   8 o    1.828 --   665 h    0.893   666 h    0.784
   665   1 h    0.902 --   664 o    0.893
   666   1 h    0.868 --   664 o    0.784
   667   8 o    1.811 --   669 h    0.892   668 h    0.806
   668   1 h    0.872 --   667 o    0.806
   669   1 h    0.904 --   667 o    0.892
   670   8 o    1.832 --   671 h    0.832   672 h    0.830
   671   1 h    0.896 --   670 o    0.832
   672   1 h    0.883 --   670 o    0.830
   673   8 o    1.875 --   675 h    0.856   674 h    0.770
   674   1 h    0.868 --   673 o    0.770
   675   1 h    0.888 --   673 o    0.856
   676   8 o    1.804 --   678 h    0.856   677 h    0.828
   677   1 h    0.880 --   676 o    0.828
   678   1 h    0.897 --   676 o    0.856
   679   8 o    1.849 --   680 h    0.891   681 h    0.788
   680   1 h    0.901 --   679 o    0.891
   681   1 h    0.867 --   679 o    0.788
   682   8 o    1.865 --   684 h    0.826   683 h    0.821
   683   1 h    0.873 --   682 o    0.821
   684   1 h    0.893 --   682 o    0.826
   685   8 o    1.832 --   687 h    0.898   686 h    0.777
   686   1 h    0.867 --   685 o    0.777
   687   1 h    0.908 --   685 o    0.898
   688   8 o    1.864 --   690 h    0.859   689 h    0.799
   689   1 h    0.881 --   688 o    0.799
   690   1 h    0.886 --   688 o    0.859
   691   8 o    1.825 --   692 h    0.861   693 h    0.843
   692   1 h    0.887 --   691 o    0.861
   693   1 h    0.885 --   691 o    0.843
   694   8 o    1.794 --   696 h    0.868   695 h    0.828
   695   1 h    0.893 --   694 o    0.828
   696   1 h    0.894 --   694 o    0.868
   697   8 o    1.824 --   698 h    0.870   699 h    0.792
   698   1 h    0.894 --   697 o    0.870
   699   1 h    0.878 --   697 o    0.792
   700   8 o    1.847 --   701 h    0.838   702 h    0.825
   701   1 h    0.894 --   700 o    0.838
   702   1 h    0.871 --   700 o    0.825
   703   8 o    1.871 --   704 h    0.837   705 h    0.813
   704   1 h    0.889 --   703 o    0.837
   705   1 h    0.878 --   703 o    0.813
   706   8 o    1.861 --   707 h    0.821   708 h    0.808
   707   1 h    0.880 --   706 o    0.821
   708   1 h    0.882 --   706 o    0.808
   709   8 o    1.825 --   711 h    0.903   710 h    0.781
   710   1 h    0.873 --   709 o    0.781
   711   1 h    0.907 --   709 o    0.903
   712   8 o    1.821 --   714 h    0.892   713 h    0.781
   713   1 h    0.873 --   712 o    0.781
   714   1 h    0.900 --   712 o    0.892
   715   8 o    1.837 --   716 h    0.894   717 h    0.799
   716   1 h    0.901 --   715 o    0.894
   717   1 h    0.872 --   715 o    0.799
   718   8 o    1.858 --   719 h    0.862   720 h    0.822
   719   1 h    0.899 --   718 o    0.862
   720   1 h    0.879 --   718 o    0.822
   721   8 o    1.823 --   722 h    0.844   723 h    0.828
   722   1 h    0.892 --   721 o    0.844
   723   1 h    0.884 --   721 o    0.828
   724   8 o    1.836 --   725 h    0.826   726 h    0.767
   725   1 h    0.893 --   724 o    0.826
   726   1 h    0.867 --   724 o    0.767
   727   8 o    1.825 --   728 h    0.895   729 h    0.831
   728   1 h    0.898 --   727 o    0.895
   729   1 h    0.881 --   727 o    0.831
   730   8 o    1.869 --   731 h    0.830   732 h    0.819
   731   1 h    0.892 --   730 o    0.830
   732   1 h    0.884 --   730 o    0.819
   733   8 o    1.805 --   735 h    0.893   734 h    0.848
   734   1 h    0.890 --   733 o    0.848
   735   1 h    0.901 --   733 o    0.893
   736   8 o    1.878 --   738 h    0.882   737 h    0.808
   737   1 h    0.875 --   736 o    0.808
   738   1 h    0.896 --   736 o    0.882
   739   8 o    1.820 --   741 h    0.895   740 h    0.807
   740   1 h    0.873 --   739 o    0.807
   741   1 h    0.908 --   739 o    0.895
   742   8 o    1.784 --   743 h    0.874   744 h    0.821
   743   1 h    0.900 --   742 o    0.874
   744   1 h    0.879 --   742 o    0.821
   745   8 o    1.866 --   747 h    0.858   746 h    0.817
   746   1 h    0.884 --   745 o    0.817
   747   1 h    0.883 --   745 o    0.858
   748   8 o    1.862 --   749 h    0.866   750 h    0.835
   749   1 h    0.892 --   748 o    0.866
   750   1 h    0.879 --   748 o    0.835
   751   8 o    1.854 --   753 h    0.875   752 h    0.872
   752   1 h    0.889 --   751 o    0.872
   753   1 h    0.887 --   751 o    0.875
   754   8 o    1.885 --   756 h    0.814   755 h    0.807
   755   1 h    0.878 --   754 o    0.807
   756   1 h    0.881 --   754 o    0.814
 ---------------------------------------------------------------------------

Topologies differ in total number of bonds
Writing topology from bond orders to xtbtopo.mol

molecular dipole:
                 x           y           z       tot (Debye)
 q only:       -2.441       2.353       2.685
   full:       -3.485       2.803       2.327      12.814
molecular quadrupole (traceless):
                xx          xy          yy          xz          yz          zz
 q only:      277.191     -63.989    -135.254     -43.213      38.654    -141.937
  q+dip:      352.022     -76.399    -174.706     -63.690      59.949    -177.316
   full:      353.287     -74.708    -175.514     -65.368      59.568    -177.773


           -------------------------------------------------
          | TOTAL ENERGY            -1283.567457537568 Eh   |
          | GRADIENT NORM               0.116951013867 Eh/α |
          | HOMO-LUMO GAP               7.266483597775 eV   |
           -------------------------------------------------

------------------------------------------------------------------------
 * finished run on 2022/11/24 at 12:21:39.153     
------------------------------------------------------------------------
 total:
 * wall-time:     0 d,  0 h,  0 min, 22.468 sec
 *  cpu-time:     0 d,  0 h,  0 min, 36.319 sec
 * ratio c/w:     1.617 speedup
 SCF:
 * wall-time:     0 d,  0 h,  0 min, 21.447 sec
 *  cpu-time:     0 d,  0 h,  0 min, 34.607 sec
 * ratio c/w:     1.614 speedup

