      -----------------------------------------------------------      
     |                   =====================                   |     
     |                           x T B                           |     
     |                   =====================                   |     
     |                         S. Grimme                         |     
     |          Mulliken Center for Theoretical Chemistry        |     
     |                    University of Bonn                     |     
      -----------------------------------------------------------      

   * xtb version 6.5.1 (579679a) compiled by 'ehlert@majestix' on 2022-07-11

   xtb is free software: you can redistribute it and/or modify it under
   the terms of the GNU Lesser General Public License as published by
   the Free Software Foundation, either version 3 of the License, or
   (at your option) any later version.
   
   xtb is distributed in the hope that it will be useful,
   but WITHOUT ANY WARRANTY; without even the implied warranty of
   MERCHANTABILITY or FITNESS FOR A PARTICULAR PURPOSE.  See the
   GNU Lesser General Public License for more details.
   
   Cite this work as:
   * C. Bannwarth, E. Caldeweyher, S. Ehlert, A. Hansen, P. Pracht,
     J. Seibert, S. Spicher, S. Grimme, WIREs Comput. Mol. Sci., 2020, 11,
     e01493. DOI: 10.1002/wcms.1493
   
   for GFN2-xTB:
   * C. Bannwarth, S. Ehlert and S. Grimme., J. Chem. Theory Comput., 2019,
     15, 1652-1671. DOI: 10.1021/acs.jctc.8b01176
   for GFN1-xTB:
   * S. Grimme, C. Bannwarth, P. Shushkov, J. Chem. Theory Comput., 2017,
     13, 1989-2009. DOI: 10.1021/acs.jctc.7b00118
   for GFN0-xTB:
   * P. Pracht, E. Caldeweyher, S. Ehlert, S. Grimme, ChemRxiv, 2019, preprint.
     DOI: 10.26434/chemrxiv.8326202.v1
   for GFN-FF:
   * S. Spicher and S. Grimme, Angew. Chem. Int. Ed., 2020, 59, 15665-15673.
     DOI: 10.1002/anie.202004239
   
   for ALPB and GBSA implicit solvation:
   * S. Ehlert, M. Stahn, S. Spicher, S. Grimme, J. Chem. Theory Comput.,
     2021, 17, 4250-4261. DOI: 10.1021/acs.jctc.1c00471
   
   for DFT-D4:
   * E. Caldeweyher, C. Bannwarth and S. Grimme, J. Chem. Phys., 2017,
     147, 034112. DOI: 10.1063/1.4993215
   * E. Caldeweyher, S. Ehlert, A. Hansen, H. Neugebauer, S. Spicher,
     C. Bannwarth and S. Grimme, J. Chem. Phys., 2019, 150, 154122.
     DOI: 10.1063/1.5090222
   * E. Caldeweyher, J.-M. Mewes, S. Ehlert and S. Grimme, Phys. Chem. Chem. Phys.
     2020, 22, 8499-8512. DOI: 10.1039/D0CP00502A
   
   for sTDA-xTB:
   * S. Grimme and C. Bannwarth, J. Chem. Phys., 2016, 145, 054103.
     DOI: 10.1063/1.4959605
   
   in the mass-spec context:
   * V. Asgeirsson, C. Bauer and S. Grimme, Chem. Sci., 2017, 8, 4879.
     DOI: 10.1039/c7sc00601b
   * J. Koopman and S. Grimme, ACS Omega 2019, 4, 12, 15120-15133.
     DOI: 10.1021/acsomega.9b02011
   
   for metadynamics refer to:
   * S. Grimme, J. Chem. Theory Comput., 2019, 155, 2847-2862
     DOI: 10.1021/acs.jctc.9b00143
   
   for SPH calculations refer to:
   * S. Spicher and S. Grimme, J. Chem. Theory Comput., 2021, 17, 1701-1714
     DOI: 10.1021/acs.jctc.0c01306
   
   with help from (in alphabetical order)
   P. Atkinson, C. Bannwarth, F. Bohle, G. Brandenburg, E. Caldeweyher
   M. Checinski, S. Dohm, S. Ehlert, S. Ehrlich, I. Gerasimov, C. Hölzer
   A. Katbashev, J. Koopman, C. Lavigne, S. Lehtola, F. März, M. Müller,
   F. Musil, H. Neugebauer, J. Pisarek, C. Plett, P. Pracht, F. Pultar,
   J. Seibert, P. Shushkov, S. Spicher, M. Stahn, M. Steiner, T. Strunk,
   J. Stückrath, T. Rose, and J. Unsleber
   
 * started run on 2022/11/24 at 12:21:40.835     

           -------------------------------------------------
          |                Calculation Setup                |
           -------------------------------------------------

          program call               : xtb solvent_cluster.coord --gfn2 --sp --lmo --chrg 0
          hostname                   : cn0430
          coordinate file            : solvent_cluster.coord
          omp threads                :                     2

   ID    Z sym.   atoms
    1    8 o      1, 4, 7, 10, 13, 16, 19, 22, 25, 28, 31, 34, 37, 40, 43,
                  46, 49, 52, 55, 58, 61, 64, 67, 70, 73, 76, 79, 82, 85, 88,
                  91, 94, 97, 100, 103, 106, 109, 112, 115, 118, 121, 124,
                  127, 130, 133, 136, 139, 142, 145, 148, 151, 154, 157, 160,
                  163, 166, 169, 172, 175, 178, 181, 184, 187, 190, 193, 196,
                  199, 202, 205, 208, 211, 214, 217, 220, 223, 226, 229, 232,
                  235, 238, 241, 244, 247, 250, 253, 256, 259, 262, 265, 268,
                  271, 274, 277, 280, 283, 286, 289, 292, 295, 298, 301, 304,
                  307, 310, 313, 316, 319, 322, 325, 328, 331, 334, 337, 340,
                  343, 346, 349, 352, 355, 358, 361, 364, 367, 370, 373, 376,
                  379, 382, 385, 388, 391, 394, 397, 400, 403, 406, 409, 412,
                  415, 418, 421, 424, 427, 430, 433, 436, 439, 442, 445, 448,
                  451, 454, 457, 460, 463, 466, 469, 472, 475, 478, 481, 484,
                  487, 490, 493, 496, 499, 502, 505, 508, 511, 514, 517, 520,
                  523, 526, 529, 532, 535, 538, 541, 544, 547, 550, 553, 556,
                  559, 562, 565, 568, 571, 574, 577, 580, 583, 586, 589, 592,
                  595, 598, 601, 604, 607, 610, 613, 616, 619, 622, 625, 628,
                  631, 634, 637, 640, 643, 646, 649, 652, 655, 658, 661, 664,
                  667, 670, 673, 676, 679, 682, 685, 688, 691, 694, 697, 700,
                  703, 706, 709, 712, 715, 718, 721, 724, 727, 730, 733, 736,
                  739, 742, 745, 748, 751, 754
    2    1 h      2, 3, 5, 6, 8, 9, 11, 12, 14, 15, 17, 18, 20, 21, 23, 24,
                  26, 27, 29, 30, 32, 33, 35, 36, 38, 39, 41, 42, 44, 45, 47,
                  48, 50, 51, 53, 54, 56, 57, 59, 60, 62, 63, 65, 66, 68, 69,
                  71, 72, 74, 75, 77, 78, 80, 81, 83, 84, 86, 87, 89, 90, 92,
                  93, 95, 96, 98, 99, 101, 102, 104, 105, 107, 108, 110, 111,
                  113, 114, 116, 117, 119, 120, 122, 123, 125, 126, 128, 129,
                  131, 132, 134, 135, 137, 138, 140, 141, 143, 144, 146, 147,
                  149, 150, 152, 153, 155, 156, 158, 159, 161, 162, 164, 165,
                  167, 168, 170, 171, 173, 174, 176, 177, 179, 180, 182, 183,
                  185, 186, 188, 189, 191, 192, 194, 195, 197, 198, 200, 201,
                  203, 204, 206, 207, 209, 210, 212, 213, 215, 216, 218, 219,
                  221, 222, 224, 225, 227, 228, 230, 231, 233, 234, 236, 237,
                  239, 240, 242, 243, 245, 246, 248, 249, 251, 252, 254, 255,
                  257, 258, 260, 261, 263, 264, 266, 267, 269, 270, 272, 273,
                  275, 276, 278, 279, 281, 282, 284, 285, 287, 288, 290, 291,
                  293, 294, 296, 297, 299, 300, 302, 303, 305, 306, 308, 309,
                  311, 312, 314, 315, 317, 318, 320, 321, 323, 324, 326, 327,
                  329, 330, 332, 333, 335, 336, 338, 339, 341, 342, 344, 345,
                  347, 348, 350, 351, 353, 354, 356, 357, 359, 360, 362, 363,
                  365, 366, 368, 369, 371, 372, 374, 375, 377, 378, 380, 381,
                  383, 384, 386, 387, 389, 390, 392, 393, 395, 396, 398, 399,
                  401, 402, 404, 405, 407, 408, 410, 411, 413, 414, 416, 417,
                  419, 420, 422, 423, 425, 426, 428, 429, 431, 432, 434, 435,
                  437, 438, 440, 441, 443, 444, 446, 447, 449, 450, 452, 453,
                  455, 456, 458, 459, 461, 462, 464, 465, 467, 468, 470, 471,
                  473, 474, 476, 477, 479, 480, 482, 483, 485, 486, 488, 489,
                  491, 492, 494, 495, 497, 498, 500, 501, 503, 504, 506, 507,
                  509, 510, 512, 513, 515, 516, 518, 519, 521, 522, 524, 525,
                  527, 528, 530, 531, 533, 534, 536, 537, 539, 540, 542, 543,
                  545, 546, 548, 549, 551, 552, 554, 555, 557, 558, 560, 561,
                  563, 564, 566, 567, 569, 570, 572, 573, 575, 576, 578, 579,
                  581, 582, 584, 585, 587, 588, 590, 591, 593, 594, 596, 597,
                  599, 600, 602, 603, 605, 606, 608, 609, 611, 612, 614, 615,
                  617, 618, 620, 621, 623, 624, 626, 627, 629, 630, 632, 633,
                  635, 636, 638, 639, 641, 642, 644, 645, 647, 648, 650, 651,
                  653, 654, 656, 657, 659, 660, 662, 663, 665, 666, 668, 669,
                  671, 672, 674, 675, 677, 678, 680, 681, 683, 684, 686, 687,
                  689, 690, 692, 693, 695, 696, 698, 699, 701, 702, 704, 705,
                  707, 708, 710, 711, 713, 714, 716, 717, 719, 720, 722, 723,
                  725, 726, 728, 729, 731, 732, 734, 735, 737, 738, 740, 741,
                  743, 744, 746, 747, 749, 750, 752, 753, 755, 756

molecular fragmentation (1/2 indicates fragments):
111222222222222222222222222222222222222222222222222222222222222222222222
222222222222222222222222222222222222222222222222222222222222222222222222
222222222222222222222222222222222222222222222222222222222222222222222222
222222222222222222222222222222222222222222222222222222222222222222222222
222222222222222222222222222222222222222222222222222222222222222222222222
222222222222222222222222222222222222222222222222222222222222222222222222
222222222222222222222222222222222222222222222222222222222222222222222222
222222222222222222222222222222222222222222222222222222222222222222222222
222222222222222222222222222222222222222222222222222222222222222222222222
222222222222222222222222222222222222222222222222222222222222222222222222
222222222222222222222222222222222222
# atoms in fragment 1/2:     3   753
 fragment masses (1/2) :       18.02     4521.84
CMA distance (Bohr)    :  18.428
constraining FC (au)   :  0.0500

           -------------------------------------------------
          |                 G F N 2 - x T B                 |
           -------------------------------------------------

        Reference                      10.1021/acs.jctc.8b01176
      * Hamiltonian:
        H0-scaling (s, p, d)           1.850000    2.230000    2.230000
        zeta-weighting                 0.500000
      * Dispersion:
        s8                             2.700000
        a1                             0.520000
        a2                             5.000000
        s9                             5.000000
      * Repulsion:
        kExp                           1.500000    1.000000
        rExp                           1.000000
      * Coulomb:
        alpha                          2.000000
        third order                    shell-resolved
        anisotropic                    true
        a3                             3.000000
        a5                             4.000000
        cn-shift                       1.200000
        cn-exp                         4.000000
        max-rad                        5.000000


          ...................................................
          :                      SETUP                      :
          :.................................................:
          :  # basis functions                1512          :
          :  # atomic orbitals                1512          :
          :  # shells                         1008          :
          :  # electrons                      2016          :
          :  max. iterations                   250          :
          :  Hamiltonian                  GFN2-xTB          :
          :  restarted?                      false          :
          :  GBSA solvation                  false          :
          :  PC potential                    false          :
          :  electronic temp.          300.0000000     K    :
          :  accuracy                    1.0000000          :
          :  -> integral cutoff          0.2500000E+02      :
          :  -> integral neglect         0.1000000E-07      :
          :  -> SCF convergence          0.1000000E-05 Eh   :
          :  -> wf. convergence          0.1000000E-03 e    :
          :  Broyden damping             0.4000000          :
          ...................................................

 iter      E             dE          RMSdq      gap      omega  full diag
   1  -1291.0191008 -0.129102E+04  0.407E+00    8.37       0.0  T
   2  -1291.0953232 -0.762224E-01  0.242E+00    7.54       1.0  T
   3  -1291.1269915 -0.316683E-01  0.210E-01    6.27       1.0  T
   4  -1291.1322961 -0.530460E-02  0.456E-02    6.66       1.0  T
   5  -1291.1323727 -0.766016E-04  0.307E-02    6.60       1.0  T
   6  -1291.1324129 -0.402145E-04  0.424E-03    6.64       1.0  T
   7  -1291.1324153 -0.239630E-05  0.739E-04    6.63       4.9  T
   8  -1291.1324154 -0.289356E-07  0.371E-04    6.63       9.8  T
   9  -1291.1324154 -0.130408E-07  0.618E-05    6.63      58.9  T

   *** convergence criteria satisfied after 9 iterations ***

         #    Occupation            Energy/Eh            Energy/eV
      -------------------------------------------------------------
         1        2.0000           -0.6980623             -18.9952
       ...           ...                  ...                  ...
      1002        2.0000           -0.3446837              -9.3793
      1003        2.0000           -0.3407225              -9.2715
      1004        2.0000           -0.3385967              -9.2137
      1005        2.0000           -0.3359082              -9.1405
      1006        2.0000           -0.3318183              -9.0292
      1007        2.0000           -0.3290795              -8.9547
      1008        2.0000           -0.3260234              -8.8715 (HOMO)
      1009                         -0.0823122              -2.2398 (LUMO)
      1010                         -0.0765219              -2.0823
      1011                         -0.0576133              -1.5677
      1012                         -0.0548774              -1.4933
      1013                         -0.0518793              -1.4117
       ...                                ...                  ...
      1512                          0.4864047              13.2357
      -------------------------------------------------------------
                  HL-Gap            0.2437112 Eh            6.6317 eV
             Fermi-level           -0.2041678 Eh           -5.5557 eV
 
 localization/xTB-IFF output generation
 averaging CT terms over            4  occ. levels
 averaging CT terms over            2  virt. levels
 dipole moment from electron density (au)
     X       Y       Z   
  -3.2464   2.5941   2.1419  total (Debye):   11.883
cpu  time for init local    0.78 s
wall time for init local    0.40 s
 doing rotations ...
 initialization of trafo matrix to unity

 converged in     17 iterations, threshold :   0.99998824D-06
 doing transformations ...
 lmo centers(Z=2) and atoms on file <lmocent.coord>
 LMO Fii/eV  ncent    charge center   contributions...
    1 LP   *******   0.00  -6.50134   5.20732  -5.90017   34O : 54.12    7O : 36.51   91O : 31.23  652O : 29.68  223O : 27.82  526O : 27.11  298O : 26.34  364O : 25.47  661O : 24.67   94O : 24.28   52O : 23.75  214O : 23.48
  253O : 23.20  730O : 21.08  247O : 20.93  331O : 20.89   97O : 20.76  352O : 20.40  337O : 19.76   37O : 19.45  334O : 18.62  103O : 18.44  451O : 18.40  325O : 18.17
  415O : 18.09  154O : 17.16  541O : 17.09  292O : 16.91  256O : 16.40  142O : 16.36   70O : 16.10   19O : 15.90  535O : 15.05  751O : 14.91  577O : 14.53  700O : 14.17
  433O : 13.83  445O : 13.48  538O : 13.29  301O : 13.18  508O : 13.16  115O : 12.87  547O : 12.86   73O : 12.65  166O : 12.46  196O : 12.24  742O : 12.12  151O : 11.94
  655O : 11.92  481O : 11.89  460O : 11.89  229O : 11.84   46O : 11.74  607O : 11.70   88O : 11.21   28O : 10.75  157O : 10.74  268O : 10.71   67O : 10.60   40O : 10.53
  127O : 10.53  376O : 10.45  238O : 10.27  748O : 10.19  244O : 10.16   61O :  9.96  718O :  9.88  724O :  9.73  565O :  9.69  457O :  9.62  394O :  9.62  463O :  9.59
  175O :  9.54  202O :  9.46  418O :  9.35  595O :  9.35  670O :  9.31  322O :  9.23  430O :  9.22   49O :  9.19  397O :  9.05  343O :  8.99  217O :  8.91  424O :  8.90
  388O :  8.57  172O :  8.56  649O :  8.55  733O :  8.54  469O :  8.54  187O :  8.41  391O :  8.32  505O :  8.22  616O :  8.19  208O :  8.17  754O :  8.10  163O :  8.07
  265O :  8.01  205O :  7.98  493O :  7.95  184O :  7.88  634O :  7.80  274O :  7.79   43O :  7.73   76O :  7.60  709O :  7.49  499O :  7.17  235O :  7.16   25O :  7.00
  466O :  6.98  568O :  6.97  619O :  6.96  691O :  6.83  136O :  6.72  355O :  6.72  502O :  6.71  139O :  6.66  100O :  6.64    4O :  6.62  409O :  6.57  118O :  6.27
  340O :  6.13  286O :  6.13  712O :  6.01   31O :  5.94  703O :  5.88   16O :  5.74  169O :  5.74  574O :  5.72  529O :  5.67  592O :  5.55  250O :  5.42    9H :  5.40
  688O :  5.40  685O :  5.38  559O :  5.38  310O :  5.35  490O :  5.17  304O :  5.17  753H :  5.14  406O :  5.07  427O :  5.02  532O :  4.96  316O :  4.93  241O :  4.85
  631O :  4.85  124O :  4.81  283O :  4.80  349O :  4.72  583O :  4.65  520O :  4.65   85O :  4.59   58O :  4.50  454O :  4.48   79O :  4.46  358O :  4.46  478O :  4.46
  367O :  4.32   36H :  4.30  121O :  4.23  514O :  4.21   10O :  4.18  259O :  4.03  550O :  3.99  280O :  3.95  604O :  3.93  706O :  3.86   64O :  3.79  448O :  3.79
  361O :  3.79  697O :  3.78  580O :  3.76  589O :  3.74  442O :  3.72  199O :  3.70  496O :  3.68  181O :  3.68  643O :  3.64  517O :  3.63  628O :  3.56  370O :  3.49
  106O :  3.48    1O :  3.33  271O :  3.29  694O :  3.25  715O :  3.22   71H :  3.21   55O :  3.17  736O :  3.15   39H :  3.08  556O :  3.07  295O :  3.04  400O :  3.04
  379O :  3.00  145O :  2.98  373O :  2.97  220O :  2.92  178O :  2.89  226O :  2.83  472O :  2.76  646O :  2.75  487O :  2.73   62H :  2.70  148O :  2.69  133O :  2.65
  130O :  2.64  727O :  2.55   13O :  2.53  637O :  2.51  571O :  2.50  216H :  2.48  676O :  2.44  354H :  2.43  193O :  2.41  447H :  2.39  328O :  2.38  743H :  2.36
  609H :  2.35   95H :  2.33  436O :  2.27   47H :  2.20  562O :  2.18  745O :  2.18   20H :  2.17  116H :  2.11  289O :  2.07  313O :  2.05  721O :  2.05   92H :  2.04
  475O :  1.98  586O :  1.94  412O :  1.94  672H :  1.92  613O :  1.90  673O :  1.90  458H :  1.88  549H :  1.82  682O :  1.78  399H :  1.76  537H :  1.76  711H :  1.74
  667O :  1.73  232O :  1.71  240H :  1.66  277O :  1.61   98H :  1.60  159H :  1.59  601O :  1.59  319O :  1.58  390H :  1.52  610O :  1.51  109O :  1.47  204H :  1.47
  112O :  1.45  664O :  1.45  662H :  1.44  189H :  1.42  385O :  1.40  539H :  1.35  421O :  1.35  300H :  1.31  403O :  1.31  702H :  1.30   82O :  1.27  371H :  1.24
  625O :  1.21   89H :  1.19  160O :  1.18  483H :  1.16  311H :  1.13  299H :  1.11  678H :  1.11  113H :  1.10    5H :  1.10  452H :  1.09   86H :  1.08  140H :  1.07
  693H :  1.06  120H :  1.05  484O :  1.05  230H :  1.04  144H :  1.03  679O :  1.03  382O :  1.02  262O :  1.01  558H :  0.98  704H :  0.97   41H :  0.96  439O :  0.95
  453H :  0.95  569H :  0.93  195H :  0.93  658O :  0.93   80H :  0.92  656H :  0.89  640O :  0.89   78H :  0.89  544O :  0.87  122H :  0.87  307O :  0.87  222H :  0.87
  156H :  0.87  335H :  0.86  507H :  0.86  480H :  0.85  261H :  0.82  246H :  0.82  377H :  0.82  267H :  0.82  456H :  0.79  653H :  0.79  197H :  0.78  749H :  0.77
  221H :  0.77  734H :  0.75  117H :  0.74  190O :  0.74  174H :  0.74  346O :  0.73  654H :  0.72  515H :  0.72  219H :  0.72  401H :  0.72  164H :  0.71  153H :  0.70
  578H :  0.70  165H :  0.69  365H :  0.69  567H :  0.69  417H :  0.69  674H :  0.69  531H :  0.69  695H :  0.69  511O :  0.68  269H :  0.68  551H :  0.67   22O :  0.67
  614H :  0.66  560H :  0.65  303H :  0.64  176H :  0.64  152H :  0.64  461H :  0.64  372H :  0.63  287H :  0.63  501H :  0.62  435H :  0.60  171H :  0.60   75H :  0.60
  581H :  0.59  180H :  0.59  294H :  0.59  630H :  0.59  305H :  0.58   32H :  0.57  185H :  0.57   29H :  0.57  504H :  0.56   68H :  0.55  584H :  0.55  350H :  0.53
  368H :  0.53  254H :  0.52  473H :  0.52   30H :  0.52  683H :  0.52  168H :  0.51  357H :  0.51  726H :  0.50  188H :  0.50  570H :  0.49  739O :  0.49  651H :  0.49
  105H :  0.49   12H :  0.49  605H :  0.48  468H :  0.48  608H :  0.47  402H :  0.46  183H :  0.44  405H :  0.44  211O :  0.44  626H :  0.44  141H :  0.43  485H :  0.43
  104H :  0.42  470H :  0.42  338H :  0.41  203H :  0.41  722H :  0.40  663H :  0.40  101H :  0.40  632H :  0.40  523O :  0.40  747H :  0.40  437H :  0.40   72H :  0.40
  215H :  0.39  318H :  0.39  629H :  0.39  464H :  0.39  236H :  0.39   53H :  0.39  147H :  0.38  665H :  0.38  138H :  0.38  111H :  0.38  407H :  0.37  419H :  0.37
   69H :  0.37  681H :  0.37  705H :  0.37  572H :  0.35  621H :  0.35  689H :  0.34  699H :  0.34  553O :  0.34  366H :  0.33  290H :  0.33  291H :  0.33  510H :  0.32
  598O :  0.31  657H :  0.30  494H :  0.30  644H :  0.30  315H :  0.30  509H :  0.29  386H :  0.29  440H :  0.29  131H :  0.29  330H :  0.29  218H :  0.29   60H :  0.29
  392H :  0.29  500H :  0.29  158H :  0.29  411H :  0.29  257H :  0.28  696H :  0.28  474H :  0.28  603H :  0.28  668H :  0.27  234H :  0.27   23H :  0.27  408H :  0.27
  233H :  0.27  387H :  0.27  617H :  0.26  329H :  0.25   93H :  0.25  314H :  0.25  245H :  0.24  137H :  0.24  554H :  0.24  542H :  0.24  414H :  0.23  428H :  0.23
  548H :  0.23   48H :  0.23  345H :  0.22  429H :  0.22  714H :  0.22  123H :  0.22  543H :  0.21  713H :  0.21  302H :  0.21  462H :  0.21  735H :  0.21  627H :  0.20
  132H :  0.20  645H :  0.20  128H :  0.20  449H :  0.20  750H :  0.20   99H :  0.19  273H :  0.19  270H :  0.19   50H :  0.19  686H :  0.19  326H :  0.19   44H :  0.19
  225H :  0.18   38H :  0.18  503H :  0.18  536H :  0.18  296H :  0.17  576H :  0.17  692H :  0.17  348H :  0.17  740H :  0.16   18H :  0.16   27H :  0.16  309H :  0.16
  135H :  0.16  324H :  0.16  684H :  0.16  327H :  0.16  432H :  0.16   90H :  0.15  622O :  0.15  170H :  0.15  731H :  0.15  495H :  0.15  633H :  0.15  755H :  0.15
  446H :  0.15  404H :  0.15   45H :  0.14  611H :  0.14  320H :  0.14  321H :  0.13  530H :  0.13  708H :  0.13  125H :  0.13  545H :  0.13  353H :  0.13  239H :  0.13
  251H :  0.13  638H :  0.13  149H :  0.13  284H :  0.13  383H :  0.12   54H :  0.12  687H :  0.12  498H :  0.12  737H :  0.12  717H :  0.12  129H :  0.12  308H :  0.12
  179H :  0.12  242H :  0.12  119H :  0.11  252H :  0.11    2H :  0.11  323H :  0.11  729H :  0.11  332H :  0.11  134H :  0.10  360H :  0.10  201H :  0.10  266H :  0.10
  443H :  0.10  720H :  0.10  573H :  0.10  623H :  0.10  297H :  0.10  491H :  0.10  431H :  0.10  719H :  0.10  161H :  0.09  363H :  0.09  444H :  0.09  293H :  0.09
  561H :  0.09   84H :  0.09  341H :  0.09  279H :  0.09  344H :  0.09  182H :  0.09  272H :  0.09   42H :  0.09  756H :  0.08  512H :  0.08  278H :  0.08  347H :  0.08
  575H :  0.08  563H :  0.08   21H :  0.07  639H :  0.07  540H :  0.07  582H :  0.07  479H :  0.07   26H :  0.07
    2 LP   *******   0.00  -8.62954 -38.86962  -9.80503   34O : 30.73    7O : 21.99   91O : 21.29  652O : 17.88  223O : 16.75  526O : 16.42  298O : 15.87  364O : 15.34  661O : 14.86   94O : 14.64   52O : 14.30  214O : 14.14
  253O : 13.97  730O : 12.70  247O : 12.61  331O : 12.58   97O : 12.51  352O : 12.29  337O : 11.90   37O : 11.67  334O : 11.22  103O : 11.11  451O : 11.08  325O : 10.94
  415O : 10.90  154O : 10.33  541O : 10.30  292O : 10.19  256O :  9.88  142O :  9.85   70O :  9.68   19O :  9.61  535O :  9.06  751O :  8.98  577O :  8.75  700O :  8.40
  433O :  8.33  445O :  8.12  538O :  8.01  301O :  7.94  508O :  7.93  115O :  7.75  547O :  7.74   73O :  7.62  166O :  7.50  196O :  7.37  742O :  7.30  151O :  7.19
  655O :  7.17  460O :  7.16  481O :  7.16  229O :  7.13  607O :  7.05   46O :  7.01   88O :  6.75   28O :  6.50  157O :  6.47  268O :  6.45   67O :  6.39  127O :  6.34
   40O :  6.30  376O :  6.29  238O :  6.19  748O :  6.14  244O :  6.12   61O :  6.00  718O :  5.95  724O :  5.86  457O :  5.79  394O :  5.79  565O :  5.78  463O :  5.78
  175O :  5.74  202O :  5.70  418O :  5.63  595O :  5.63  670O :  5.61  322O :  5.57  430O :  5.56   49O :  5.53  397O :  5.45  343O :  5.41  217O :  5.37  424O :  5.36
  388O :  5.16  172O :  5.15  649O :  5.15  733O :  5.15  469O :  5.14  187O :  5.06  391O :  5.01  505O :  4.98  616O :  4.94  208O :  4.92  754O :  4.88  163O :  4.86
  265O :  4.83  184O :  4.81  205O :  4.81  493O :  4.79  634O :  4.70  274O :  4.69   43O :  4.61   76O :  4.58  709O :  4.51  499O :  4.32  235O :  4.31   25O :  4.23
  466O :  4.21  568O :  4.20  619O :  4.19  691O :  4.11  136O :  4.05  355O :  4.05  502O :  4.04  139O :  4.01  100O :  4.00    4O :  3.99  409O :  3.96  118O :  3.78
  340O :  3.69  286O :  3.69   31O :  3.64  712O :  3.62  703O :  3.54   16O :  3.46  169O :  3.46  574O :  3.44  529O :  3.41  592O :  3.34  250O :  3.27    9H :  3.26
  688O :  3.25  685O :  3.24  559O :  3.24  310O :  3.23  304O :  3.12  490O :  3.11  753H :  3.10  406O :  3.05  427O :  3.02  532O :  2.98  316O :  2.97  631O :  2.92
  241O :  2.92  124O :  2.90  283O :  2.89   36H :  2.86  349O :  2.84  583O :  2.80  520O :  2.80   58O :  2.71  478O :  2.71   85O :  2.71  454O :  2.69   79O :  2.69
  358O :  2.69  367O :  2.60  121O :  2.55  514O :  2.54   10O :  2.52  259O :  2.43  550O :  2.41  280O :  2.38  604O :  2.37  706O :  2.33   64O :  2.28  448O :  2.28
  361O :  2.28  697O :  2.28  580O :  2.27  589O :  2.26  442O :  2.24  496O :  2.22  181O :  2.22  199O :  2.21  643O :  2.19  517O :  2.19  628O :  2.14  370O :  2.11
  106O :  2.09    1O :  2.00  271O :  1.98  694O :  1.96  715O :  1.94   71H :  1.93   55O :  1.91  736O :  1.90  556O :  1.85   39H :  1.84  400O :  1.83  295O :  1.82
  379O :  1.80  145O :  1.80  373O :  1.79  220O :  1.76  178O :  1.74  226O :  1.71  472O :  1.66  646O :  1.66   62H :  1.62  148O :  1.62  133O :  1.60  130O :  1.59
  487O :  1.58  727O :  1.54   13O :  1.52  637O :  1.51  571O :  1.50  216H :  1.49  676O :  1.47  354H :  1.47  193O :  1.45  447H :  1.44  328O :  1.43  743H :  1.42
  609H :  1.41   95H :  1.40  436O :  1.37   20H :  1.33  562O :  1.31  745O :  1.31   47H :  1.31  116H :  1.27  289O :  1.24  313O :  1.24  721O :  1.23  475O :  1.19
  586O :  1.17  412O :  1.16  672H :  1.16  613O :  1.15  673O :  1.15  458H :  1.13  549H :  1.10   92H :  1.09  682O :  1.07  399H :  1.06  537H :  1.06  711H :  1.05
  667O :  1.04  232O :  1.03  240H :  1.00  277O :  0.97   98H :  0.96  159H :  0.96  601O :  0.95  319O :  0.95  390H :  0.92  610O :  0.91  109O :  0.90  204H :  0.89
  112O :  0.88  664O :  0.87  662H :  0.87  189H :  0.86  385O :  0.84  539H :  0.81  421O :  0.81  300H :  0.79  403O :  0.79   82O :  0.76  371H :  0.75  625O :  0.73
   89H :  0.72  160O :  0.71  483H :  0.70  311H :  0.68  702H :  0.67  299H :  0.67  678H :  0.67    5H :  0.66  113H :  0.66  452H :  0.66  140H :  0.65   86H :  0.65
  693H :  0.64  120H :  0.63  484O :  0.63  230H :  0.63  144H :  0.62  679O :  0.62  382O :  0.61  262O :  0.61  558H :  0.59  704H :  0.58  439O :  0.57  453H :  0.57
   41H :  0.57  569H :  0.56  195H :  0.56  658O :  0.56   80H :  0.56  656H :  0.54  640O :  0.53   78H :  0.53  122H :  0.53  307O :  0.53  222H :  0.52  156H :  0.52
  335H :  0.52  480H :  0.52  507H :  0.50  261H :  0.50  544O :  0.50  246H :  0.49  377H :  0.49  267H :  0.49  456H :  0.48  653H :  0.48  197H :  0.47  221H :  0.46
  749H :  0.46  734H :  0.45  117H :  0.45  174H :  0.44  190O :  0.44  346O :  0.44  654H :  0.44  515H :  0.43  219H :  0.43  401H :  0.43  164H :  0.43  153H :  0.42
  578H :  0.42  165H :  0.42  365H :  0.42  417H :  0.41  674H :  0.41  531H :  0.41  695H :  0.41  511O :  0.41  269H :  0.41  551H :  0.41   22O :  0.40  614H :  0.40
  303H :  0.40  560H :  0.39  176H :  0.39  152H :  0.39  461H :  0.38  372H :  0.38  287H :  0.38  501H :  0.37  435H :  0.36  171H :  0.36   75H :  0.36  581H :  0.36
  185H :  0.36  180H :  0.36  294H :  0.36  630H :  0.35   32H :  0.35  305H :  0.35   29H :  0.34  567H :  0.34  504H :  0.34   68H :  0.33  584H :  0.33  350H :  0.32
  368H :  0.32  254H :  0.32  473H :  0.31   30H :  0.31  683H :  0.31  168H :  0.31  357H :  0.30  726H :  0.30  188H :  0.30  570H :  0.30  739O :  0.30  651H :  0.29
  105H :  0.29   12H :  0.29  605H :  0.29  468H :  0.29  608H :  0.28  402H :  0.28  183H :  0.27  405H :  0.27  211O :  0.26  626H :  0.26  141H :  0.26  485H :  0.26
  104H :  0.25  470H :  0.25  338H :  0.25  203H :  0.24  722H :  0.24  663H :  0.24  101H :  0.24  632H :  0.24  523O :  0.24  747H :  0.24   72H :  0.24  437H :  0.24
  215H :  0.24  111H :  0.23  318H :  0.23  629H :  0.23  464H :  0.23  236H :  0.23   53H :  0.23  147H :  0.23  665H :  0.23  138H :  0.23  407H :  0.22  419H :  0.22
  681H :  0.22   69H :  0.22  705H :  0.22  572H :  0.21  621H :  0.21  689H :  0.21  699H :  0.20  553O :  0.20  366H :  0.20  291H :  0.20  290H :  0.20  510H :  0.19
   93H :  0.19  598O :  0.18  657H :  0.18  494H :  0.18  644H :  0.18  315H :  0.18  509H :  0.18  386H :  0.18  440H :  0.18  131H :  0.18  330H :  0.17  218H :  0.17
   60H :  0.17  392H :  0.17  500H :  0.17  158H :  0.17  411H :  0.17  257H :  0.17  696H :  0.17  474H :  0.17  603H :  0.17  668H :  0.16  234H :  0.16   23H :  0.16
  408H :  0.16  233H :  0.16  387H :  0.16  617H :  0.16  329H :  0.15  314H :  0.15  245H :  0.15  137H :  0.14  554H :  0.14  542H :  0.14  414H :  0.14  428H :  0.14
  548H :  0.14   48H :  0.13  345H :  0.13  429H :  0.13  714H :  0.13  123H :  0.13  543H :  0.13  713H :  0.13  462H :  0.13  302H :  0.13  735H :  0.12  627H :  0.12
  132H :  0.12  645H :  0.12  128H :  0.12  449H :  0.12  750H :  0.12   99H :  0.12   44H :  0.12  273H :  0.12  270H :  0.12   50H :  0.11  686H :  0.11  326H :  0.11
  225H :  0.11  503H :  0.11  536H :  0.11  296H :  0.10  576H :  0.10  692H :  0.10  348H :  0.10  740H :  0.10   18H :  0.10   27H :  0.10  309H :  0.10  135H :  0.10
  324H :  0.10   38H :  0.09  684H :  0.09  327H :  0.09  432H :  0.09   90H :  0.09  622O :  0.09  170H :  0.09  731H :  0.09  495H :  0.09  633H :  0.09  446H :  0.09
  755H :  0.09  404H :  0.09   45H :  0.08  611H :  0.08  320H :  0.08  321H :  0.08  530H :  0.08  708H :  0.08  353H :  0.08  125H :  0.08  239H :  0.08  251H :  0.08
  638H :  0.08  149H :  0.08  545H :  0.08  284H :  0.08  383H :  0.08   54H :  0.07  687H :  0.07  498H :  0.07  737H :  0.07  717H :  0.07  129H :  0.07  179H :  0.07
  308H :  0.07  242H :  0.07
    3 LP   *******   0.00  17.66980 -15.44908  -4.52215   34O : 29.44    7O : 22.57   91O : 18.02  652O : 17.13  223O : 16.06  526O : 15.64  298O : 15.20  364O : 14.71  661O : 14.24   94O : 14.03   52O : 13.70  214O : 13.54
  253O : 13.39  730O : 12.16  247O : 12.08  331O : 12.05   97O : 11.98  352O : 11.77  337O : 11.40   37O : 11.23  334O : 10.75  103O : 10.65  451O : 10.62  325O : 10.48
  415O : 10.44  154O :  9.90  541O :  9.87  292O :  9.76  256O :  9.46  142O :  9.44   70O :  9.27   19O :  9.10  535O :  8.68  751O :  8.60  577O :  8.39  700O :  8.18
  433O :  7.98  445O :  7.78  538O :  7.67  301O :  7.61  508O :  7.59  115O :  7.42  547O :  7.42   73O :  7.30  166O :  7.19  196O :  7.06  742O :  7.00  151O :  6.89
  655O :  6.87  460O :  6.86  481O :  6.85  229O :  6.84  607O :  6.75   46O :  6.70   88O :  6.42   28O :  6.22  157O :  6.20  268O :  6.18   67O :  6.17  127O :  6.08
   40O :  6.03  376O :  6.03  238O :  5.93  748O :  5.87  244O :  5.86   61O :  5.75  718O :  5.70  724O :  5.62  457O :  5.55  394O :  5.55  565O :  5.54  463O :  5.54
  202O :  5.45  418O :  5.40  595O :  5.39  670O :  5.37  175O :  5.36  322O :  5.33  430O :  5.32   49O :  5.30  397O :  5.22  343O :  5.19  217O :  5.14  424O :  5.14
  388O :  4.95  172O :  4.94  649O :  4.93  733O :  4.93  469O :  4.93  187O :  4.85  391O :  4.80  505O :  4.74  616O :  4.73  208O :  4.72  754O :  4.67  163O :  4.65
  265O :  4.62  205O :  4.61  493O :  4.59  184O :  4.54  634O :  4.50  274O :  4.50   43O :  4.42   76O :  4.39  709O :  4.32  499O :  4.14  235O :  4.13   25O :  4.04
  466O :  4.03  568O :  4.02  619O :  4.02  691O :  3.94  136O :  3.88  355O :  3.88  502O :  3.87  139O :  3.84  100O :  3.84    4O :  3.82  409O :  3.79  118O :  3.62
  340O :  3.54  286O :  3.54   31O :  3.48  712O :  3.47  703O :  3.37   16O :  3.31  169O :  3.31  574O :  3.30  529O :  3.27  592O :  3.20  250O :  3.13  688O :  3.12
  685O :  3.10  559O :  3.10  310O :  3.09  490O :  2.98  304O :  2.98  753H :  2.96  406O :  2.92  427O :  2.90  532O :  2.86  316O :  2.84    9H :  2.82  631O :  2.80
  241O :  2.80  124O :  2.78  283O :  2.77   36H :  2.74  349O :  2.72  583O :  2.68  520O :  2.68   85O :  2.65   58O :  2.60  454O :  2.58   79O :  2.57  358O :  2.57
  478O :  2.57  367O :  2.49  121O :  2.44  514O :  2.43   10O :  2.41  259O :  2.33  550O :  2.31  280O :  2.28  604O :  2.27  706O :  2.23   64O :  2.19  448O :  2.19
  361O :  2.18  697O :  2.18  580O :  2.17  589O :  2.16  199O :  2.14  442O :  2.14  496O :  2.13  181O :  2.12  643O :  2.10  517O :  2.10  628O :  2.05  370O :  2.02
  106O :  2.01    1O :  1.92  271O :  1.90  694O :  1.88  715O :  1.86   71H :  1.85   55O :  1.83  736O :  1.82   39H :  1.78  556O :  1.77  400O :  1.75  295O :  1.74
  379O :  1.73  145O :  1.72  373O :  1.72  220O :  1.68  178O :  1.67  226O :  1.64  472O :  1.59  646O :  1.59  487O :  1.58   62H :  1.56  148O :  1.55  133O :  1.53
  130O :  1.53  727O :  1.47   13O :  1.46  637O :  1.45  571O :  1.44  216H :  1.43  676O :  1.41  354H :  1.40  193O :  1.39  447H :  1.38  743H :  1.36  328O :  1.36
  609H :  1.36   95H :  1.35  436O :  1.31   20H :  1.27  562O :  1.26  745O :  1.26   47H :  1.25  116H :  1.22  289O :  1.19  313O :  1.18  721O :  1.18   92H :  1.18
  475O :  1.15  586O :  1.12  412O :  1.12  672H :  1.11  613O :  1.10  673O :  1.10  458H :  1.09  549H :  1.05  682O :  1.03  399H :  1.02  537H :  1.01  711H :  1.00
  667O :  1.00  232O :  0.99  240H :  0.96  277O :  0.93   98H :  0.92  159H :  0.92  601O :  0.91  319O :  0.91  390H :  0.88  610O :  0.87  109O :  0.86  204H :  0.85
  112O :  0.84  664O :  0.84  662H :  0.83  189H :  0.83  385O :  0.81  539H :  0.78  421O :  0.78  300H :  0.76  403O :  0.75  702H :  0.75   82O :  0.73  371H :  0.72
  625O :  0.70  160O :  0.68   89H :  0.68  483H :  0.67  311H :  0.65  299H :  0.64  678H :  0.64    5H :  0.63  113H :  0.63  452H :  0.63   86H :  0.62  140H :  0.62
  693H :  0.61  120H :  0.61  484O :  0.60  230H :  0.60  144H :  0.59  679O :  0.59  382O :  0.59  262O :  0.59  558H :  0.56  704H :  0.56  439O :  0.55  453H :  0.55
   41H :  0.54  569H :  0.54  195H :  0.54  658O :  0.53   80H :  0.53  656H :  0.52  640O :  0.51   78H :  0.51  544O :  0.50  307O :  0.50  122H :  0.50  222H :  0.50
  156H :  0.50  335H :  0.50  507H :  0.49  480H :  0.49  261H :  0.47  246H :  0.47  377H :  0.47  267H :  0.47  456H :  0.46  653H :  0.46  197H :  0.45  221H :  0.44
  749H :  0.44  734H :  0.43  117H :  0.43  190O :  0.43  174H :  0.43  346O :  0.42  654H :  0.42  515H :  0.42  219H :  0.41  401H :  0.41  164H :  0.41  153H :  0.40
  578H :  0.40  165H :  0.40  365H :  0.40  417H :  0.40  674H :  0.40  531H :  0.40  695H :  0.40  511O :  0.39  269H :  0.39  551H :  0.39   22O :  0.39  614H :  0.38
  560H :  0.37  176H :  0.37  303H :  0.37  152H :  0.37  461H :  0.37  372H :  0.37  287H :  0.36  501H :  0.36  435H :  0.35   75H :  0.35  171H :  0.35  581H :  0.34
  180H :  0.34  294H :  0.34  630H :  0.34   32H :  0.34   68H :  0.33  305H :  0.33  185H :  0.33   29H :  0.33  567H :  0.32  504H :  0.32  584H :  0.32  350H :  0.31
  368H :  0.30  254H :  0.30  473H :  0.30   30H :  0.30  683H :  0.30  168H :  0.29  357H :  0.29  726H :  0.29  188H :  0.29  570H :  0.28  739O :  0.28  651H :  0.28
  105H :  0.28   12H :  0.28  605H :  0.28  468H :  0.27  608H :  0.27  402H :  0.27  183H :  0.26  405H :  0.25  211O :  0.25  626H :  0.25  141H :  0.25  485H :  0.25
  104H :  0.24  470H :  0.24  338H :  0.24  203H :  0.23  722H :  0.23  663H :  0.23  101H :  0.23  632H :  0.23  523O :  0.23  747H :  0.23   72H :  0.23  437H :  0.23
  215H :  0.23  111H :  0.23  318H :  0.23  629H :  0.22  464H :  0.22  236H :  0.22   53H :  0.22  147H :  0.22  665H :  0.22  138H :  0.22  407H :  0.21  419H :  0.21
  681H :  0.21  705H :  0.21   69H :  0.20  572H :  0.20  621H :  0.20  689H :  0.20  699H :  0.19  553O :  0.19  290H :  0.19  366H :  0.19  291H :  0.19   48H :  0.19
  510H :  0.18  598O :  0.18  657H :  0.18  494H :  0.17  644H :  0.17  315H :  0.17  509H :  0.17  386H :  0.17  440H :  0.17  330H :  0.17  131H :  0.17  218H :  0.17
   60H :  0.17  392H :  0.17  500H :  0.17  158H :  0.17  411H :  0.16  257H :  0.16  696H :  0.16  474H :  0.16  603H :  0.16  668H :  0.16  234H :  0.16  408H :  0.16
   23H :  0.16  233H :  0.16  387H :  0.15  617H :  0.15  329H :  0.14   93H :  0.14  314H :  0.14  245H :  0.14  137H :  0.14  554H :  0.14  542H :  0.14  414H :  0.13
  428H :  0.13  548H :  0.13  345H :  0.13  429H :  0.13  714H :  0.13  123H :  0.12  543H :  0.12  713H :  0.12  302H :  0.12  462H :  0.12  735H :  0.12  627H :  0.12
  132H :  0.12  645H :  0.12  128H :  0.11  449H :  0.11   99H :  0.11   44H :  0.11  273H :  0.11  270H :  0.11  686H :  0.11  326H :  0.11   50H :  0.11  750H :  0.11
  225H :  0.11   38H :  0.11  503H :  0.10  536H :  0.10  296H :  0.10  576H :  0.10  692H :  0.10  348H :  0.10  740H :  0.10   18H :  0.09   27H :  0.09  309H :  0.09
  135H :  0.09  324H :  0.09  684H :  0.09  432H :  0.09  327H :  0.09  170H :  0.09  622O :  0.09   90H :  0.09  731H :  0.09  495H :  0.09  633H :  0.08  446H :  0.08
  404H :  0.08  755H :  0.08   45H :  0.08  611H :  0.08  320H :  0.08  321H :  0.08  530H :  0.08  708H :  0.08  545H :  0.08  353H :  0.08  125H :  0.08  239H :  0.08
  251H :  0.07  638H :  0.07  284H :  0.07  383H :  0.07   54H :  0.07  149H :  0.07  687H :  0.07  498H :  0.07  737H :  0.07  717H :  0.07
    4 LP   *******   0.00  52.44186 -27.71019  -5.57511   34O : 28.25    7O : 20.21  652O : 18.87   91O : 17.29  223O : 15.40  526O : 15.01  298O : 14.58  364O : 14.10  661O : 13.66   94O : 13.46   52O : 13.15  214O : 13.00
  253O : 12.84  730O : 11.67  247O : 11.59  331O : 11.56   97O : 11.49  352O : 11.29  337O : 10.94   37O : 10.77  334O : 10.31  103O : 10.21  451O : 10.19  325O : 10.06
  415O : 10.01  154O :  9.50  541O :  9.46  292O :  9.36  256O :  9.08  142O :  9.06   70O :  8.89   19O :  8.80  535O :  8.33  751O :  8.25  577O :  8.04  700O :  7.84
  433O :  7.66  445O :  7.46  538O :  7.36  301O :  7.30  508O :  7.29  115O :  7.12  547O :  7.12   73O :  7.00  166O :  6.89  196O :  6.78  742O :  6.71  151O :  6.66
  655O :  6.59  460O :  6.59  481O :  6.58  229O :  6.55  607O :  6.46   46O :  6.45   88O :  6.22   28O :  5.97  157O :  5.95  268O :  5.93   67O :  5.87  127O :  5.83
   40O :  5.79  376O :  5.78  238O :  5.69  748O :  5.64  244O :  5.62   61O :  5.51  718O :  5.47  724O :  5.39  457O :  5.33  394O :  5.33  565O :  5.31  463O :  5.31
  175O :  5.28  202O :  5.24  418O :  5.18  595O :  5.17  670O :  5.15  322O :  5.12  430O :  5.11   49O :  5.09  397O :  5.01  343O :  4.98  217O :  4.93  424O :  4.93
  388O :  4.75  172O :  4.74  649O :  4.73  733O :  4.73  469O :  4.73  187O :  4.65  391O :  4.61  505O :  4.55  616O :  4.54  208O :  4.52  754O :  4.48  163O :  4.47
  265O :  4.44  205O :  4.42  493O :  4.40  184O :  4.36  634O :  4.32  274O :  4.31   43O :  4.24   76O :  4.21  709O :  4.15  235O :  3.97  499O :  3.95   25O :  3.88
  466O :  3.87  619O :  3.86  568O :  3.86  691O :  3.77  136O :  3.72  355O :  3.72  502O :  3.72  139O :  3.69  100O :  3.68    4O :  3.66  409O :  3.64  118O :  3.47
  340O :  3.40  286O :  3.40   31O :  3.34  712O :  3.33  703O :  3.26   16O :  3.18  169O :  3.18  574O :  3.16  529O :  3.14  592O :  3.07  250O :  3.00    9H :  2.99
  688O :  2.99  685O :  2.98  559O :  2.98  310O :  2.96  490O :  2.86  304O :  2.86  753H :  2.85  406O :  2.81  427O :  2.79  532O :  2.74  316O :  2.73  631O :  2.69
  241O :  2.69  124O :  2.66  283O :  2.66   36H :  2.63  349O :  2.61  583O :  2.57  520O :  2.57   85O :  2.54   58O :  2.49  454O :  2.48   79O :  2.47  358O :  2.47
  478O :  2.47  367O :  2.39  121O :  2.34  514O :  2.33   10O :  2.31  259O :  2.23  550O :  2.21  280O :  2.19  604O :  2.18  706O :  2.14   64O :  2.10  448O :  2.10
  697O :  2.09  361O :  2.09  580O :  2.08  589O :  2.07  199O :  2.05  496O :  2.04  181O :  2.04  442O :  2.03  643O :  2.01  517O :  2.01  628O :  1.97  370O :  1.93
  106O :  1.92    1O :  1.84  271O :  1.82  694O :  1.80  715O :  1.78   71H :  1.77   55O :  1.75  736O :  1.75   39H :  1.71  556O :  1.70  400O :  1.68  379O :  1.67
  295O :  1.67  145O :  1.65  373O :  1.65  220O :  1.61  178O :  1.60  226O :  1.57  472O :  1.53  646O :  1.52  487O :  1.51   62H :  1.49  148O :  1.49  133O :  1.47
  130O :  1.46  727O :  1.41   13O :  1.40  637O :  1.39  571O :  1.38  216H :  1.37  676O :  1.35  354H :  1.35  193O :  1.33  447H :  1.32  328O :  1.32  743H :  1.31
  609H :  1.30   95H :  1.29  436O :  1.26  562O :  1.21  745O :  1.21   20H :  1.20   47H :  1.20  116H :  1.17  289O :  1.14  313O :  1.14   92H :  1.13  475O :  1.13
  721O :  1.12  586O :  1.07  412O :  1.07  672H :  1.06  613O :  1.05  673O :  1.05  458H :  1.04  549H :  1.01  682O :  0.99  399H :  0.97  537H :  0.97  711H :  0.96
  667O :  0.96  232O :  0.95  240H :  0.92   98H :  0.88  159H :  0.88  601O :  0.88  319O :  0.87  277O :  0.84  390H :  0.84  610O :  0.84  109O :  0.83  204H :  0.81
  112O :  0.81  664O :  0.80  662H :  0.80  189H :  0.79  385O :  0.78  539H :  0.75  421O :  0.75  300H :  0.73  403O :  0.72  702H :  0.72   82O :  0.70  371H :  0.69
  625O :  0.67   89H :  0.66  160O :  0.65  483H :  0.64  311H :  0.63  299H :  0.62  678H :  0.62  113H :  0.61    5H :  0.61  452H :  0.60   86H :  0.60  140H :  0.59
  693H :  0.58  120H :  0.58  484O :  0.58  230H :  0.58  144H :  0.57  679O :  0.57  382O :  0.56  262O :  0.56  558H :  0.54  704H :  0.54  439O :  0.52  453H :  0.52
   41H :  0.52  569H :  0.52  195H :  0.51  658O :  0.51   80H :  0.51  656H :  0.49  640O :  0.49   78H :  0.49  544O :  0.48  122H :  0.48  307O :  0.48  222H :  0.48
  156H :  0.48  335H :  0.48  507H :  0.47  480H :  0.47  261H :  0.46  246H :  0.45  377H :  0.45  267H :  0.45  456H :  0.44  197H :  0.43  221H :  0.43  749H :  0.43
  734H :  0.41  117H :  0.41  190O :  0.41  174H :  0.41  346O :  0.40  515H :  0.40  219H :  0.40  401H :  0.40  164H :  0.39  153H :  0.39  578H :  0.39  165H :  0.38
  365H :  0.38  417H :  0.38  531H :  0.38  695H :  0.38  674H :  0.38  511O :  0.38  269H :  0.38  551H :  0.37   22O :  0.37  653H :  0.37  614H :  0.36  560H :  0.36
  303H :  0.36  176H :  0.35  461H :  0.35  372H :  0.35  152H :  0.35  501H :  0.35  287H :  0.35  654H :  0.33  435H :  0.33  171H :  0.33   75H :  0.33  581H :  0.33
  180H :  0.33  294H :  0.33  630H :  0.33   32H :  0.33  305H :  0.32  185H :  0.32   29H :  0.32  567H :  0.31  504H :  0.31   68H :  0.31  584H :  0.30  350H :  0.29
  368H :  0.29  254H :  0.29  473H :  0.29   30H :  0.29  683H :  0.29  726H :  0.28  168H :  0.28  357H :  0.28  188H :  0.28  570H :  0.27  739O :  0.27  651H :  0.27
  105H :  0.27   12H :  0.27  605H :  0.26  468H :  0.26  608H :  0.26  402H :  0.26  183H :  0.24  405H :  0.24  211O :  0.24  626H :  0.24  141H :  0.24  485H :  0.24
  104H :  0.23  470H :  0.23  338H :  0.23  722H :  0.22  203H :  0.22  101H :  0.22  663H :  0.22  632H :  0.22  747H :  0.22   72H :  0.22  437H :  0.22  111H :  0.22
  318H :  0.22  215H :  0.22  629H :  0.21  464H :  0.21  236H :  0.21   53H :  0.21  665H :  0.21  147H :  0.21  138H :  0.21  407H :  0.21  419H :  0.21   69H :  0.20
  681H :  0.20  705H :  0.20  523O :  0.20  572H :  0.19  621H :  0.19  689H :  0.19  699H :  0.19  553O :  0.19  366H :  0.18  290H :  0.18  291H :  0.18  510H :  0.18
  598O :  0.17  657H :  0.17  494H :  0.17  644H :  0.17  315H :  0.16  509H :  0.16  386H :  0.16  440H :  0.16  131H :  0.16  330H :  0.16  218H :  0.16   60H :  0.16
  392H :  0.16  500H :  0.16  411H :  0.16  158H :  0.16  257H :  0.16  696H :  0.16  474H :  0.16  603H :  0.15  668H :  0.15  234H :  0.15   23H :  0.15  408H :  0.15
  233H :  0.15  387H :  0.15  617H :  0.14  329H :  0.14   93H :  0.14  314H :  0.14  245H :  0.13  137H :  0.13  554H :  0.13  542H :  0.13  414H :  0.13  428H :  0.13
  548H :  0.13   48H :  0.12  345H :  0.12  429H :  0.12  714H :  0.12  123H :  0.12  543H :  0.12  713H :  0.12  302H :  0.12  462H :  0.12  735H :  0.11  132H :  0.11
  627H :  0.11  645H :  0.11  128H :  0.11  449H :  0.11  750H :  0.11   44H :  0.11   99H :  0.11  273H :  0.11  270H :  0.11  686H :  0.11   50H :  0.11  326H :  0.11
  225H :  0.10   38H :  0.10  503H :  0.10  536H :  0.10  296H :  0.10  576H :  0.10  692H :  0.09  348H :  0.09  740H :  0.09   18H :  0.09   27H :  0.09  309H :  0.09
  135H :  0.09  324H :  0.09  684H :  0.09  327H :  0.09  432H :  0.09   90H :  0.08  622O :  0.08  170H :  0.08  731H :  0.08  495H :  0.08  633H :  0.08  755H :  0.08
  446H :  0.08  404H :  0.08   45H :  0.08  611H :  0.08  320H :  0.08  321H :  0.07  530H :  0.07  708H :  0.07  545H :  0.07  353H :  0.07  125H :  0.07  239H :  0.07
  251H :  0.07  638H :  0.07
    5 LP   *******   0.00  39.32684 -50.23772  22.87688   34O : 24.80    7O : 17.75  223O : 16.90   91O : 15.18  652O : 14.43  526O : 13.18  298O : 12.81  364O : 12.38  661O : 11.99   94O : 11.82   52O : 11.54  214O : 11.41
  253O : 11.28  730O : 10.25  247O : 10.18  331O : 10.15   97O : 10.09  352O :  9.92  337O :  9.60   37O :  9.45  334O :  9.05  103O :  8.97  451O :  8.95  325O :  8.83
  415O :  8.79  154O :  8.34  541O :  8.31  292O :  8.22  256O :  7.97  142O :  7.96   70O :  7.81   19O :  7.73  535O :  7.31  751O :  7.25  577O :  7.06  700O :  6.89
  433O :  6.72  445O :  6.55  538O :  6.46  301O :  6.41  508O :  6.40  115O :  6.26  547O :  6.25   73O :  6.15  166O :  6.05  196O :  5.95  742O :  5.89  151O :  5.80
  655O :  5.79  460O :  5.78  481O :  5.78  229O :  5.76  607O :  5.69   46O :  5.66   88O :  5.45   28O :  5.24  157O :  5.22  268O :  5.20   67O :  5.15  127O :  5.12
   40O :  5.08  376O :  5.08  238O :  4.99  748O :  4.95  244O :  4.94   61O :  4.84  718O :  4.80  724O :  4.73  457O :  4.68  394O :  4.68  565O :  4.66  463O :  4.66
  175O :  4.64  202O :  4.60  418O :  4.55  595O :  4.54  670O :  4.52  322O :  4.49  430O :  4.48   49O :  4.47  397O :  4.40  343O :  4.37  217O :  4.33  424O :  4.33
  388O :  4.17  172O :  4.16  649O :  4.16  733O :  4.15  469O :  4.15  187O :  4.09  391O :  4.04  505O :  3.99  616O :  3.98  208O :  3.97  754O :  3.94  163O :  3.92
  265O :  3.89  205O :  3.88  493O :  3.86  184O :  3.83  634O :  3.79  274O :  3.78   43O :  3.72   76O :  3.70  709O :  3.64  499O :  3.49  235O :  3.48   25O :  3.40
  466O :  3.39  568O :  3.39  619O :  3.39  691O :  3.32  502O :  3.28  355O :  3.27  136O :  3.27  139O :  3.24    4O :  3.22  409O :  3.19  100O :  3.14  118O :  3.05
  340O :  2.98  286O :  2.98   31O :  2.93  712O :  2.92  703O :  2.86   16O :  2.79  574O :  2.78  169O :  2.77  529O :  2.76  592O :  2.70  250O :  2.64    9H :  2.63
  688O :  2.63  685O :  2.61  559O :  2.61  310O :  2.60  304O :  2.51  490O :  2.51  753H :  2.50  406O :  2.46  427O :  2.44  532O :  2.41  316O :  2.40  631O :  2.36
  241O :  2.36  124O :  2.34  283O :  2.33   36H :  2.31  349O :  2.30  583O :  2.26  520O :  2.26   85O :  2.23   58O :  2.19  454O :  2.17   79O :  2.17  358O :  2.17
  478O :  2.17  367O :  2.10  121O :  2.06  514O :  2.05   10O :  2.03  259O :  1.96  550O :  1.94  280O :  1.92  604O :  1.91  706O :  1.88   64O :  1.84  448O :  1.84
  361O :  1.84  697O :  1.84  580O :  1.83  589O :  1.82  442O :  1.81  199O :  1.80  496O :  1.79  181O :  1.79  643O :  1.77  517O :  1.77  628O :  1.73  370O :  1.70
  106O :  1.69    1O :  1.61  271O :  1.60  694O :  1.58  715O :  1.57   71H :  1.56   55O :  1.54  736O :  1.53   39H :  1.50  556O :  1.49  400O :  1.48  295O :  1.47
  379O :  1.45  373O :  1.45  145O :  1.44  220O :  1.42  178O :  1.40  226O :  1.38  472O :  1.34  646O :  1.34  487O :  1.33   62H :  1.31  148O :  1.31  133O :  1.29
  130O :  1.28  727O :  1.24   13O :  1.23  637O :  1.22  571O :  1.21  216H :  1.21  193O :  1.20  676O :  1.19  354H :  1.18  447H :  1.16  328O :  1.16  743H :  1.15
  609H :  1.14   95H :  1.13  436O :  1.10  562O :  1.06  745O :  1.06   20H :  1.06   47H :  1.05  116H :  1.03  289O :  1.00  313O :  1.00  721O :  1.00   92H :  0.99
  475O :  0.96  586O :  0.94  412O :  0.94  672H :  0.93  613O :  0.93  673O :  0.92  458H :  0.91  549H :  0.89  682O :  0.87  399H :  0.86  537H :  0.85  711H :  0.84
  667O :  0.84  232O :  0.83  240H :  0.80  277O :  0.78   98H :  0.78  159H :  0.77  601O :  0.77  319O :  0.77  390H :  0.74  610O :  0.74  109O :  0.73  204H :  0.71
  112O :  0.71  664O :  0.71  662H :  0.70  189H :  0.69  385O :  0.68  539H :  0.66  421O :  0.65  300H :  0.64  403O :  0.63  702H :  0.63   82O :  0.61  371H :  0.60
  625O :  0.59   89H :  0.58  160O :  0.57  483H :  0.56  311H :  0.55  299H :  0.54  678H :  0.54  113H :  0.53    5H :  0.53  452H :  0.53   86H :  0.52  140H :  0.52
  693H :  0.52  120H :  0.51  484O :  0.51  230H :  0.51  144H :  0.50  679O :  0.50  382O :  0.49  262O :  0.49  558H :  0.48  704H :  0.47  439O :  0.46  453H :  0.46
   41H :  0.46  569H :  0.45  195H :  0.45  658O :  0.45   80H :  0.45  656H :  0.43  640O :  0.43   78H :  0.43  544O :  0.43  307O :  0.42  122H :  0.42  222H :  0.42
  156H :  0.42  335H :  0.42  507H :  0.42  480H :  0.41  261H :  0.40  246H :  0.40  377H :  0.40  267H :  0.40  456H :  0.38  653H :  0.38  197H :  0.38  221H :  0.37
  749H :  0.37  734H :  0.36  117H :  0.36  174H :  0.36  190O :  0.36  346O :  0.35  654H :  0.35  515H :  0.35  219H :  0.35  401H :  0.35  164H :  0.34  153H :  0.34
  578H :  0.34  165H :  0.34  365H :  0.34  417H :  0.33  674H :  0.33  531H :  0.33  695H :  0.33  511O :  0.33  269H :  0.33   22O :  0.33  551H :  0.33  614H :  0.32
  560H :  0.31  303H :  0.31  176H :  0.31  152H :  0.31  461H :  0.31  372H :  0.31  287H :  0.30  171H :  0.30  501H :  0.30  435H :  0.29   75H :  0.29  504H :  0.29
  581H :  0.29  180H :  0.29  294H :  0.29  630H :  0.29   32H :  0.29  305H :  0.28  185H :  0.28   29H :  0.28  567H :  0.27   68H :  0.27  584H :  0.27  350H :  0.26
  368H :  0.26  254H :  0.25  473H :  0.25   30H :  0.25  683H :  0.25  168H :  0.25  357H :  0.25  726H :  0.24  188H :  0.24  570H :  0.24  739O :  0.24  651H :  0.24
  105H :  0.24   12H :  0.24  468H :  0.23  605H :  0.23  608H :  0.23  402H :  0.22  183H :  0.21  405H :  0.21  211O :  0.21  626H :  0.21  141H :  0.21  485H :  0.21
  104H :  0.20  470H :  0.20  338H :  0.20  203H :  0.20  722H :  0.20  663H :  0.19  632H :  0.19  523O :  0.19  747H :  0.19   72H :  0.19  437H :  0.19  215H :  0.19
  111H :  0.19  318H :  0.19  629H :  0.19  464H :  0.19  236H :  0.19   53H :  0.19  665H :  0.19  101H :  0.19  138H :  0.18  147H :  0.18  407H :  0.18  419H :  0.18
  681H :  0.18   69H :  0.18  705H :  0.18  572H :  0.17  621H :  0.17  689H :  0.17  699H :  0.16  553O :  0.16  366H :  0.16  290H :  0.16  291H :  0.16  510H :  0.15
  598O :  0.15  657H :  0.15  494H :  0.15  644H :  0.15  315H :  0.14  509H :  0.14  440H :  0.14  386H :  0.14  131H :  0.14  330H :  0.14  218H :  0.14   60H :  0.14
  392H :  0.14  500H :  0.14  158H :  0.14  411H :  0.14  257H :  0.14  696H :  0.14  474H :  0.14  603H :  0.14  668H :  0.13  234H :  0.13   23H :  0.13  408H :  0.13
  233H :  0.13  387H :  0.13  617H :  0.13  329H :  0.12   93H :  0.12  314H :  0.12  245H :  0.12  137H :  0.12  554H :  0.12  542H :  0.11  414H :  0.11  428H :  0.11
  548H :  0.11   48H :  0.11  345H :  0.11  429H :  0.11  714H :  0.11  123H :  0.10  543H :  0.10  713H :  0.10  302H :  0.10  462H :  0.10  735H :  0.10  627H :  0.10
  132H :  0.10  645H :  0.10  128H :  0.10  449H :  0.10  750H :  0.10   44H :  0.09   99H :  0.09  273H :  0.09  270H :  0.09  686H :  0.09   50H :  0.09  326H :  0.09
   38H :  0.09  503H :  0.09  536H :  0.09  296H :  0.08  576H :  0.08  692H :  0.08  348H :  0.08  740H :  0.08   18H :  0.08   27H :  0.08  309H :  0.08  135H :  0.08
  324H :  0.08  684H :  0.08  327H :  0.08  432H :  0.08   90H :  0.07  170H :  0.07  622O :  0.07  731H :  0.07  495H :  0.07  633H :  0.07  446H :  0.07  755H :  0.07
  404H :  0.07
    6 LP   *******   0.00 -31.56710 -13.44672  29.82840   34O : 23.95    7O : 17.14   91O : 14.66  661O : 14.39  652O : 13.93  223O : 13.06  526O : 12.73  298O : 12.37  364O : 11.96   94O : 11.41   52O : 11.15  214O : 11.02
  253O : 10.89  730O :  9.90  247O :  9.83  331O :  9.81   97O :  9.75  352O :  9.57  337O :  9.27   37O :  9.13  334O :  8.74  103O :  8.66  451O :  8.64  325O :  8.53
  415O :  8.49  154O :  8.06  541O :  8.03  292O :  7.94  256O :  7.70  142O :  7.68   70O :  7.54   19O :  7.47  535O :  7.06  751O :  7.00  577O :  6.82  700O :  6.65
  433O :  6.49  445O :  6.32  538O :  6.24  301O :  6.19  508O :  6.18  115O :  6.04  547O :  6.04   73O :  5.95  166O :  5.86  196O :  5.75  742O :  5.69  151O :  5.60
  655O :  5.59  460O :  5.58  481O :  5.58  229O :  5.56  607O :  5.49   46O :  5.47   88O :  5.26   28O :  5.06  157O :  5.04  268O :  5.03   67O :  4.98  127O :  4.94
  376O :  4.91   40O :  4.89  238O :  4.82  748O :  4.78  244O :  4.77   61O :  4.67  718O :  4.64  724O :  4.57  457O :  4.52  394O :  4.52  565O :  4.50  463O :  4.50
  175O :  4.48  670O :  4.45  202O :  4.44  418O :  4.39  595O :  4.38  322O :  4.34  430O :  4.33   49O :  4.31  397O :  4.25  217O :  4.18  424O :  4.18  343O :  4.10
  388O :  4.02  172O :  4.02  649O :  4.01  733O :  4.01  469O :  4.00  187O :  3.95  391O :  3.91  505O :  3.86  616O :  3.85  208O :  3.84  754O :  3.80  163O :  3.78
  265O :  3.76  205O :  3.75  493O :  3.73  184O :  3.70  634O :  3.66  274O :  3.66   76O :  3.62   43O :  3.60  709O :  3.52  235O :  3.38  499O :  3.37   25O :  3.29
  568O :  3.28  466O :  3.27  619O :  3.27  691O :  3.21  139O :  3.16  355O :  3.16  136O :  3.15  502O :  3.15  100O :  3.12    4O :  3.11  409O :  3.08  118O :  2.94
  286O :  2.88  340O :  2.88   31O :  2.83  712O :  2.82  703O :  2.76   16O :  2.70  169O :  2.69  574O :  2.68  529O :  2.66  592O :  2.61  250O :  2.55    9H :  2.54
  688O :  2.54  559O :  2.52  685O :  2.52  310O :  2.52  304O :  2.43  490O :  2.43  753H :  2.41  406O :  2.38  427O :  2.36  532O :  2.33  316O :  2.31  241O :  2.28
  631O :  2.28  124O :  2.26  283O :  2.25   36H :  2.23  349O :  2.22  583O :  2.18  520O :  2.18   85O :  2.15   58O :  2.12  454O :  2.10  358O :  2.09  478O :  2.09
   79O :  2.09  367O :  2.03  121O :  1.99  514O :  1.98  259O :  1.89  550O :  1.88   10O :  1.87  280O :  1.85  604O :  1.84  706O :  1.81   64O :  1.78  448O :  1.78
  361O :  1.77  697O :  1.77  580O :  1.77  589O :  1.76  442O :  1.74  199O :  1.74  496O :  1.73  181O :  1.73  643O :  1.71  517O :  1.71  628O :  1.67  370O :  1.64
  106O :  1.63    1O :  1.56  271O :  1.55  694O :  1.52  715O :  1.51   71H :  1.50   55O :  1.49  736O :  1.48   39H :  1.45  556O :  1.44  400O :  1.43  295O :  1.42
  379O :  1.41  145O :  1.40  373O :  1.40  220O :  1.37  178O :  1.35  226O :  1.33  472O :  1.30  646O :  1.29  487O :  1.28   62H :  1.27  148O :  1.26  133O :  1.25
  130O :  1.24  727O :  1.20   13O :  1.19  637O :  1.18  571O :  1.17  216H :  1.17  676O :  1.15  354H :  1.14  193O :  1.13  447H :  1.12  328O :  1.12  743H :  1.11
  609H :  1.10   95H :  1.10  672H :  1.08  436O :  1.07  562O :  1.02  745O :  1.02   20H :  1.02   47H :  1.02  116H :  0.99  289O :  0.97  313O :  0.96  721O :  0.96
   92H :  0.96  475O :  0.93  586O :  0.91  412O :  0.91  613O :  0.89  673O :  0.89  458H :  0.88  549H :  0.86  682O :  0.84  399H :  0.83  537H :  0.82  711H :  0.82
  667O :  0.81  232O :  0.80  240H :  0.78  277O :  0.75   98H :  0.75  159H :  0.75  601O :  0.74  319O :  0.74  390H :  0.72  610O :  0.71  109O :  0.70  204H :  0.69
  112O :  0.68  664O :  0.68  189H :  0.67  385O :  0.66  539H :  0.63  421O :  0.63  300H :  0.62  702H :  0.61  403O :  0.61  662H :  0.60   82O :  0.59  371H :  0.58
  625O :  0.57   89H :  0.56  160O :  0.55  483H :  0.54  311H :  0.53  299H :  0.52  678H :  0.52    5H :  0.52  113H :  0.51  452H :  0.51  140H :  0.51   86H :  0.51
  693H :  0.50  120H :  0.49  484O :  0.49  230H :  0.49  144H :  0.48  679O :  0.48  382O :  0.48  262O :  0.48  558H :  0.46   78H :  0.45  704H :  0.45  439O :  0.44
  453H :  0.44   41H :  0.44  569H :  0.44  195H :  0.44  658O :  0.43   80H :  0.43  656H :  0.42  640O :  0.42  544O :  0.41  122H :  0.41  307O :  0.41  222H :  0.41
  156H :  0.41  335H :  0.41  507H :  0.40  480H :  0.40  261H :  0.39  246H :  0.38  377H :  0.38  267H :  0.38  456H :  0.37  653H :  0.37  197H :  0.37  221H :  0.36
  749H :  0.36  734H :  0.35  117H :  0.35  190O :  0.35  174H :  0.35  346O :  0.34  654H :  0.34  515H :  0.34  219H :  0.34  401H :  0.34  164H :  0.33  153H :  0.33
  578H :  0.33  165H :  0.33  365H :  0.33  695H :  0.32  417H :  0.32  674H :  0.32  531H :  0.32  511O :  0.32  269H :  0.32  551H :  0.32   22O :  0.31  614H :  0.31
  560H :  0.30  303H :  0.30  176H :  0.30  152H :  0.30  461H :  0.30  372H :  0.30  287H :  0.29  501H :  0.29  435H :  0.28  171H :  0.28   75H :  0.28  180H :  0.28
  581H :  0.28  294H :  0.28  630H :  0.28   32H :  0.28  305H :  0.27  185H :  0.27   29H :  0.27  567H :  0.26  504H :  0.26   68H :  0.26  584H :  0.26  350H :  0.25
  368H :  0.25  254H :  0.25  473H :  0.24   30H :  0.24  683H :  0.24  168H :  0.24  141H :  0.24  357H :  0.24   12H :  0.24  726H :  0.24  188H :  0.23  570H :  0.23
  739O :  0.23  651H :  0.23  105H :  0.23  605H :  0.22  468H :  0.22  608H :  0.22  402H :  0.22  405H :  0.21  183H :  0.21  211O :  0.21  626H :  0.20  485H :  0.20
  104H :  0.20  470H :  0.20  338H :  0.19  203H :  0.19  722H :  0.19  101H :  0.19  523O :  0.19  747H :  0.19  632H :  0.19   72H :  0.19  437H :  0.19  111H :  0.18
  215H :  0.18  318H :  0.18  629H :  0.18  464H :  0.18   53H :  0.18  236H :  0.18  147H :  0.18  665H :  0.18  138H :  0.18  407H :  0.17  419H :  0.17   69H :  0.17
  681H :  0.17  705H :  0.17  572H :  0.16  621H :  0.16  689H :  0.16  699H :  0.16  553O :  0.16  366H :  0.16  290H :  0.16  291H :  0.16  510H :  0.15  663H :  0.15
  598O :  0.14  657H :  0.14  644H :  0.14  494H :  0.14  315H :  0.14  509H :  0.14  386H :  0.14  440H :  0.14  131H :  0.14  330H :  0.14  218H :  0.14   60H :  0.14
  392H :  0.13  500H :  0.13  158H :  0.13  411H :  0.13  257H :  0.13  696H :  0.13  474H :  0.13  603H :  0.13  668H :  0.13  234H :  0.13   23H :  0.13  408H :  0.13
  233H :  0.13  387H :  0.12  617H :  0.12  329H :  0.12   93H :  0.12  314H :  0.12  245H :  0.11  137H :  0.11  554H :  0.11  542H :  0.11  414H :  0.11  428H :  0.11
  548H :  0.11  345H :  0.11   48H :  0.10  429H :  0.10  714H :  0.10  123H :  0.10  543H :  0.10  713H :  0.10  302H :  0.10  462H :  0.10  735H :  0.10  627H :  0.10
  132H :  0.10  645H :  0.09  128H :  0.09  449H :  0.09  750H :  0.09   44H :  0.09   99H :  0.09  273H :  0.09  270H :  0.09  686H :  0.09  326H :  0.09   50H :  0.09
   38H :  0.09  225H :  0.09  503H :  0.08  536H :  0.08  296H :  0.08  576H :  0.08  692H :  0.08  348H :  0.08  740H :  0.08   18H :  0.08   27H :  0.08  309H :  0.08
  324H :  0.07  684H :  0.07  327H :  0.07  432H :  0.07   90H :  0.07  622O :  0.07  170H :  0.07  135H :  0.07  731H :  0.07
    7 LP   *******   0.00 -18.45445 -23.33565  17.01901   34O : 22.41    7O : 16.04   91O : 13.72  652O : 13.04  223O : 12.22  526O : 11.91  298O : 11.57  364O : 11.19  661O : 10.85   94O : 10.52   52O : 10.43  214O : 10.31
  253O : 10.19  337O : 10.01  730O :  9.26  247O :  9.20  331O :  9.17   97O :  9.12  352O :  8.96   37O :  8.52  334O :  8.18  103O :  8.10  451O :  8.08  325O :  7.98
  415O :  7.95  154O :  7.54  541O :  7.51  292O :  7.43  256O :  7.20  142O :  7.19   70O :  7.06   19O :  6.98  535O :  6.61  751O :  6.53  577O :  6.38  700O :  6.22
  433O :  6.08  445O :  5.92  538O :  5.84  301O :  5.78  508O :  5.78  115O :  5.65  547O :  5.65   73O :  5.56  166O :  5.47  196O :  5.38  742O :  5.32  151O :  5.24
  655O :  5.23  460O :  5.22  481O :  5.22  229O :  5.20  607O :  5.14   46O :  5.12   88O :  4.92   28O :  4.74  157O :  4.72  268O :  4.70   67O :  4.66  127O :  4.62
  376O :  4.59   40O :  4.59  238O :  4.51  748O :  4.47  244O :  4.46   61O :  4.36  718O :  4.34  724O :  4.28  457O :  4.23  394O :  4.23  565O :  4.21  463O :  4.21
  175O :  4.19  202O :  4.16  418O :  4.11  595O :  4.11  670O :  4.08  322O :  4.06  430O :  4.05   49O :  4.04  397O :  3.98  343O :  3.94  217O :  3.91  424O :  3.91
  388O :  3.76  172O :  3.76  649O :  3.75  733O :  3.75  469O :  3.75  187O :  3.69  754O :  3.67  391O :  3.65  505O :  3.61  616O :  3.60  208O :  3.59  163O :  3.54
  265O :  3.52  205O :  3.51  493O :  3.49  184O :  3.46  634O :  3.43  274O :  3.42   43O :  3.36   76O :  3.33  709O :  3.29  499O :  3.15  235O :  3.15   25O :  3.10
  466O :  3.07  619O :  3.06  568O :  3.05  691O :  3.00  136O :  2.96  355O :  2.95  502O :  2.95  100O :  2.92    4O :  2.91  409O :  2.88  139O :  2.86  118O :  2.75
  340O :  2.69  286O :  2.69   31O :  2.65  712O :  2.64  703O :  2.58  169O :  2.52   16O :  2.52  574O :  2.51  529O :  2.49  592O :  2.44  250O :  2.38    9H :  2.37
  688O :  2.37  685O :  2.36  559O :  2.36  310O :  2.35  490O :  2.27  304O :  2.27  753H :  2.26  406O :  2.23  427O :  2.20  532O :  2.18  316O :  2.16  631O :  2.13
  241O :  2.13  124O :  2.11  283O :  2.11   36H :  2.08  349O :  2.07  583O :  2.04  520O :  2.04   85O :  2.02   58O :  1.97  454O :  1.96  478O :  1.96  358O :  1.96
   79O :  1.95  367O :  1.90  121O :  1.85  514O :  1.85   10O :  1.79  259O :  1.77  550O :  1.75  280O :  1.73  604O :  1.73  706O :  1.70   64O :  1.67  448O :  1.66
  361O :  1.66  697O :  1.66  580O :  1.65  589O :  1.64  442O :  1.63  199O :  1.63  496O :  1.62  181O :  1.61  643O :  1.60  517O :  1.60  628O :  1.56  370O :  1.54
  106O :  1.53    1O :  1.46  271O :  1.45  694O :  1.43  715O :  1.41   71H :  1.41   55O :  1.39  736O :  1.38  556O :  1.35   39H :  1.34  400O :  1.33  295O :  1.33
  379O :  1.32  145O :  1.31  373O :  1.31  220O :  1.28  178O :  1.27  226O :  1.25  472O :  1.21  646O :  1.21  487O :  1.20   62H :  1.19  148O :  1.18  133O :  1.17
  130O :  1.16  727O :  1.12   13O :  1.10  637O :  1.10  571O :  1.10  216H :  1.09  676O :  1.07  354H :  1.07   95H :  1.06  193O :  1.06  447H :  1.05  328O :  1.04
  743H :  1.04  609H :  1.03  436O :  1.00  562O :  0.96  745O :  0.96   20H :  0.95   47H :  0.95  116H :  0.93  289O :  0.91  313O :  0.90  721O :  0.90   92H :  0.90
  475O :  0.87  586O :  0.85  412O :  0.85  672H :  0.84  613O :  0.84  673O :  0.84  458H :  0.83  549H :  0.80  682O :  0.78  399H :  0.77  537H :  0.77  711H :  0.76
  667O :  0.76  232O :  0.75  240H :  0.73  277O :  0.71   98H :  0.70  159H :  0.70  601O :  0.70  319O :  0.69  390H :  0.67  610O :  0.66  109O :  0.66  662H :  0.65
  204H :  0.65  112O :  0.64  664O :  0.64  189H :  0.63  385O :  0.62  539H :  0.59  421O :  0.59  300H :  0.58  403O :  0.57  702H :  0.57   82O :  0.56  371H :  0.55
  625O :  0.53   89H :  0.52  160O :  0.52  483H :  0.51  311H :  0.50  299H :  0.49  678H :  0.49    5H :  0.48  113H :  0.48  452H :  0.48   86H :  0.47  693H :  0.47
  484O :  0.46  120H :  0.46  140H :  0.46  230H :  0.46  144H :  0.45  679O :  0.45  382O :  0.45  262O :  0.45  558H :  0.43  704H :  0.42  439O :  0.42  453H :  0.42
   41H :  0.41  569H :  0.41  195H :  0.41  658O :  0.41   80H :  0.40  656H :  0.39  640O :  0.39   78H :  0.39  544O :  0.38  307O :  0.38  122H :  0.38  222H :  0.38
  156H :  0.38  335H :  0.38  507H :  0.38  480H :  0.37  261H :  0.36  246H :  0.36  377H :  0.36  267H :  0.36  456H :  0.35  653H :  0.35  197H :  0.34  221H :  0.34
  749H :  0.34  734H :  0.33  117H :  0.33  190O :  0.32  174H :  0.32  346O :  0.32  654H :  0.32  515H :  0.32  219H :  0.32  401H :  0.31  164H :  0.31  153H :  0.31
  578H :  0.31  365H :  0.30  165H :  0.30  417H :  0.30  674H :  0.30  531H :  0.30  695H :  0.30  511O :  0.30  269H :  0.30  551H :  0.30   22O :  0.29  614H :  0.29
  560H :  0.28  303H :  0.28  176H :  0.28  152H :  0.28  461H :  0.28  372H :  0.28  287H :  0.28  501H :  0.27  435H :  0.26  171H :  0.26   75H :  0.26  581H :  0.26
  180H :  0.26  294H :  0.26  630H :  0.26   32H :  0.26  305H :  0.25  185H :  0.25   29H :  0.25  567H :  0.25  504H :  0.24   68H :  0.24  584H :  0.24  350H :  0.23
  368H :  0.23  254H :  0.23  473H :  0.23   30H :  0.23  683H :  0.23  168H :  0.22  357H :  0.22  726H :  0.22  188H :  0.22  570H :  0.22  739O :  0.22  651H :  0.21
  105H :  0.21  605H :  0.21  468H :  0.21  608H :  0.21   12H :  0.21  402H :  0.20  183H :  0.19  405H :  0.19  211O :  0.19  626H :  0.19  485H :  0.19  141H :  0.19
  104H :  0.18  470H :  0.18  203H :  0.18  722H :  0.18  101H :  0.18  632H :  0.18  523O :  0.18  747H :  0.18   72H :  0.17  437H :  0.17  663H :  0.17  215H :  0.17
  111H :  0.17  318H :  0.17  629H :  0.17  236H :  0.17  464H :  0.17   53H :  0.17  147H :  0.17  665H :  0.17  138H :  0.17  407H :  0.16  419H :  0.16   69H :  0.16
  681H :  0.16  705H :  0.16  572H :  0.15  621H :  0.15  689H :  0.15  699H :  0.15  553O :  0.15  366H :  0.15  291H :  0.15  290H :  0.15  510H :  0.14  598O :  0.13
  657H :  0.13  494H :  0.13  644H :  0.13  315H :  0.13  509H :  0.13  386H :  0.13  440H :  0.13  131H :  0.13  330H :  0.13  218H :  0.13   60H :  0.13  392H :  0.13
  500H :  0.13  158H :  0.13  411H :  0.13  257H :  0.12  696H :  0.12  474H :  0.12  603H :  0.12  668H :  0.12  234H :  0.12   23H :  0.12  408H :  0.12  233H :  0.12
  387H :  0.12  617H :  0.11  329H :  0.11   93H :  0.11  314H :  0.11  245H :  0.11  338H :  0.11  137H :  0.11  554H :  0.10  542H :  0.10  414H :  0.10  428H :  0.10
  548H :  0.10   48H :  0.10  345H :  0.10  429H :  0.10  714H :  0.10   27H :  0.10  123H :  0.09  543H :  0.09  302H :  0.09  713H :  0.09  273H :  0.09  462H :  0.09
  735H :  0.09  627H :  0.09  132H :  0.09  645H :  0.09  128H :  0.09  449H :  0.09  750H :  0.09   99H :  0.08   44H :  0.08   50H :  0.08  270H :  0.08  686H :  0.08
  326H :  0.08   38H :  0.08  225H :  0.08  503H :  0.08  536H :  0.08  296H :  0.08  576H :  0.08  692H :  0.07  348H :  0.07  740H :  0.07   18H :  0.07  309H :  0.07
    8 LP   *******   0.00   0.20012 -55.70717  -9.91095   34O : 22.29    7O : 15.94  526O : 14.33   91O : 13.78  652O : 12.96  223O : 12.15  298O : 11.51  364O : 11.13  661O : 10.77   94O : 10.62   52O : 10.37  214O : 10.25
  253O : 10.13  730O :  9.21  247O :  9.15  331O :  9.12   97O :  9.07  352O :  8.91  337O :  8.63   37O :  8.49  334O :  8.13  103O :  8.06  451O :  8.04  325O :  7.93
  415O :  7.90  154O :  7.49  541O :  7.47  292O :  7.39  256O :  7.16  142O :  7.15   70O :  7.02   19O :  6.96  535O :  6.57  751O :  6.51  577O :  6.35  700O :  6.06
  433O :  6.04  445O :  5.89  538O :  5.81  301O :  5.76  508O :  5.75  115O :  5.62  547O :  5.62   73O :  5.53  166O :  5.44  196O :  5.35  742O :  5.29  151O :  5.21
  655O :  5.20  460O :  5.19  481O :  5.19  229O :  5.17  607O :  5.11   46O :  5.09   88O :  4.90   28O :  4.71  157O :  4.69  268O :  4.68   67O :  4.63  127O :  4.60
   40O :  4.57  376O :  4.56  238O :  4.49  748O :  4.45  244O :  4.44   61O :  4.35  718O :  4.31  724O :  4.25  457O :  4.20  394O :  4.20  565O :  4.19  463O :  4.19
  175O :  4.16  202O :  4.13  418O :  4.08  595O :  4.08  670O :  4.06  322O :  4.04  430O :  4.03   49O :  4.01  397O :  3.95  343O :  3.93  217O :  3.89  424O :  3.89
  388O :  3.74  172O :  3.74  649O :  3.73  733O :  3.73  469O :  3.73  187O :  3.67  391O :  3.63  505O :  3.59  616O :  3.57  208O :  3.57  754O :  3.54  163O :  3.52
  265O :  3.50  205O :  3.49  493O :  3.47  184O :  3.41  634O :  3.41  274O :  3.40   43O :  3.35   76O :  3.32  709O :  3.27  499O :  3.13  235O :  3.13   25O :  3.06
  466O :  3.05  568O :  3.04  619O :  3.04  691O :  2.98  136O :  2.94  355O :  2.94  502O :  2.93  139O :  2.91  100O :  2.90    4O :  2.89  409O :  2.87  118O :  2.74
  286O :  2.68  340O :  2.68   31O :  2.64  712O :  2.62  703O :  2.57  169O :  2.51   16O :  2.50  574O :  2.50  529O :  2.48  592O :  2.39  250O :  2.37    9H :  2.36
  688O :  2.36  685O :  2.35  559O :  2.35  310O :  2.34  304O :  2.26  490O :  2.26  753H :  2.24  406O :  2.21  427O :  2.19  532O :  2.17  316O :  2.15  631O :  2.12
  241O :  2.12  124O :  2.10  283O :  2.10   36H :  2.07  349O :  2.06  520O :  2.03  583O :  2.02   85O :  2.01   58O :  1.97  454O :  1.95   79O :  1.95  358O :  1.95
  478O :  1.94  367O :  1.89  121O :  1.85  514O :  1.84   10O :  1.83  259O :  1.76  550O :  1.74  280O :  1.73  604O :  1.72  706O :  1.69   64O :  1.66  448O :  1.65
  361O :  1.65  697O :  1.65  580O :  1.64  589O :  1.64  442O :  1.62  199O :  1.62  496O :  1.61  181O :  1.61  643O :  1.59  517O :  1.59  628O :  1.55  370O :  1.53
  106O :  1.52    1O :  1.45  271O :  1.44  694O :  1.42  715O :  1.41   71H :  1.40   55O :  1.38  736O :  1.38   39H :  1.35  556O :  1.34  400O :  1.33  295O :  1.32
  379O :  1.31  145O :  1.30  373O :  1.30  220O :  1.27  178O :  1.26  226O :  1.24  472O :  1.21  646O :  1.20  487O :  1.19   62H :  1.18  148O :  1.18  133O :  1.16
  130O :  1.15  727O :  1.11   13O :  1.10  637O :  1.10  571O :  1.09  216H :  1.08  676O :  1.07  354H :  1.06  193O :  1.05  447H :  1.04  328O :  1.04  743H :  1.03
  609H :  1.03   95H :  1.02  436O :  0.99  562O :  0.95  745O :  0.95   20H :  0.95   47H :  0.95  116H :  0.92  289O :  0.90   92H :  0.90  313O :  0.90  721O :  0.89
  475O :  0.87  586O :  0.85  412O :  0.85  672H :  0.84  613O :  0.83  673O :  0.83  458H :  0.82  549H :  0.80  682O :  0.78  399H :  0.77  537H :  0.77  711H :  0.76
  667O :  0.76  232O :  0.75  240H :  0.72  277O :  0.70   98H :  0.70  159H :  0.70  601O :  0.69  319O :  0.69  390H :  0.67  610O :  0.66  109O :  0.65  204H :  0.64
  112O :  0.64  664O :  0.63  662H :  0.63  189H :  0.62  385O :  0.61  539H :  0.59  421O :  0.59  300H :  0.57  403O :  0.57   82O :  0.55  702H :  0.55  371H :  0.54
  625O :  0.53   89H :  0.52  160O :  0.51  483H :  0.51  311H :  0.49  299H :  0.49  678H :  0.49    5H :  0.48  113H :  0.48  452H :  0.48   86H :  0.47  140H :  0.47
  693H :  0.46  120H :  0.46  484O :  0.46  230H :  0.46  144H :  0.45  679O :  0.45  382O :  0.44  262O :  0.44  558H :  0.43  704H :  0.42  439O :  0.41  453H :  0.41
   41H :  0.41  569H :  0.41  195H :  0.41  658O :  0.40   80H :  0.40  656H :  0.39  640O :  0.39   78H :  0.39  307O :  0.38  122H :  0.38  222H :  0.38  156H :  0.38
  335H :  0.38  507H :  0.37  480H :  0.37  544O :  0.37  261H :  0.36  246H :  0.36  377H :  0.36  267H :  0.36  456H :  0.34  653H :  0.34  197H :  0.34  221H :  0.34
  749H :  0.34  734H :  0.33  117H :  0.32  174H :  0.32  190O :  0.32  346O :  0.32  654H :  0.32  515H :  0.32  219H :  0.31  401H :  0.31  164H :  0.31  153H :  0.31
  578H :  0.30  165H :  0.30  365H :  0.30  417H :  0.30  674H :  0.30  531H :  0.30  695H :  0.30  511O :  0.30  269H :  0.30  551H :  0.29   22O :  0.29  614H :  0.29
  560H :  0.28  303H :  0.28  176H :  0.28  152H :  0.28  461H :  0.28  372H :  0.28  287H :  0.27  501H :  0.27  435H :  0.26  171H :  0.26   75H :  0.26  581H :  0.26
  180H :  0.26  294H :  0.26  630H :  0.26   32H :  0.26  185H :  0.25  305H :  0.25   29H :  0.25  567H :  0.24  504H :  0.24   68H :  0.24  584H :  0.24  350H :  0.23
  368H :  0.23  254H :  0.23  473H :  0.23   30H :  0.23  683H :  0.23  168H :  0.22  357H :  0.22  726H :  0.22  188H :  0.22  570H :  0.22  739O :  0.21  651H :  0.21
  105H :  0.21   12H :  0.21  605H :  0.21  468H :  0.21  608H :  0.21  402H :  0.20  183H :  0.19  405H :  0.19  211O :  0.19  626H :  0.19  141H :  0.19  485H :  0.19
  104H :  0.18  470H :  0.18  338H :  0.18  203H :  0.18  722H :  0.18  663H :  0.17  101H :  0.17  632H :  0.17  747H :  0.17  523O :  0.17   72H :  0.17  437H :  0.17
  215H :  0.17  111H :  0.17  318H :  0.17  629H :  0.17  464H :  0.17  236H :  0.17   53H :  0.17  665H :  0.17  147H :  0.17  138H :  0.16  407H :  0.16  419H :  0.16
  681H :  0.16   69H :  0.16  705H :  0.16  572H :  0.15  621H :  0.15  689H :  0.15  699H :  0.15  553O :  0.15  366H :  0.15  290H :  0.15  291H :  0.15  510H :  0.14
  598O :  0.13  657H :  0.13  494H :  0.13  644H :  0.13  315H :  0.13  509H :  0.13  386H :  0.13  440H :  0.13  131H :  0.13  330H :  0.13  218H :  0.13   60H :  0.13
  392H :  0.13  500H :  0.13  158H :  0.12  411H :  0.12  257H :  0.12  696H :  0.12   93H :  0.12  474H :  0.12  603H :  0.12  668H :  0.12  234H :  0.12   23H :  0.12
  408H :  0.12  233H :  0.12  387H :  0.12  617H :  0.11  329H :  0.11  314H :  0.11  245H :  0.11  137H :  0.11  554H :  0.10  542H :  0.10  414H :  0.10  428H :  0.10
  548H :  0.10   48H :  0.10  345H :  0.10  429H :  0.10  714H :  0.09  123H :  0.09  543H :  0.09  713H :  0.09  302H :  0.09  462H :  0.09  735H :  0.09  627H :  0.09
  132H :  0.09  645H :  0.09  128H :  0.09  449H :  0.09  750H :  0.09   44H :  0.08   99H :  0.08  273H :  0.08  270H :  0.08  686H :  0.08   50H :  0.08  326H :  0.08
  225H :  0.08   38H :  0.08  503H :  0.08  536H :  0.08  296H :  0.08  576H :  0.07  692H :  0.07  348H :  0.07  740H :  0.07   18H :  0.07   27H :  0.07  309H :  0.07
    9 LP   *******   0.00  -0.02145 -13.20130  62.80729   34O : 22.30    7O : 15.96   91O : 13.65  652O : 12.97   52O : 12.96  223O : 12.16  526O : 11.85  298O : 11.51  364O : 11.13  661O : 10.78   94O : 10.62  214O : 10.26
  253O : 10.14  730O :  9.21  247O :  9.15  331O :  9.13   97O :  9.07  352O :  8.81  337O :  8.63   37O :  8.50  334O :  8.14  103O :  8.06  451O :  8.04  325O :  7.94
  415O :  7.91  154O :  7.50  541O :  7.47  292O :  7.39  256O :  7.17  142O :  7.15   70O :  7.02   19O :  6.95  535O :  6.58  751O :  6.52  577O :  6.35  700O :  6.19
  433O :  6.05  445O :  5.87  538O :  5.81  301O :  5.76  508O :  5.75  115O :  5.63  547O :  5.62  166O :  5.44  196O :  5.35  742O :  5.30  151O :  5.22  655O :  5.20
  460O :  5.19  481O :  5.19  229O :  5.17   73O :  5.16  607O :  5.11   46O :  5.09   88O :  4.90   28O :  4.71  157O :  4.69  268O :  4.68   67O :  4.63  127O :  4.60
   40O :  4.57  376O :  4.57  238O :  4.49  748O :  4.45  244O :  4.44   61O :  4.35  718O :  4.32  724O :  4.25  457O :  4.20  394O :  4.20  565O :  4.19  463O :  4.19
  175O :  4.17  202O :  4.13  418O :  4.09  595O :  4.08  670O :  4.07  322O :  4.04  430O :  4.03   49O :  4.01  397O :  3.95  343O :  3.93  217O :  3.89  424O :  3.89
  388O :  3.75  172O :  3.74  649O :  3.74  733O :  3.73  469O :  3.73  187O :  3.67  391O :  3.64  505O :  3.59  616O :  3.58  208O :  3.57  754O :  3.54  163O :  3.52
  265O :  3.50  205O :  3.49  493O :  3.48  184O :  3.44  634O :  3.41  274O :  3.40   43O :  3.35   76O :  3.32  709O :  3.22  499O :  3.14  235O :  3.13   25O :  3.06
  466O :  3.05  568O :  3.05  619O :  3.04  691O :  2.98  136O :  2.94  355O :  2.94  502O :  2.93  139O :  2.91  100O :  2.90    4O :  2.89  409O :  2.87  118O :  2.74
  286O :  2.68  340O :  2.68   31O :  2.64  712O :  2.63  703O :  2.57   16O :  2.51  169O :  2.51  574O :  2.50  529O :  2.48  592O :  2.43  250O :  2.37    9H :  2.36
  688O :  2.36  685O :  2.35  559O :  2.35  310O :  2.34  304O :  2.26  490O :  2.26  753H :  2.25  406O :  2.21  427O :  2.19  532O :  2.17  316O :  2.15  631O :  2.12
  241O :  2.12  124O :  2.10  283O :  2.10   36H :  2.07  349O :  2.06  583O :  2.03  520O :  2.03   85O :  2.00   58O :  1.96  454O :  1.96   79O :  1.95  358O :  1.95
  478O :  1.95  367O :  1.89  121O :  1.85  514O :  1.84   10O :  1.83  259O :  1.76  550O :  1.75  280O :  1.73  604O :  1.72  706O :  1.69   64O :  1.66  448O :  1.65
  361O :  1.65  697O :  1.65  580O :  1.64  589O :  1.64  442O :  1.62  199O :  1.62  181O :  1.61  496O :  1.61  643O :  1.59  517O :  1.59  628O :  1.55  370O :  1.53
  106O :  1.52    1O :  1.45  271O :  1.44  694O :  1.42  715O :  1.41   71H :  1.40   55O :  1.38  736O :  1.38   39H :  1.35  556O :  1.34  400O :  1.33  295O :  1.32
  379O :  1.31  145O :  1.30  373O :  1.30  220O :  1.27  178O :  1.26  226O :  1.24  472O :  1.21  646O :  1.20  487O :  1.19   62H :  1.18  148O :  1.18  133O :  1.16
  130O :  1.16  727O :  1.12   13O :  1.10  637O :  1.10  571O :  1.09  216H :  1.08  676O :  1.07  354H :  1.05  193O :  1.05  328O :  1.04  447H :  1.04  743H :  1.03
  609H :  1.03   95H :  1.02  436O :  0.98  562O :  0.95  745O :  0.95   20H :  0.95   47H :  0.95  116H :  0.92  289O :  0.90  313O :  0.90  721O :  0.89   92H :  0.89
  475O :  0.87  586O :  0.85  412O :  0.85  672H :  0.84  613O :  0.83  673O :  0.83  458H :  0.82  549H :  0.80  682O :  0.78  399H :  0.77  537H :  0.77  711H :  0.77
  667O :  0.76  232O :  0.75  240H :  0.72  277O :  0.70   98H :  0.70  159H :  0.70  601O :  0.69  319O :  0.69  390H :  0.67  610O :  0.66  109O :  0.65  204H :  0.64
  112O :  0.64  664O :  0.63  662H :  0.63  189H :  0.62  385O :  0.61  539H :  0.59  421O :  0.59  300H :  0.57  403O :  0.57  702H :  0.57   82O :  0.55  371H :  0.54
  625O :  0.53   89H :  0.52  160O :  0.51  483H :  0.51  311H :  0.49  299H :  0.49  678H :  0.49  113H :  0.48    5H :  0.48  452H :  0.48   86H :  0.47  140H :  0.47
  693H :  0.46  120H :  0.46  484O :  0.46  230H :  0.46  144H :  0.45  679O :  0.45  382O :  0.45  262O :  0.44  558H :  0.43  704H :  0.42  439O :  0.41  453H :  0.41
   41H :  0.41  569H :  0.41  195H :  0.41  658O :  0.40   80H :  0.40  656H :  0.39  640O :  0.39   78H :  0.39  544O :  0.38  307O :  0.38  122H :  0.38  222H :  0.38
  156H :  0.38  335H :  0.38  507H :  0.37  480H :  0.37  261H :  0.36  246H :  0.36  377H :  0.36  267H :  0.36  456H :  0.35  653H :  0.34  197H :  0.34  221H :  0.34
  749H :  0.34  734H :  0.33  117H :  0.32  190O :  0.32  174H :  0.32  346O :  0.32  654H :  0.32  515H :  0.32  219H :  0.31  401H :  0.31  164H :  0.31  153H :  0.31
  578H :  0.31  165H :  0.30  365H :  0.30  417H :  0.30  674H :  0.30  531H :  0.30  695H :  0.30  511O :  0.30  269H :  0.30  551H :  0.29   22O :  0.29  614H :  0.29
  560H :  0.28  303H :  0.28  176H :  0.28  152H :  0.28  461H :  0.28  372H :  0.28  287H :  0.27  501H :  0.27  435H :  0.26  171H :  0.26  581H :  0.26  180H :  0.26
  294H :  0.26  630H :  0.26   32H :  0.26  305H :  0.25  185H :  0.25   29H :  0.25  567H :  0.24  504H :  0.24   68H :  0.24  584H :  0.24  350H :  0.23  368H :  0.23
  254H :  0.23  473H :  0.23   30H :  0.23  683H :  0.23  168H :  0.22  357H :  0.22  726H :  0.22  188H :  0.22  570H :  0.22  739O :  0.21  651H :  0.21  105H :  0.21
   12H :  0.21  605H :  0.21  468H :  0.21  608H :  0.21  402H :  0.20  405H :  0.19  183H :  0.19  211O :  0.19  626H :  0.19  141H :  0.19  485H :  0.19  104H :  0.18
  470H :  0.18  338H :  0.18  203H :  0.18  722H :  0.18  663H :  0.17  101H :  0.17  632H :  0.17  747H :  0.17  523O :  0.17   72H :  0.17  437H :  0.17  215H :  0.17
  111H :  0.17  318H :  0.17  629H :  0.17  464H :  0.17  236H :  0.17  665H :  0.17  147H :  0.17  138H :  0.16  407H :  0.16  419H :  0.16   69H :  0.16  681H :  0.16
  705H :  0.16  572H :  0.15  621H :  0.15  689H :  0.15  699H :  0.15  553O :  0.15  366H :  0.15  290H :  0.15  291H :  0.15  510H :  0.14  598O :  0.13  657H :  0.13
  494H :  0.13  644H :  0.13  315H :  0.13  509H :  0.13  386H :  0.13  440H :  0.13  131H :  0.13  330H :  0.13  218H :  0.13  392H :  0.13  500H :  0.13  158H :  0.12
[...]
   369   1 h    0.878 --   367 o    0.817
   370   8 o    1.836 --   372 h    0.879   371 h    0.865
   371   1 h    0.896 --   370 o    0.865
   372   1 h    0.899 --   370 o    0.879
   373   8 o    1.862 --   375 h    0.860   374 h    0.854
   374   1 h    0.888 --   373 o    0.854
   375   1 h    0.893 --   373 o    0.860
   376   8 o    1.880 --   377 h    0.810   378 h    0.806
   377   1 h    0.889 --   376 o    0.810
   378   1 h    0.880 --   376 o    0.806
   379   8 o    1.868 --   381 h    0.820   380 h    0.812
   380   1 h    0.873 --   379 o    0.812
   381   1 h    0.892 --   379 o    0.820
   382   8 o    1.829 --   383 h    0.877   384 h    0.838
   383   1 h    0.900 --   382 o    0.877
   384   1 h    0.885 --   382 o    0.838
   385   8 o    1.858 --   386 h    0.914   387 h    0.795
   386   1 h    0.918 --   385 o    0.914
   387   1 h    0.878 --   385 o    0.795
   388   8 o    1.863 --   390 h    0.833   389 h    0.807
   389   1 h    0.867 --   388 o    0.807
   390   1 h    0.887 --   388 o    0.833
   391   8 o    1.851 --   392 h    0.908   393 h    0.818
   392   1 h    0.917 --   391 o    0.908
   393   1 h    0.879 --   391 o    0.818
   394   8 o    1.857 --   395 h    0.888   396 h    0.832
   395   1 h    0.901 --   394 o    0.888
   396   1 h    0.887 --   394 o    0.832
   397   8 o    1.841 --   399 h    0.869   398 h    0.819
   398   1 h    0.875 --   397 o    0.819
   399   1 h    0.901 --   397 o    0.869
   400   8 o    1.846 --   401 h    0.834   402 h    0.810
   401   1 h    0.893 --   400 o    0.834
   402   1 h    0.887 --   400 o    0.810
   403   8 o    1.857 --   404 h    0.830   405 h    0.793
   404   1 h    0.895 --   403 o    0.830
   405   1 h    0.871 --   403 o    0.793
   406   8 o    1.855 --   407 h    0.873   408 h    0.845
   407   1 h    0.898 --   406 o    0.873
   408   1 h    0.888 --   406 o    0.845
   409   8 o    1.852 --   410 h    0.820   411 h    0.799
   410   1 h    0.893 --   409 o    0.820
   411   1 h    0.876 --   409 o    0.799
   412   8 o    1.818 --   413 h    0.820   414 h    0.767
   413   1 h    0.877 --   412 o    0.820
   414   1 h    0.866 --   412 o    0.767
   415   8 o    1.860 --   417 h    0.913   416 h    0.788
   416   1 h    0.878 --   415 o    0.788
   417   1 h    0.920 --   415 o    0.913
   418   8 o    1.881 --   420 h    0.891   419 h    0.840
   419   1 h    0.881 --   418 o    0.840
   420   1 h    0.900 --   418 o    0.891
   421   8 o    1.870 --   423 h    0.829   422 h    0.822
   422   1 h    0.885 --   421 o    0.822
   423   1 h    0.884 --   421 o    0.829
   424   8 o    1.849 --   426 h    0.884   425 h    0.836
   425   1 h    0.892 --   424 o    0.836
   426   1 h    0.903 --   424 o    0.884
   427   8 o    1.839 --   429 h    0.840   428 h    0.807
   428   1 h    0.877 --   427 o    0.807
   429   1 h    0.897 --   427 o    0.840
   430   8 o    1.857 --   431 h    0.848   432 h    0.808
   431   1 h    0.889 --   430 o    0.848
   432   1 h    0.885 --   430 o    0.808
   433   8 o    1.857 --   435 h    0.885   434 h    0.782
   434   1 h    0.868 --   433 o    0.782
   435   1 h    0.903 --   433 o    0.885
   436   8 o    1.827 --   437 h    0.885   438 h    0.778
   437   1 h    0.905 --   436 o    0.885
   438   1 h    0.867 --   436 o    0.778
   439   8 o    1.842 --   441 h    0.867   440 h    0.835
   440   1 h    0.892 --   439 o    0.835
   441   1 h    0.896 --   439 o    0.867
   442   8 o    1.891 --   444 h    0.816   443 h    0.803
   443   1 h    0.871 --   442 o    0.803
   444   1 h    0.874 --   442 o    0.816
   445   8 o    1.842 --   447 h    0.848   446 h    0.815
   446   1 h    0.890 --   445 o    0.815
   447   1 h    0.896 --   445 o    0.848
   448   8 o    1.824 --   450 h    0.850   449 h    0.828
   449   1 h    0.875 --   448 o    0.828
   450   1 h    0.895 --   448 o    0.850
   451   8 o    1.852 --   452 h    0.845   453 h    0.837
   452   1 h    0.894 --   451 o    0.845
   453   1 h    0.882 --   451 o    0.837
   454   8 o    1.873 --   455 h    0.843   456 h    0.813
   455   1 h    0.884 --   454 o    0.843
   456   1 h    0.875 --   454 o    0.813
   457   8 o    1.843 --   459 h    0.838   458 h    0.822
   458   1 h    0.884 --   457 o    0.822
   459   1 h    0.899 --   457 o    0.838
   460   8 o    1.809 --   461 h    0.843   462 h    0.823
   461   1 h    0.888 --   460 o    0.843
   462   1 h    0.888 --   460 o    0.823
   463   8 o    1.823 --   464 h    0.888   465 h    0.834
   464   1 h    0.903 --   463 o    0.888
   465   1 h    0.889 --   463 o    0.834
   466   8 o    1.853 --   467 h    0.833   468 h    0.827
   467   1 h    0.890 --   466 o    0.833
   468   1 h    0.886 --   466 o    0.827
   469   8 o    1.870 --   470 h    0.869   471 h    0.816
   470   1 h    0.902 --   469 o    0.869
   471   1 h    0.880 --   469 o    0.816
   472   8 o    1.863 --   474 h    0.854   473 h    0.816
   473   1 h    0.885 --   472 o    0.816
   474   1 h    0.890 --   472 o    0.854
   475   8 o    1.863 --   477 h    0.831   476 h    0.830
   476   1 h    0.885 --   475 o    0.830
   477   1 h    0.877 --   475 o    0.831
   478   8 o    1.825 --   480 h    0.865   479 h    0.838
   479   1 h    0.891 --   478 o    0.838
   480   1 h    0.902 --   478 o    0.865
   481   8 o    1.835 --   483 h    0.896   482 h    0.836
   482   1 h    0.887 --   481 o    0.836
   483   1 h    0.908 --   481 o    0.896
   484   8 o    1.816 --   486 h    0.887   485 h    0.841
   485   1 h    0.888 --   484 o    0.841
   486   1 h    0.907 --   484 o    0.887
   487   8 o    1.854 --   488 h    0.847   489 h    0.799
   488   1 h    0.896 --   487 o    0.847
   489   1 h    0.867 --   487 o    0.799
   490   8 o    1.829 --   491 h    0.871   492 h    0.806
   491   1 h    0.898 --   490 o    0.871
   492   1 h    0.888 --   490 o    0.806
   493   8 o    1.849 --   494 h    0.829   495 h    0.813
   494   1 h    0.890 --   493 o    0.829
   495   1 h    0.879 --   493 o    0.813
   496   8 o    1.852 --   498 h    0.916   497 h    0.829
   497   1 h    0.882 --   496 o    0.829
   498   1 h    0.921 --   496 o    0.916
   499   8 o    1.847 --   501 h    0.871   500 h    0.836
   500   1 h    0.885 --   499 o    0.836
   501   1 h    0.896 --   499 o    0.871
   502   8 o    1.867 --   504 h    0.842   503 h    0.802
   503   1 h    0.886 --   502 o    0.802
   504   1 h    0.891 --   502 o    0.842
   505   8 o    1.814 --   506 h    0.847   507 h    0.835
   506   1 h    0.898 --   505 o    0.847
   507   1 h    0.895 --   505 o    0.835
   508   8 o    1.865 --   509 h    0.820   510 h    0.795
   509   1 h    0.875 --   508 o    0.820
   510   1 h    0.871 --   508 o    0.795
   511   8 o    1.833 --   513 h    0.858   512 h    0.835
   512   1 h    0.889 --   511 o    0.835
   513   1 h    0.890 --   511 o    0.858
   514   8 o    1.817 --   515 h    0.854   516 h    0.837
   515   1 h    0.897 --   514 o    0.854
   516   1 h    0.892 --   514 o    0.837
   517   8 o    1.837 --   518 h    0.898   519 h    0.863
   518   1 h    0.907 --   517 o    0.898
   519   1 h    0.893 --   517 o    0.863
   520   8 o    1.855 --   522 h    0.867   521 h    0.830
   521   1 h    0.883 --   520 o    0.830
   522   1 h    0.894 --   520 o    0.867
   523   8 o    1.833 --   525 h    0.898   524 h    0.824
   524   1 h    0.878 --   523 o    0.824
   525   1 h    0.912 --   523 o    0.898
   526   8 o    1.865 --   528 h    0.871   527 h    0.835
   527   1 h    0.880 --   526 o    0.835
   528   1 h    0.898 --   526 o    0.871
   529   8 o    1.820 --   531 h    0.893   530 h    0.824
   530   1 h    0.879 --   529 o    0.824
   531   1 h    0.909 --   529 o    0.893
   532   8 o    1.841 --   534 h    0.831   533 h    0.818
   533   1 h    0.878 --   532 o    0.818
   534   1 h    0.884 --   532 o    0.831
   535   8 o    1.860 --   536 h    0.843   537 h    0.808
   536   1 h    0.888 --   535 o    0.843
   537   1 h    0.883 --   535 o    0.808
   538   8 o    1.867 --   539 h    0.835   540 h    0.831
   539   1 h    0.887 --   538 o    0.835
   540   1 h    0.885 --   538 o    0.831
   541   8 o    1.832 --   542 h    0.869   543 h    0.832
   542   1 h    0.897 --   541 o    0.869
   543   1 h    0.892 --   541 o    0.832
   544   8 o    1.859 --   546 h    0.891   545 h    0.868
   545   1 h    0.891 --   544 o    0.868
   546   1 h    0.901 --   544 o    0.891
   547   8 o    1.853 --   549 h    0.867   548 h    0.838
   548   1 h    0.887 --   547 o    0.838
   549   1 h    0.901 --   547 o    0.867
   550   8 o    1.827 --   552 h    0.911   551 h    0.814
   551   1 h    0.879 --   550 o    0.814
   552   1 h    0.917 --   550 o    0.911
   553   8 o    1.833 --   555 h    0.854   554 h    0.822
   554   1 h    0.890 --   553 o    0.822
   555   1 h    0.889 --   553 o    0.854
   556   8 o    1.876 --   557 h    0.813   558 h    0.782
   557   1 h    0.883 --   556 o    0.813
   558   1 h    0.871 --   556 o    0.782
   559   8 o    1.829 --   561 h    0.849   560 h    0.816
   560   1 h    0.888 --   559 o    0.816
   561   1 h    0.898 --   559 o    0.849
   562   8 o    1.884 --   563 h    0.833   564 h    0.787
   563   1 h    0.883 --   562 o    0.833
   564   1 h    0.870 --   562 o    0.787
   565   8 o    1.859 --   567 h    0.814   566 h    0.808
   566   1 h    0.884 --   565 o    0.808
   567   1 h    0.868 --   565 o    0.814
   568   8 o    1.841 --   569 h    0.892   570 h    0.817
   569   1 h    0.910 --   568 o    0.892
   570   1 h    0.882 --   568 o    0.817
   571   8 o    1.871 --   573 h    0.838   572 h    0.802
   572   1 h    0.885 --   571 o    0.802
   573   1 h    0.885 --   571 o    0.838
   574   8 o    1.854 --   575 h    0.849   576 h    0.830
   575   1 h    0.891 --   574 o    0.849
   576   1 h    0.888 --   574 o    0.830
   577   8 o    1.849 --   578 h    0.895   579 h    0.847
   578   1 h    0.903 --   577 o    0.895
   579   1 h    0.888 --   577 o    0.847
   580   8 o    1.850 --   582 h    0.880   581 h    0.847
   581   1 h    0.891 --   580 o    0.847
   582   1 h    0.898 --   580 o    0.880
   583   8 o    1.850 --   584 h    0.834   585 h    0.812
   584   1 h    0.893 --   583 o    0.834
   585   1 h    0.879 --   583 o    0.812
   586   8 o    1.861 --   588 h    0.876   587 h    0.853
   587   1 h    0.890 --   586 o    0.853
   588   1 h    0.896 --   586 o    0.876
   589   8 o    1.856 --   590 h    0.858   591 h    0.815
   590   1 h    0.890 --   589 o    0.858
   591   1 h    0.882 --   589 o    0.815
   592   8 o    1.836 --   593 h    0.864   594 h    0.854
   593   1 h    0.897 --   592 o    0.864
   594   1 h    0.894 --   592 o    0.854
   595   8 o    1.840 --   597 h    0.888   596 h    0.835
   596   1 h    0.887 --   595 o    0.835
   597   1 h    0.904 --   595 o    0.888
   598   8 o    1.855 --   599 h    0.860   600 h    0.851
   599   1 h    0.894 --   598 o    0.860
   600   1 h    0.888 --   598 o    0.851
   601   8 o    1.830 --   602 h    0.849   603 h    0.798
   602   1 h    0.898 --   601 o    0.849
   603   1 h    0.883 --   601 o    0.798
   604   8 o    1.846 --   605 h    0.819   606 h    0.791
   605   1 h    0.887 --   604 o    0.819
   606   1 h    0.885 --   604 o    0.791
   607   8 o    1.868 --   609 h    0.827   608 h    0.810
   608   1 h    0.876 --   607 o    0.810
   609   1 h    0.887 --   607 o    0.827
   610   8 o    1.862 --   611 h    0.874   612 h    0.829
   611   1 h    0.902 --   610 o    0.874
   612   1 h    0.883 --   610 o    0.829
   613   8 o    1.847 --   615 h    0.873   614 h    0.844
   614   1 h    0.891 --   613 o    0.844
   615   1 h    0.890 --   613 o    0.873
   616   8 o    1.825 --   618 h    0.854   617 h    0.840
   617   1 h    0.889 --   616 o    0.840
   618   1 h    0.901 --   616 o    0.854
   619   8 o    1.854 --   620 h    0.865   621 h    0.811
   620   1 h    0.893 --   619 o    0.865
   621   1 h    0.874 --   619 o    0.811
   622   8 o    1.867 --   624 h    0.849   623 h    0.836
   623   1 h    0.892 --   622 o    0.836
   624   1 h    0.892 --   622 o    0.849
   625   8 o    1.838 --   626 h    0.814   627 h    0.785
   626   1 h    0.889 --   625 o    0.814
   627   1 h    0.879 --   625 o    0.785
   628   8 o    1.856 --   630 h    0.833   629 h    0.817
   629   1 h    0.886 --   628 o    0.817
   630   1 h    0.879 --   628 o    0.833
   631   8 o    1.901 --   632 h    0.822   633 h    0.789
   632   1 h    0.888 --   631 o    0.822
   633   1 h    0.865 --   631 o    0.789
   634   8 o    1.871 --   635 h    0.868   636 h    0.808
   635   1 h    0.901 --   634 o    0.868
   636   1 h    0.872 --   634 o    0.808
   637   8 o    1.845 --   639 h    0.867   638 h    0.772
   638   1 h    0.874 --   637 o    0.772
   639   1 h    0.903 --   637 o    0.867
   640   8 o    1.855 --   642 h    0.831   641 h    0.815
   641   1 h    0.881 --   640 o    0.815
   642   1 h    0.887 --   640 o    0.831
   643   8 o    1.852 --   644 h    0.866   645 h    0.854
   644   1 h    0.899 --   643 o    0.866
   645   1 h    0.892 --   643 o    0.854
   646   8 o    1.834 --   647 h    0.868   648 h    0.814
   647   1 h    0.897 --   646 o    0.868
   648   1 h    0.888 --   646 o    0.814
   649   8 o    1.852 --   651 h    0.913   650 h    0.803
   650   1 h    0.875 --   649 o    0.803
   651   1 h    0.920 --   649 o    0.913
   652   8 o    1.816 --   654 h    0.840   653 h    0.830
   653   1 h    0.893 --   652 o    0.830
   654   1 h    0.891 --   652 o    0.840
   655   8 o    1.856 --   656 h    0.825   657 h    0.814
   656   1 h    0.888 --   655 o    0.825
   657   1 h    0.874 --   655 o    0.814
   658   8 o    1.843 --   660 h    0.861   659 h    0.854
   659   1 h    0.891 --   658 o    0.854
   660   1 h    0.898 --   658 o    0.861
   661   8 o    1.849 --   663 h    0.842   662 h    0.812
   662   1 h    0.872 --   661 o    0.812
   663   1 h    0.891 --   661 o    0.842
   664   8 o    1.842 --   665 h    0.904   666 h    0.788
   665   1 h    0.913 --   664 o    0.904
   666   1 h    0.870 --   664 o    0.788
   667   8 o    1.831 --   669 h    0.900   668 h    0.816
   668   1 h    0.879 --   667 o    0.816
   669   1 h    0.912 --   667 o    0.900
   670   8 o    1.830 --   672 h    0.835   671 h    0.828
   671   1 h    0.893 --   670 o    0.828
   672   1 h    0.886 --   670 o    0.835
   673   8 o    1.874 --   675 h    0.857   674 h    0.774
   674   1 h    0.871 --   673 o    0.774
   675   1 h    0.891 --   673 o    0.857
   676   8 o    1.819 --   678 h    0.855   677 h    0.842
   677   1 h    0.891 --   676 o    0.842
   678   1 h    0.896 --   676 o    0.855
   679   8 o    1.865 --   680 h    0.901   681 h    0.791
   680   1 h    0.911 --   679 o    0.901
   681   1 h    0.869 --   679 o    0.791
   682   8 o    1.863 --   683 h    0.824   684 h    0.821
   683   1 h    0.877 --   682 o    0.824
   684   1 h    0.891 --   682 o    0.821
   685   8 o    1.843 --   687 h    0.904   686 h    0.783
   686   1 h    0.871 --   685 o    0.783
   687   1 h    0.914 --   685 o    0.904
   688   8 o    1.873 --   690 h    0.865   689 h    0.794
   689   1 h    0.881 --   688 o    0.794
   690   1 h    0.892 --   688 o    0.865
   691   8 o    1.845 --   692 h    0.867   693 h    0.849
   692   1 h    0.893 --   691 o    0.867
   693   1 h    0.890 --   691 o    0.849
   694   8 o    1.801 --   696 h    0.876   695 h    0.828
   695   1 h    0.894 --   694 o    0.828
   696   1 h    0.902 --   694 o    0.876
   697   8 o    1.832 --   698 h    0.873   699 h    0.796
   698   1 h    0.898 --   697 o    0.873
   699   1 h    0.881 --   697 o    0.796
   700   8 o    1.847 --   701 h    0.836   702 h    0.827
   701   1 h    0.893 --   700 o    0.836
   702   1 h    0.873 --   700 o    0.827
   703   8 o    1.869 --   704 h    0.833   705 h    0.815
   704   1 h    0.886 --   703 o    0.833
   705   1 h    0.880 --   703 o    0.815
   706   8 o    1.861 --   707 h    0.828   708 h    0.808
   707   1 h    0.885 --   706 o    0.828
   708   1 h    0.882 --   706 o    0.808
   709   8 o    1.838 --   711 h    0.919   710 h    0.779
   710   1 h    0.872 --   709 o    0.779
   711   1 h    0.923 --   709 o    0.919
   712   8 o    1.842 --   714 h    0.914   713 h    0.780
   713   1 h    0.873 --   712 o    0.780
   714   1 h    0.922 --   712 o    0.914
   715   8 o    1.858 --   716 h    0.914   717 h    0.797
   716   1 h    0.921 --   715 o    0.914
   717   1 h    0.873 --   715 o    0.797
   718   8 o    1.860 --   719 h    0.862   720 h    0.825
   719   1 h    0.900 --   718 o    0.862
   720   1 h    0.882 --   718 o    0.825
   721   8 o    1.840 --   722 h    0.848   723 h    0.838
   722   1 h    0.896 --   721 o    0.848
   723   1 h    0.892 --   721 o    0.838
   724   8 o    1.835 --   725 h    0.817   726 h    0.773
   725   1 h    0.889 --   724 o    0.817
   726   1 h    0.871 --   724 o    0.773
   727   8 o    1.852 --   728 h    0.916   729 h    0.836
   728   1 h    0.919 --   727 o    0.916
   729   1 h    0.886 --   727 o    0.836
   730   8 o    1.870 --   731 h    0.827   732 h    0.818
   731   1 h    0.891 --   730 o    0.827
   732   1 h    0.884 --   730 o    0.818
   733   8 o    1.817 --   735 h    0.900   734 h    0.851
   734   1 h    0.893 --   733 o    0.851
   735   1 h    0.908 --   733 o    0.900
   736   8 o    1.884 --   738 h    0.884   737 h    0.811
   737   1 h    0.878 --   736 o    0.811
   738   1 h    0.899 --   736 o    0.884
   739   8 o    1.835 --   741 h    0.899   740 h    0.818
   740   1 h    0.881 --   739 o    0.818
   741   1 h    0.912 --   739 o    0.899
   742   8 o    1.812 --   743 h    0.885   744 h    0.836
   743   1 h    0.910 --   742 o    0.885
   744   1 h    0.890 --   742 o    0.836
   745   8 o    1.864 --   747 h    0.861   746 h    0.815
   746   1 h    0.885 --   745 o    0.815
   747   1 h    0.886 --   745 o    0.861
   748   8 o    1.859 --   749 h    0.865   750 h    0.835
   749   1 h    0.891 --   748 o    0.865
   750   1 h    0.879 --   748 o    0.835
   751   8 o    1.855 --   753 h    0.872   752 h    0.872
   752   1 h    0.889 --   751 o    0.872
   753   1 h    0.883 --   751 o    0.872
   754   8 o    1.879 --   756 h    0.818   755 h    0.795
   755   1 h    0.869 --   754 o    0.795
   756   1 h    0.883 --   754 o    0.818
 ---------------------------------------------------------------------------

Topologies differ in total number of bonds
Writing topology from bond orders to xtbtopo.mol

molecular dipole:
                 x           y           z       tot (Debye)
 q only:       -2.072       2.055       2.469
   full:       -3.246       2.594       2.142      11.883
molecular quadrupole (traceless):
                xx          xy          yy          xz          yz          zz
 q only:      239.199     -57.136    -115.470     -37.440      33.220    -123.728
  q+dip:      325.736     -71.082    -161.162     -59.681      56.519    -164.573
   full:      326.937     -69.458    -161.943     -61.350      56.122    -164.994


           -------------------------------------------------
          | TOTAL ENERGY            -1283.327038791502 Eh   |
          | GRADIENT NORM               0.100685594354 Eh/α |
          | HOMO-LUMO GAP               6.631719345896 eV   |
           -------------------------------------------------

------------------------------------------------------------------------
 * finished run on 2022/11/24 at 12:22:36.474     
------------------------------------------------------------------------
 total:
 * wall-time:     0 d,  0 h,  0 min, 55.640 sec
 *  cpu-time:     0 d,  0 h,  1 min, 11.605 sec
 * ratio c/w:     1.287 speedup
 SCF:
 * wall-time:     0 d,  0 h,  0 min, 54.609 sec
 *  cpu-time:     0 d,  0 h,  1 min,  9.869 sec
 * ratio c/w:     1.279 speedup

