756
 energy: -1283.320219266588 gnorm: 0.036775210620 xtb: 6.5.1 (579679a)
o            5.64776180981710       -7.96481670854771       -0.12682446363339
h            4.94069080051708       -7.70770837170150       -0.75090349423360
h            5.30029608345430       -7.68681989483932        0.73408291679390
o            0.29513024941856        3.03479415674051        4.23828525488458
h           -0.64157023207716        2.89844648559067        3.98539121744729
h            0.64212815392533        3.73968138784314        3.66249324560464
o            1.01201365810832       -0.95066411540023       -2.52285412613723
h            0.41793872272504       -1.69669467528582       -2.71137964494624
h            1.66403446181578       -1.27632811338598       -1.88332882137026
o           -6.26345852869466        0.77739866587550        0.49916543278908
h           -5.57787527930119        1.10412130266288       -0.13541919813613
h           -6.72102458874300        1.58175242044948        0.76808881083894
o           -3.43670281585298        2.65834962426632        1.28254093360952
h           -2.74786628826120        2.92677090196278        0.63445835563702
h           -2.99501807273093        2.63539064809631        2.15579968049140
o           -3.45927472545843       -5.71158407229613        0.88703714380341
h           -3.37443486842984       -5.99373624001890       -0.04413677010511
h           -2.96261476253734       -4.87550813186463        1.01941929042121
o           -0.88629417847224       -2.76046354169219       -3.29600064730651
h           -0.75545194781161       -3.65113216345878       -3.69894231962315
h           -1.46912452669914       -2.93863076656221       -2.52418376731341
o           -0.04299533001128       -5.08291426272221        1.08253125236594
h           -0.66769674365296       -5.11354739498026        1.83051706886986
h            0.64110014572050       -5.75809086308130        1.24582394181636
o           -2.46825461840236       -3.28374161124400        1.14325696163191
h           -1.60841785727574       -3.03545511887927        1.55214372919681
h           -3.12857128734011       -2.74095891600184        1.60221192355169
o           -1.54963435352950        3.70275496266922       -5.12552705566868
h           -1.73781655187024        2.83773496552316       -5.54981586300422
h           -0.58530793269695        3.85967363101094       -5.11611950614160
o           -3.96237203238271        0.19955626138562       -3.23783547260318
h           -4.52248227831721        0.57317697072244       -3.95891240120398
h           -3.37332686663279        0.95213228336376       -3.02942186983939
o           -2.56189090071525        2.44998496709777       -2.95289238823949
h           -2.27688229015737        2.80541470202187       -2.09072886952841
h           -2.02000340499008        2.89079830410041       -3.62646324594759
o           -2.57554568424860       -3.52870775371662       -1.44903455606298
h           -3.49953927262305       -3.69332522864436       -1.72477235378045
h           -2.56729410701376       -3.37041998630213       -0.48091852138179
o           -4.81503127887571        1.92618304979464       -1.30496634952925
h           -5.39337147841892        2.06736076009622       -2.07085839487191
h           -4.39755819550737        2.78588675323384       -1.14971303063315
o           -1.74629104848398        3.46031594446227       -0.61686450316928
h           -2.01890402219226        4.39720852943968       -0.64028322029629
h           -0.81000460495007        3.50121878636722       -0.33725840241004
o           -0.23347395833913        0.83019153697741       -4.13264920928507
h           -0.02063744958536        1.68907758529247       -3.70352109429810
h            0.18487540374782        0.16148979571751       -3.57460182935915
o           -1.24812258360282        0.04400435981733        2.65949206516020
h           -1.45554726535861        0.13859560594137        3.60742789361354
h           -2.09756616459390       -0.05381621010686        2.18358347751360
o           -1.94577648027676       -0.64719713655472        8.56925619286950
h           -2.82331902996082       -0.24146097289820        8.59781857071981
h           -2.07371892820665       -1.57114059163433        8.30006836624401
o           -1.74259246682713       -5.30007035577480        3.17263855275177
h           -1.82106475564717       -6.26418931132713        3.05135094010470
h           -2.63297457512018       -4.94547159417352        3.33336617394026
o           -2.09693248425293        0.45716191078563        5.14904956038610
h           -1.39082272716365        0.55471884083496        5.81143515273187
h           -2.76897391950275       -0.14571274248130        5.52803607292523
o           -3.43797668723446       -1.72060481716739        3.10997969196538
h           -2.79526397266375       -2.01107382611823        3.77928757706859
h           -3.77401982935726       -0.85320908314153        3.38118749990312
o            4.27259505180133        0.84735443738474        3.50387962802013
h            4.45790451890855       -0.08542012137522        3.29054488401273
h            4.89725821734660        1.05999371585675        4.22428825788307
o            0.19029316694515       -2.90041333870795       -0.55883254365291
h            0.05888388193678       -3.53733029461697        0.15958052589476
h            0.51141014465263       -3.41387693417043       -1.31472075852421
o           -0.56439175833758        5.31824533858873       -2.22589623138795
h            0.00463678746980        6.08985881800066       -2.33741681074139
h           -1.37622774761785        5.51494809513905       -2.72447044303158
o           -0.18419401571109        0.54051748785246        7.03122328506400
h            0.04818809902905        1.44868112229536        7.25448807685003
h           -0.80258599363843        0.18120782058817        7.71206920959681
o           -4.56030483310851        0.74692473060270        3.70427208672844
h           -4.43751917319993        1.03146060760392        4.62260163042862
h           -5.43421345372976        0.32192670743237        3.62295469107309
o           -8.09107841373365       -0.02938445617359       -1.25206033313755
h           -7.37553523601969        0.07899430017140       -0.58973357878610
h           -8.53035522007866        0.84995137304386       -1.30549765497977
o            2.24811699832657        2.50314461236550        1.56478265862411
h            2.00551095243455        1.59103985768779        1.85669901094093
h            3.19594358808954        2.46154126232567        1.34248332634844
o           -3.10517206081151       -1.84478586244618       -4.55684193692967
h           -2.24599406362310       -2.14783442563045       -4.21087254532785
h           -3.32075637031023       -1.03391640587624       -4.03012677849690
o            2.89345555025347       -2.39771761244666       -1.15182839703673
h            3.83098699017250       -2.09891688796844       -1.11820166965646
h            2.78024613385671       -2.70667687058269       -2.07118472094158
o           -3.42675863507558       -4.69351000834974       -3.80026296052261
h           -3.35736112111395       -3.84529771604471       -4.24811311667261
h           -3.51057211419960       -5.36817593765633       -4.48630067287439
o           -5.60614762167818       -1.35541957994811       -1.67428560416473
h           -5.31539858885293       -1.42634357956785       -0.73985828455794
h           -5.04752597310514       -0.70671381183305       -2.13323177148524
o            1.82966701234893        0.85288788057144        4.63907979149984
h            2.71337140446153        0.98893653784956        4.24860498362671
h            1.33107994980607        1.67507211149171        4.51444154266349
o            4.62672545514611       -3.65769489825004        1.69944330373061
h            3.70266529817774       -3.77239621630825        1.97853450763717
h            4.96988708600849       -2.91970295121850        2.24004918377483
o            1.30470422545342        0.17716226356359        2.16860775970281
h            1.83267496856964       -0.59264238671619        1.92293862289535
h            1.29621059704140        0.21688472657821        3.14814613422403
o            3.12996785071065        3.41332318012197        4.10144269118031
h            2.76250508610264        3.25147033053804        3.21246221705715
h            3.95574470609779        3.89911372145154        3.98066395528553
o           -4.27169049438493        4.56338068222297       -1.57327065713671
h           -3.73410546856059        5.18598451925958       -1.05633374589661
h           -4.09957874225295        4.70588520990160       -2.50582898251677
o           -6.83131162111118        4.17936903045055       -1.10556500702906
h           -6.92664303916636        3.62595539829469       -1.90018469430655
h           -5.87634341871017        4.41577110421757       -1.08866506949689
o            0.34451025773735       -4.04888806985605        4.27383832648563
h           -0.42751924713602       -4.61945688742032        4.10495438765449
h            0.30551787165506       -3.76345002073803        5.20761605065263
o           -4.27900887660594       -4.24608559756067        3.68530017888851
h           -4.29313861299531       -3.29248633513266        3.48188753846094
h           -5.17720914297359       -4.57640033431512        3.54440811626040
o           -0.29480674374859       -2.40424385354124        2.30092248102742
h           -0.14378770405980       -2.91995709489506        3.11846070177849
h           -0.54723107792972       -1.49704165940883        2.58684552620019
o           -0.60224504802546        2.50310945116879        1.63158014802663
h           -0.73206438798102        1.67326801065901        2.12021735359231
h            0.34501654919014        2.65707676288410        1.57904553530070
o            0.88229549614333       -3.53997104807165       -8.33607490480349
h            1.10837498196819       -4.01414996857897       -7.52092857953035
h            1.47601687945931       -2.77314294791610       -8.34561405331826
o            2.65250194470841       -2.02618801981640        4.22187116080721
h            2.64993280784685       -2.24235299716095        3.28329993748497
h            1.74076181469721       -1.71049154730569        4.43517313351765
o           -5.71361519750734        3.05759910812502        3.06538400150260
h           -6.37557580519289        3.05671862320642        2.34785120147352
h           -5.17431958604158        2.24000526177899        3.00382055461456
o           -7.58626000136895        3.11422695447100        1.12071032832357
h           -8.30889380912524        3.73893880201246        1.31750597096554
h           -7.22341542703269        3.47098067917246        0.25907049276431
o           -7.03573795284514       -3.14048284873502        2.25568990172381
h           -7.63489400625707       -3.90004585806544        2.34504598673370
h           -7.61555204805170       -2.40452552761510        1.99742768348463
o            0.80337246136549       -8.02028641880112        3.57498427782328
h            0.82327911061847       -7.46740423979603        4.38032654610604
h           -0.12787400513635       -8.12493979109216        3.33506005148278
o            6.24804901762445       -4.91754017726484        4.17202461373207
h            6.04230422221284       -4.16352123772079        4.75495800624907
h            5.50490462327097       -5.51888408307407        4.29293640361374
o            0.55091746518724        2.99202278760879       -2.87195451314834
h            0.92417581985791        2.54325719474420       -2.08745768563173
h            0.09290344248073        3.79506742670473       -2.54576764241129
o            4.53486806256819       -4.67844228804782       -2.58047643699081
h            4.20241996931173       -5.56242268673471       -2.37191030614094
h            5.12104926898428       -4.42011619201470       -1.84029572146255
o           -9.09061218499979        4.51830547960486       -2.85212813338787
h           -8.22532665117809        4.94147307564454       -2.97113720524646
h           -9.30952469288983        4.11199870980074       -3.72155952992477
o            4.05169091179594       -0.34021974113531        0.97854526281337
h            4.99439672933435       -0.53762111182120        1.10843194026315
h            3.57311608219694       -1.15233040969012        1.17119900983934
o           -0.63099531345819        3.43374863532688       -8.45946649685539
h           -0.83945171131802        2.49978817467680       -8.56569850549968
h            0.27158841630296        3.46300627591229       -8.10412049082350
o           -7.80912849199194       -2.81074155552771       -1.11936725374841
h           -8.19534947895935       -2.41099144621505       -0.31830698946855
h           -7.07074998819671       -2.22446685042062       -1.35027676472511
o           -2.31544658557962        2.68040091092003        3.74362070997771
h           -2.78150927543998        3.39964772759088        4.18489984663752
h           -2.41513880213075        1.87825244934099        4.29138068715848
o            2.73382748946367       -4.87055635582414       -0.08656461906873
h            3.01871609573254       -3.97400926500308       -0.33787821825252
h            2.44132030390151       -4.83816209812963        0.83638785940236
o           -4.54158147524515       -7.35513490511209        2.70989370968376
h           -5.25073406145241       -7.68353770994374        2.12471256427566
h           -4.07973102009451       -6.69521090683775        2.15211304033321
o            2.83246457191202        0.14428363221404       -4.25926884743769
h            2.88779564667874        1.05329817967817       -3.90818812260977
h            2.20925934193165       -0.34696276930960       -3.69754115905311
o            2.42473812823979       -1.38953792778274       -7.64028039455714
h            3.04877834104304       -1.91577833865960       -7.10197653169960
h            2.92532312719725       -0.61525114091891       -7.91826523236665
o           -1.95800041084270       -2.74951333050846        5.13447737733839
h           -1.91273294144250       -3.69338565383852        5.35841449546179
h           -2.60967144488227       -2.33966200873317        5.72688313637654
o           -0.76089049620659       -5.01666094306873       -4.65068901762271
h           -1.41994965996142       -4.79322048659898       -5.33798818205738
h           -1.07293152345673       -5.84688051704383       -4.23787793602236
o            1.51958783881700        1.54263154967894       -0.84990640364809
h            1.69974726830225        2.07359244231809       -0.04788684395744
h            2.39703186171055        1.24806223680837       -1.18259966618172
o           -1.03833566536638       -5.71554022052872       -1.26656721289162
h           -1.66523118940479       -4.99007166993578       -1.46818789698601
h           -0.66721312609797       -5.49495284689450       -0.38041131060639
o            3.74015375219973       -6.22996364890211        4.58475810183986
h            3.50753238448154       -5.45801913072120        5.14867256682141
h            3.20345856199236       -6.95887994507580        4.90591998694313
o           -3.73296205056692       -1.09841858579212       -7.10233153416650
h           -2.98897279609208       -1.46899924411035       -7.59447890560679
h           -3.51415497976715       -1.28688685570638       -6.16630569590844
o           -5.17188213086806       -3.95746119543862       -1.98459976047443
h           -5.52393038610590       -4.28247202398467       -1.12990184107121
h           -5.36398761564507       -3.00041615503031       -2.01427394162132
o           -2.24287025211302        1.24985369104234       -5.85395099998785
h           -1.64796418350649        0.88654143014904       -5.17749312114747
h           -1.88721381020983        0.99051156490307       -6.72477869019483
o           -9.59681002503607        4.92539617943604        1.19945759741786
h           -9.02189478357524        5.66406136650508        0.94062864553139
h          -10.16800262004282        4.75446634979479        0.42673406440892
o            2.92905213185098       -4.03191691033078        5.86875175881454
h            2.78143024554720       -3.31635662411809        5.18995215329147
h            2.25018900903383       -3.88818895456547        6.53738896518051
o           -2.11501604947477        3.88194337034443        6.40227887811523
h           -1.30218223138724        3.53755143599643        6.79695822099821
h           -1.81151812543290        4.55572412613345        5.76534342510838
o            3.90933537970314        0.68343459209276       -1.43427700873183
h            4.67906992488977        1.26887098267777       -1.41996140936029
h            3.92230140270022        0.25352427957899       -0.54694355105642
o            4.16417511416029        4.99927412098223        1.90975390671855
h            4.46826925284688        4.10942423003956        1.67918311911010
h            3.57077778721365        5.30108373548102        1.18375417327487
o           -4.93375975216020        1.38132292054506       -5.30841118430104
h           -4.06538020572587        1.37374091424831       -5.73973833068407
h           -5.59879275516026        1.08094180131329       -5.94188587212938
o            4.52294488067456       -6.46385851180230        1.87325282780488
h            4.46592959206408       -6.60761152936539        2.82242964034340
h            4.67451039981270       -5.50930676676289        1.74719329420032
o           -4.39883532118900        3.89830289542705       -7.00058935670593
h           -3.67951674752530        4.51097485428487       -7.24773095957698
h           -4.21673727988361        3.04703122850542       -7.44137952571061
o            5.38244176863298       -0.24030061770576       -3.75130488106516
h            4.40706446522548       -0.22662248207476       -3.89337692638385
h            5.65717255014413        0.69946579090581       -3.65100722467007
o           -6.63705741313343       -5.75859600323445        3.62595043599520
h           -5.99939084529412       -6.46804894291336        3.44660968023353
h           -7.36009941895183       -5.88555891575501        2.99829855142688
o           -8.86528692540455       -1.61709612617055        1.02930688860413
h           -9.68810651936572       -2.09418881250735        1.21058901118515
h           -9.03471327868593       -0.65864796569238        1.01939228122378
o           -8.31265118637662       -5.39840568315158       -0.80197835809483
h           -7.88593997486550       -4.51732072509639       -0.86199004342715
h           -9.19818822131924       -5.24893101301983       -1.15460120787939
o           -7.58172874258947        6.43672018322026        0.25652808179988
h           -6.79577709590769        7.00936377019155        0.12314904367464
h           -7.39764419766851        5.67002863105156       -0.31919795198585
o           -5.10951640305410        7.35821851702605       -0.03533720212150
h           -4.83300555550790        6.46538387906078        0.26194766339722
h           -4.98121781905707        7.37401595816054       -1.00861351212405
o           -2.53769682986004        5.99713770360309       -0.16349012953189
h           -2.18239393372378        5.81959846377468        0.73016382345730
h           -2.02856213649582        6.72083693366040       -0.56013602053240
o           -0.83969992799497        5.63381024881178        4.72736202000928
h            0.11392456123040        5.58239256378215        4.96145903589028
h           -0.90282817763800        5.46536365983956        3.76407953497954
o            1.20588450472139        5.03363896339400        2.59485487185711
h            1.10199972535982        4.69052249392717        1.68720788546562
h            1.26456061457793        5.98946625491477        2.52843404311918
o           -0.49034908010711        6.72414029765409       -5.33405762082196
h           -0.93448373350117        6.57060941589826       -6.18198164215380
h            0.11207266750230        5.96398830127868       -5.21952282784793
o            1.82939650237378        3.16589744797736       -7.21800001843530
h            1.68860802803577        2.22451890431548       -6.98188565114114
h            2.71593714712330        3.25211382417829       -7.58282661188755
o            4.87152929003404        2.33792342029424        1.33359798397251
h            4.78886628720321        1.70851532988913        2.08107197132436
h            5.37452798196720        1.90948897984345        0.62632714419119
o            3.90109033656806        4.78570366359647       -5.10491169808144
h            4.78044778708421        5.12848568759432       -4.81419203955349
h            3.25497151601344        5.38361444092403       -4.70327301404439
o           -2.61583175211057        6.11418629374386       -3.78251953196905
h           -3.05726821875546        5.34773718095250       -4.19716449799945
h           -1.93145087360588        6.41835052942455       -4.41262846390921
o           -5.89937821037277       -4.83310942989818        0.43775266448685
h           -4.98840536149036       -5.07523665863452        0.71480236048296
h           -6.21243753342828       -4.14631424651695        1.05097120579412
o            1.00788446109118       -8.28631288802029       -0.87758731127988
h            1.31413029287871       -7.87343027362626       -0.04396628102111
h            0.07974455000153       -8.49213606782479       -0.71131106890687
o            8.28563024948332       -2.49329400827930       -0.82144923828832
h            7.98789580290630       -1.72932598465843       -1.36423619733035
h            7.54033452892969       -3.12578555669882       -0.81654179884343
o            2.36082234266993       -4.67367731678999        2.70060615924545
h            1.58183695864204       -4.38482162128933        3.21128544056662
h            2.79798520501112       -5.33281315793743        3.25321328847628
o            5.56091386677458        6.98316975762217       -1.69111869870290
h            6.48554394399011        7.16464968968475       -1.49240137533922
h            5.40332496539512        6.09781051826305       -1.26813979864587
o           -6.36851017714814       -2.66072235544603        7.38208488821201
h           -7.08824771657343       -3.10083116231404        6.91333349370138
h           -6.41280020023909       -1.73119027028538        7.12274386377259
o           -6.32950361606734       -1.87809813145535       -7.00860059866251
h           -6.20633070999464       -1.97206752613716       -6.03165464590080
h           -5.44586818914833       -1.60691801991462       -7.31637474320836
o           -4.82007190850764        7.30888321440344       -2.69368454018776
h           -5.56192709178061        6.79321143624578       -3.04670605633576
h           -4.01916459571384        6.92976200337721       -3.09458947709292
o           -6.59414033461482        5.47776461778933       -3.83108662016308
h           -5.83126839789195        4.87018408225876       -3.92708401215682
h           -6.93346046163365        5.59803682313054       -4.71884675119951
o            3.87107222625305       -0.48899623383235        6.27498553082539
h            3.49348983488440       -0.78736739865035        5.43371828897556
h            3.69477113390989        0.46535243842577        6.33639580272778
o           -5.83649078140744       -2.16423764640840       -4.44347107424763
h           -6.15743487883151       -1.30243330396427       -4.09024390501904
h           -4.87005866177009       -2.17462274204491       -4.36300538651336
o            1.55135239277005       -4.31751596573379       -5.69486732594679
h            2.14857405136181       -5.05790687914249       -5.48898527404832
h            0.68535257921522       -4.62065805530884       -5.34338412955641
o            1.24374558160912       -4.82080739533978       -2.32369236691480
h            1.78658548334570       -4.97009298918934       -1.52756962547671
h            0.42370273149016       -5.32966988222906       -2.17764289366458
o           -4.94962833948791        4.86941648292989        0.95670717123950
h           -5.53085749406322        4.96200622523985        1.71780976112663
h           -4.42147793778806        4.05874467034134        1.07945114225148
o           -7.12822876236396       -0.02245073711701       -3.67265595466168
h           -7.94060587029400        0.09292509107862       -4.20153536609372
h           -7.41762234731471       -0.16629756277149       -2.73983269740631
o          -11.07983702744516        4.54595796163926       -1.02930100660469
h          -10.35759052195319        4.55725177459181       -1.69643590520976
h          -11.71638025148859        5.20233783004222       -1.31080625618727
o            4.28444901430159        8.48947769227102        0.12334340595668
h            4.83234803566901        8.24501762555168        0.88480081671085
h            4.77331211454610        8.12638462915807       -0.64236807060273
o           -6.65505788356341        2.55414654713389       -3.29461471403508
h           -6.54390011767594        2.93419178847448       -4.17832022184798
h           -6.78854227087889        1.59897386735176       -3.46218990818794
o            1.75602462848129        5.36711211895488        5.43762132091332
h            2.27615965042444        6.09727886051228        5.06458886172213
h            2.12015443209831        4.58845203219678        4.96756982962359
o            3.89362467766109        0.75489796236295       -6.69150583568178
h            4.71997969119388        0.24636375154284       -6.62470335707957
h            3.38814189035832        0.55054271502224       -5.88392712280638
o           -1.58688647147338       -5.39052028458358        5.97654450741398
h           -1.74883050544839       -5.19680135745623        6.90231269722370
h           -2.32537013385874       -5.97118851291079        5.68164950247302
o            5.46167799168148        4.51338095436189       -0.73102687487769
h            6.17839476248658        4.31845824234616       -1.37017235937936
h            5.87717766443258        4.43566402207230        0.14494130185294
o           -4.99585178519941       -1.95550590217364        0.81477413960780
h           -4.49812122987732       -1.19584022155321        1.15192510642791
h           -5.63678813133543       -2.20956447420319        1.48713847282789
o            8.43722805151854        3.54021347594944        5.43351508239446
h            8.66565256722644        2.59528840071683        5.38182553838997
h            7.73093431724682        3.60302726782145        6.08524584472880
o           -8.64283928124266        1.52562082385725        3.94611955489041
h           -9.21840653274343        2.27299254041838        3.70818024746601
h           -8.00216805508221        1.90024670530088        4.58051463743328
o           -3.83858712046698        4.90008106788484        3.77570740610103
h           -4.10655759640550        5.81804049851948        3.62663501903141
h           -4.57864752090670        4.33481436732866        3.49945143933132
o           -9.40587433785046        2.21412964127931       -1.48381621733583
h           -9.06780679411562        3.00478451892466       -1.94003999150901
h          -10.11080537844903        1.86049812498844       -2.04398384556535
o           -4.47654101467963        0.46341720410564        8.17679932398065
h           -5.42835807897263        0.31469241610365        8.14249677476283
h           -4.29892933135784        1.15427789330960        7.50289272670387
o            0.41169583530432       -3.38881724119534        6.89924338520836
h            0.88328454655156       -2.58237935491428        7.22409543316970
h           -0.45647559184972       -3.37259302210054        7.31522031651521
o            0.93884796929626       -6.41110761269620        5.74311668027072
h            1.40720700124370       -5.57055110008037        5.69018524038120
h            0.00696295845391       -6.16021721247314        5.88369572072790
o           -2.09167325624072        5.32004378442208       -7.15886657372121
h           -1.95047054994084        4.77497382949203       -6.35086060538562
h           -1.60443368274542        4.83220226698253       -7.84342889640955
o            2.94606349177302        3.99005720591415       -1.47618158864439
h            3.81659643340731        4.13071280616436       -1.06616912228415
h            3.08546030304001        3.37553219782799       -2.22645210463610
o            6.26420789732514        2.23503149524026       -3.70925293896642
h            6.50862690544875        2.30665203799546       -4.65172666442636
h            7.10355498555285        2.28948678728829       -3.21564704926145
o            1.61202604224084        9.08879484246837       -0.56368894570262
h            2.57105271136518        9.07130148759154       -0.43667180968710
h            1.44994133797845        8.93561276928031       -1.50149078459605
o            5.39289364296317        5.03426709473565        4.57525111482151
h            4.83834776871249        5.82557104692044        4.56912717069001
h            6.25796583340418        5.28368878369477        4.23158665090590
o            6.23942075522464        1.24046890161284        5.23391757821234
h            6.14352362592216        2.03606626669979        5.79904106138189
h            6.75932672268928        1.49648324956083        4.44480121552432
o            6.12326400840129       -4.12964897606337       -0.49365862729996
h            5.58765334349381       -3.89087233291640        0.28606713385972
h            6.62226398640573       -4.93657427349888       -0.25738325562054
o            7.31232008078444       -3.43036844624034        2.04389138197355
h            7.87565971011925       -4.08247831513974        1.62372068195612