      -----------------------------------------------------------      
     |                   =====================                   |     
     |                           x T B                           |     
     |                   =====================                   |     
     |                         S. Grimme                         |     
     |          Mulliken Center for Theoretical Chemistry        |     
     |                    University of Bonn                     |     
      -----------------------------------------------------------      

   * xtb version 6.5.1 (579679a) compiled by 'ehlert@majestix' on 2022-07-11

   xtb is free software: you can redistribute it and/or modify it under
   the terms of the GNU Lesser General Public License as published by
   the Free Software Foundation, either version 3 of the License, or
   (at your option) any later version.
   
   xtb is distributed in the hope that it will be useful,
   but WITHOUT ANY WARRANTY; without even the implied warranty of
   MERCHANTABILITY or FITNESS FOR A PARTICULAR PURPOSE.  See the
   GNU Lesser General Public License for more details.
   
   Cite this work as:
   * C. Bannwarth, E. Caldeweyher, S. Ehlert, A. Hansen, P. Pracht,
     J. Seibert, S. Spicher, S. Grimme, WIREs Comput. Mol. Sci., 2020, 11,
     e01493. DOI: 10.1002/wcms.1493
   
   for GFN2-xTB:
   * C. Bannwarth, S. Ehlert and S. Grimme., J. Chem. Theory Comput., 2019,
     15, 1652-1671. DOI: 10.1021/acs.jctc.8b01176
   for GFN1-xTB:
   * S. Grimme, C. Bannwarth, P. Shushkov, J. Chem. Theory Comput., 2017,
     13, 1989-2009. DOI: 10.1021/acs.jctc.7b00118
   for GFN0-xTB:
   * P. Pracht, E. Caldeweyher, S. Ehlert, S. Grimme, ChemRxiv, 2019, preprint.
     DOI: 10.26434/chemrxiv.8326202.v1
   for GFN-FF:
   * S. Spicher and S. Grimme, Angew. Chem. Int. Ed., 2020, 59, 15665-15673.
     DOI: 10.1002/anie.202004239
   
   for ALPB and GBSA implicit solvation:
   * S. Ehlert, M. Stahn, S. Spicher, S. Grimme, J. Chem. Theory Comput.,
     2021, 17, 4250-4261. DOI: 10.1021/acs.jctc.1c00471
   
   for DFT-D4:
   * E. Caldeweyher, C. Bannwarth and S. Grimme, J. Chem. Phys., 2017,
     147, 034112. DOI: 10.1063/1.4993215
   * E. Caldeweyher, S. Ehlert, A. Hansen, H. Neugebauer, S. Spicher,
     C. Bannwarth and S. Grimme, J. Chem. Phys., 2019, 150, 154122.
     DOI: 10.1063/1.5090222
   * E. Caldeweyher, J.-M. Mewes, S. Ehlert and S. Grimme, Phys. Chem. Chem. Phys.
     2020, 22, 8499-8512. DOI: 10.1039/D0CP00502A
   
   for sTDA-xTB:
   * S. Grimme and C. Bannwarth, J. Chem. Phys., 2016, 145, 054103.
     DOI: 10.1063/1.4959605
   
   in the mass-spec context:
   * V. Asgeirsson, C. Bauer and S. Grimme, Chem. Sci., 2017, 8, 4879.
     DOI: 10.1039/c7sc00601b
   * J. Koopman and S. Grimme, ACS Omega 2019, 4, 12, 15120-15133.
     DOI: 10.1021/acsomega.9b02011
   
   for metadynamics refer to:
   * S. Grimme, J. Chem. Theory Comput., 2019, 155, 2847-2862
     DOI: 10.1021/acs.jctc.9b00143
   
   for SPH calculations refer to:
   * S. Spicher and S. Grimme, J. Chem. Theory Comput., 2021, 17, 1701-1714
     DOI: 10.1021/acs.jctc.0c01306
   
   with help from (in alphabetical order)
   P. Atkinson, C. Bannwarth, F. Bohle, G. Brandenburg, E. Caldeweyher
   M. Checinski, S. Dohm, S. Ehlert, S. Ehrlich, I. Gerasimov, C. Hölzer
   A. Katbashev, J. Koopman, C. Lavigne, S. Lehtola, F. März, M. Müller,
   F. Musil, H. Neugebauer, J. Pisarek, C. Plett, P. Pracht, F. Pultar,
   J. Seibert, P. Shushkov, S. Spicher, M. Stahn, M. Steiner, T. Strunk,
   J. Stückrath, T. Rose, and J. Unsleber
   
 * started run on 2022/11/03 at 00:49:15.948     

           -------------------------------------------------
          |                Calculation Setup                |
           -------------------------------------------------

          program call               : xtb cluster.xyz --gfn2 --ohess
          hostname                   : cn0272
          coordinate file            : cluster.xyz
          omp threads                :                     1

   ID    Z sym.   atoms
    1    1 H      1, 3, 5, 6, 8, 10-12, 14, 15, 17, 18, 20, 21, 23, 24, 26,
                  27, 29, 30, 32, 33, 35, 36, 38, 39, 41, 42, 44, 45, 47, 48,
                  50, 51, 53, 54, 56, 57, 59, 60, 62, 63, 65, 66, 68, 69, 71,
                  72, 74, 75, 77, 78, 80, 81, 83, 84, 86, 87, 89, 90, 92, 93,
                  95, 96, 98, 99, 101, 102, 104, 105, 107, 108, 110, 111,
                  113, 114, 116, 117, 119, 120, 122, 123, 125, 126, 128, 129,
                  131, 132, 134, 135, 137, 138, 140, 141, 143, 144, 146, 147,
                  149, 150, 152, 153, 155, 156, 158, 159, 161, 162, 164, 165,
                  167, 168, 170, 171, 173, 174, 176, 177, 179, 180, 182, 183,
                  185, 186, 188, 189, 191, 192, 194, 195, 197, 198, 200, 201,
                  203, 204, 206, 207, 209, 210, 212, 213, 215, 216, 218, 219,
                  221, 222, 224, 225, 227, 228, 230, 231, 233, 234, 236, 237,
                  239, 240, 242, 243, 245, 246, 248, 249, 251, 252, 254, 255,
                  257, 258, 260, 261, 263, 264, 266, 267, 269, 270, 272, 273,
                  275, 276, 278, 279, 281, 282, 284, 285, 287, 288, 290, 291,
                  293, 294, 296, 297, 299, 300, 302, 303, 305, 306, 308, 309,
                  311, 312, 314, 315, 317, 318, 320, 321, 323, 324, 326, 327,
                  329, 330, 332, 333, 335, 336, 338, 339, 341, 342, 344, 345,
                  347, 348, 350, 351, 353, 354, 356, 357, 359, 360, 362, 363,
                  365, 366, 368, 369, 371, 372, 374, 375, 377, 378, 380, 381,
                  383, 384, 386, 387, 389, 390, 392, 393, 395, 396, 398, 399,
                  401, 402, 404, 405, 407, 408, 410, 411, 413, 414, 416, 417,
                  419, 420, 422, 423, 425, 426, 428, 429, 431, 432, 434, 435,
                  437, 438, 440, 441, 443, 444, 446, 447, 449, 450, 452, 453,
                  455, 456, 458, 459, 461, 462, 464, 465, 467, 468, 470, 471,
                  473, 474, 476, 477, 479, 480, 482, 483, 485, 486, 488, 489,
                  491, 492, 494, 495, 497, 498, 500, 501, 503, 504, 506, 507,
                  509, 510, 512, 513, 515, 516, 518, 519, 521, 522, 524, 525,
                  527, 528, 530, 531, 533, 534, 536, 537, 539, 540, 542, 543,
                  545, 546, 548, 549, 551, 552, 554, 555, 557, 558, 560, 561,
                  563, 564, 566, 567, 569, 570, 572, 573, 575, 576, 578, 579,
                  581, 582, 584, 585, 587, 588, 590, 591, 593, 594, 596, 597,
                  599, 600, 602, 603, 605, 606, 608, 609, 611, 612
    2    6 C      2, 4
    3    8 O      7, 13, 16, 19, 22, 25, 28, 31, 34, 37, 40, 43, 46, 49, 52,
                  55, 58, 61, 64, 67, 70, 73, 76, 79, 82, 85, 88, 91, 94, 97,
                  100, 103, 106, 109, 112, 115, 118, 121, 124, 127, 130, 133,
                  136, 139, 142, 145, 148, 151, 154, 157, 160, 163, 166, 169,
                  172, 175, 178, 181, 184, 187, 190, 193, 196, 199, 202, 205,
                  208, 211, 214, 217, 220, 223, 226, 229, 232, 235, 238, 241,
                  244, 247, 250, 253, 256, 259, 262, 265, 268, 271, 274, 277,
                  280, 283, 286, 289, 292, 295, 298, 301, 304, 307, 310, 313,
                  316, 319, 322, 325, 328, 331, 334, 337, 340, 343, 346, 349,
                  352, 355, 358, 361, 364, 367, 370, 373, 376, 379, 382, 385,
                  388, 391, 394, 397, 400, 403, 406, 409, 412, 415, 418, 421,
                  424, 427, 430, 433, 436, 439, 442, 445, 448, 451, 454, 457,
                  460, 463, 466, 469, 472, 475, 478, 481, 484, 487, 490, 493,
                  496, 499, 502, 505, 508, 511, 514, 517, 520, 523, 526, 529,
                  532, 535, 538, 541, 544, 547, 550, 553, 556, 559, 562, 565,
                  568, 571, 574, 577, 580, 583, 586, 589, 592, 595, 598, 601,
                  604, 607, 610
    4    7 N      9

molecular fragmentation (1/2 indicates fragments):
111111111111222222222222222222222222222222222222222222222222222222222222
222222222222222222222222222222222222222222222222222222222222222222222222
222222222222222222222222222222222222222222222222222222222222222222222222
222222222222222222222222222222222222222222222222222222222222222222222222
222222222222222222222222222222222222222222222222222222222222222222222222
222222222222222222222222222222222222222222222222222222222222222222222222
222222222222222222222222222222222222222222222222222222222222222222222222
222222222222222222222222222222222222222222222222222222222222222222222222
222222222222222222222222222222222222
# atoms in fragment 1/2:    12   600
 fragment masses (1/2) :       62.09     3603.06
CMA distance (Bohr)    :   3.043
constraining FC (au)   :  0.0500

           -------------------------------------------------
          |                 G F N 2 - x T B                 |
           -------------------------------------------------

        Reference                      10.1021/acs.jctc.8b01176
      * Hamiltonian:
        H0-scaling (s, p, d)           1.850000    2.230000    2.230000
        zeta-weighting                 0.500000
      * Dispersion:
        s8                             2.700000
        a1                             0.520000
        a2                             5.000000
        s9                             5.000000
      * Repulsion:
        kExp                           1.500000    1.000000
        rExp                           1.000000
      * Coulomb:
        alpha                          2.000000
        third order                    shell-resolved
        anisotropic                    true
        a3                             3.000000
        a5                             4.000000
        cn-shift                       1.200000
        cn-exp                         4.000000
        max-rad                        5.000000


          ...................................................
          :                      SETUP                      :
          :.................................................:
          :  # basis functions                1224          :
          :  # atomic orbitals                1224          :
          :  # shells                          816          :
          :  # electrons                      1626          :
          :  max. iterations                   250          :
          :  Hamiltonian                  GFN2-xTB          :
          :  restarted?                      false          :
          :  GBSA solvation                  false          :
          :  PC potential                    false          :
          :  electronic temp.          300.0000000     K    :
          :  accuracy                    1.0000000          :
          :  -> integral cutoff          0.2500000E+02      :
          :  -> integral neglect         0.1000000E-07      :
          :  -> SCF convergence          0.1000000E-05 Eh   :
          :  -> wf. convergence          0.1000000E-03 e    :
          :  Broyden damping             0.4000000          :
          ...................................................

 iter      E             dE          RMSdq      gap      omega  full diag
   1  -1039.6471571 -0.103965E+04  0.406E+00    8.07       0.0  T
   2  -1039.7631800 -0.116023E+00  0.241E+00    8.00       1.0  T
   3  -1039.7880902 -0.249102E-01  0.229E-01    7.67       1.0  T
   4  -1039.7921380 -0.404778E-02  0.925E-02    7.70       1.0  T
   5  -1039.7926696 -0.531652E-03  0.296E-02    7.74       1.0  T
   6  -1039.7926981 -0.284980E-04  0.133E-02    7.75       1.0  T
   7  -1039.7927030 -0.480598E-05  0.194E-03    7.75       2.1  T
   8  -1039.7927035 -0.516321E-06  0.633E-04    7.75       6.4  T
   9  -1039.7927035 -0.181922E-07  0.206E-04    7.75      19.6  T

   *** convergence criteria satisfied after 9 iterations ***

         #    Occupation            Energy/Eh            Energy/eV
      -------------------------------------------------------------
         1        2.0000           -0.7366076             -20.0441
       ...           ...                  ...                  ...
       807        2.0000           -0.4531869             -12.3318
       808        2.0000           -0.4517813             -12.2936
       809        2.0000           -0.4505854             -12.2611
       810        2.0000           -0.4490702             -12.2198
       811        2.0000           -0.4478462             -12.1865
       812        2.0000           -0.4420400             -12.0285
       813        2.0000           -0.4379867             -11.9182 (HOMO)
       814                         -0.1532475              -4.1701 (LUMO)
       815                         -0.1385370              -3.7698
       816                         -0.1293841              -3.5207
       817                         -0.1225240              -3.3340
       818                         -0.1134361              -3.0868
       ...                                ...                  ...
      1224                          0.3738302              10.1724
      -------------------------------------------------------------
                  HL-Gap            0.2847392 Eh            7.7481 eV
             Fermi-level           -0.2956171 Eh           -8.0442 eV

 SCC (total)                   0 d,  0 h,  0 min, 16.963 sec
 SCC setup                      ...        0 min,  0.036 sec (  0.211%)
 Dispersion                     ...        0 min,  0.086 sec (  0.509%)
 classical contributions        ...        0 min,  0.021 sec (  0.122%)
 integral evaluation            ...        0 min,  0.713 sec (  4.200%)
 iterations                     ...        0 min,  6.329 sec ( 37.314%)
 molecular gradient             ...        0 min,  9.707 sec ( 57.223%)
 printout                       ...        0 min,  0.071 sec (  0.420%)

         :::::::::::::::::::::::::::::::::::::::::::::::::::::
         ::                     SUMMARY                     ::
         :::::::::::::::::::::::::::::::::::::::::::::::::::::
         :: total energy           -1033.453354032832 Eh    ::
         :: gradient norm              0.000506253565 Eh/a0 ::
         :: HOMO-LUMO gap              7.748148981681 eV    ::
         ::.................................................::
         :: SCC energy             -1039.792703487468 Eh    ::
         :: -> isotropic ES            5.739084925941 Eh    ::
         :: -> anisotropic ES         -1.310302869151 Eh    ::
         :: -> anisotropic XC         -0.098128224838 Eh    ::
         :: -> dispersion             -0.633728373578 Eh    ::
         :: repulsion energy           6.217783882958 Eh    ::
         :: add. restraining           0.000000000000 Eh    ::
         :: total charge               1.000000000000 e     ::
         :::::::::::::::::::::::::::::::::::::::::::::::::::::

      ----------------------------------------------------------- 
     |                       L-ANC optimizer                     |
      ----------------------------------------------------------- 
          low memory version by Sebastian Ehlert

          ...................................................
          :                      SETUP                      :
          :.................................................:
          :   energy convergence        0.5000000E-05 Eh    :
          :   grad. convergence         0.1000000E-02 Eh/a0 :
          :   optimization log               true           :
          :   writing optlog all                1     steps :
          :   Hessian reset                    20     steps :
          :   maximium step len.        1.0000000     a0    :
          :   LBFGS images                     20           :
          ...................................................
 * calculating model hessian...
Using Lindh-Hessian (1995)
 Shifting diagonal of input Hessian by   1.196594186127186E-002
 Lowest  eigenvalues of input Hessian
    0.010000    0.011949    0.000000    0.000000    0.000000    0.000000
    0.000000    0.000000    0.011971    0.011990    0.012061    0.012070
    0.012093    0.012108    0.012117    0.012143    0.012159    0.012174
 Highest eigenvalues
    1.447946    1.448134    1.448361    1.451258    1.457766    1.484793
 

........................................................................
.............................. CYCLE    1 ..............................
........................................................................
   1  -1039.7926145 -0.103979E+04  0.212E-03    7.75       0.0  T
   2  -1039.7926145 -0.558080E-07  0.130E-03    7.75       3.1  T
   3  -1039.7926146 -0.199868E-07  0.132E-04    7.75      30.5  T
   4  -1039.7926146 -0.147793E-08  0.365E-05    7.75     110.8  T
     SCC iter.                  ...        0 min,  2.352 sec
     gradient                   ...        0 min,  9.549 sec
 * total energy  : -1033.4533515 Eh     change        0.2493353E-05 Eh
   gradient norm :     0.0008412 Eh/a0  converged?    E=F G=T D=F
   step length   :     0.0253023 a0

........................................................................
.............................. CYCLE    2 ..............................
........................................................................
   1  -1039.7926702 -0.103979E+04  0.135E-03    7.75       0.0  T
   2  -1039.7926702 -0.229261E-07  0.824E-04    7.75       4.9  T
   3  -1039.7926702 -0.838463E-08  0.839E-05    7.75      48.2  T
     SCC iter.                  ...        0 min,  1.815 sec
     gradient                   ...        0 min,  9.512 sec
 * total energy  : -1033.4533562 Eh     change       -0.4617363E-05 Eh
   gradient norm :     0.0001862 Eh/a0  converged?    E=T G=T D=F
   step length   :     0.0154540 a0

   *** GEOMETRY OPTIMIZATION CONVERGED AFTER 2 CYCLES ***

------------------------------------------------------------------------
 total energy gain   :        -0.0000021 Eh       -0.0013 kcal/mol
 total RMSD          :         0.0006024 a0        0.0003 Å
 total power (kW/mol):        -0.0027883 (step)   -0.0002 (real)
------------------------------------------------------------------------

 L-ANCopt (total)              0 d,  0 h,  0 min, 31.286 sec
 setup                          ...        0 min,  0.021 sec (  0.068%)
 model hessian                  ...        0 min,  4.644 sec ( 14.843%)
 ANC generation                 ...        0 min,  1.555 sec (  4.971%)
 coordinate transformation      ...        0 min,  0.013 sec (  0.041%)
 Rational function              ...        0 min,  0.003 sec (  0.008%)
 singlepoint calculation        ...        0 min, 25.029 sec ( 80.000%)
 optimization log               ...        0 min,  0.017 sec (  0.054%)
 hessian update                 ...        0 min,  0.000 sec (  0.000%)

================
 final structure:
================
612
 xtb: 6.5.1 (579679a)
H           -1.21243124546890        0.09150982833063       -1.33030734058363
C           -0.55804673327360        0.67730049692431       -0.68742430056656
H            0.44263831807633        0.25179888840306       -0.72685709006722
C           -1.03401007181514        0.62088843397097        0.75098063423539
H           -0.45881655016034        1.32563356671696        1.34055705447586
H           -0.83865073000165       -0.38500082659049        1.09625345158221
O           -0.51248164561815        2.01742912760641       -1.15451076241697
H           -0.04146392761240        1.99775541435030       -2.02217942834063
N           -2.47659594641958        0.89931369298034        0.90828972905206
H           -2.98298220812984       -0.00927856722210        1.00274687296098
H           -2.84605068804454        1.38048141665278        0.05991714044284
H           -2.65644913593052        1.42308767429167        1.78901435773873
O            3.74472700168949        4.63934396217103        3.62862019843779
H            2.88405789501261        4.37823478948943        3.21976469270463
H            4.35596837533630        4.38296683770432        2.89921803467801
O            3.47232461131985        3.58221973063646       -3.52276161336088
H            3.04019066282010        3.75931013400105       -4.37425918303533
H            3.93277050205647        2.73650962755889       -3.56437968298557
O            7.58548471626852        2.31201904425610       -0.49120601678084
H            7.45420981926710        1.87063931932322        0.36880937759402
H            6.74074618746563        2.77097785511738       -0.69998086174283
O           -0.63696183630646        2.94123528567479        3.13836790479226
H           -0.84537593468124        2.00993041671431        3.31998059901469
H            0.06952704649676        3.14307887851505        3.78278062275099
O           -6.21443429153487        2.58648705971344       -0.16845936340044
H           -6.93351329625187        2.52728490094116       -0.81741524044742
H           -5.88395502099406        1.67154986654144       -0.13311683746971
O           -3.55037845183318       -4.24900030717149       -5.29609275758614
H           -3.60615149434228       -3.47824832459322       -5.88066105586042
H           -2.62047396457306       -4.51854179262945       -5.19578349105922
O            3.27279557803652        1.92439334460898        3.69852324477339
H            2.78102777759229        1.71432284915532        2.87870352770991
H            3.21579132918714        1.15421136665839        4.28650709954873
O            8.35275439900965        5.59411108968029       -2.28752739402790
H            8.46919264469245        5.46157215218053       -1.33294895461407
H            8.76644682028439        4.81694670357984       -2.69394517634885
O            1.45478361352003       -1.16669752369862        1.57580351587387
H            1.43004626163683       -0.20025429968365        1.60336714308684
H            2.17465865384948       -1.42247283669944        2.19953755365796
O           -4.41117017876633       -3.36399543951062       -2.92601967993568
H           -4.04561891692111       -3.70167375557342       -3.76717086363083
H           -4.84834901307525       -4.12147265654367       -2.48946603566202
O            0.08277547129501        4.88183027507229       -2.31004933213798
H            0.75198564819276        4.24683041974652       -1.96767826572080
H            0.13281461577082        5.65674835086874       -1.71650585326369
O            5.28027887076915        3.52210186893794       -1.07825851597972
H            5.45855473391352        4.17614685727246       -1.78891857822698
H            4.99491595733629        2.72706748363365       -1.56139041974753
O           -5.28541348356969        0.48532567656117        2.29161972640589
H           -4.75042647984398       -0.25730423731856        2.60615196642474
H           -5.58813556455856        0.22209267085202        1.41037023804952
O            1.66898754399262        0.05913571386711        4.92206597236886
H            1.53329353266360       -0.24792164423866        5.83267555203358
H            0.78956528355607        0.20071632279306        4.51920883942691
O            1.23559963980569        3.06015219255031        4.99248988745294
H            1.52836477390999        3.86120457571172        5.46208816941307
H            2.02237891175417        2.65568619110822        4.56006888090764
O            4.52791607217492        1.12049982512829        1.11586920746570
H            5.33429097034679        0.79779734345935        0.64884827110411
H            4.56870948856037        0.64670073784871        1.96249684094689
O           -3.18081492831308       -6.38920851666589        3.93568287725663
H           -2.48335505991711       -6.10551419774459        4.55074399719730
H           -3.54173464768113       -5.55855344605766        3.56465134806112
O           -0.77632936861225       -2.17242093108098        2.65190519260211
H            0.04362798731926       -1.87259169898447        2.19783806458444
H           -0.91230088894309       -3.09052827207227        2.36425955815449
O           -0.80572929893767        0.28775055595148        3.88470225656609
H           -1.28582015187150        0.24531037538178        4.73732356143379
H           -0.98395248446730       -0.54111821706371        3.42664254657934
O           -1.78947140206051        0.17543526159873        6.34631985766641
H           -1.14363970116650        0.84649277578602        6.65287195185297
H           -2.68007419986118        0.54968894389105        6.50807906887801
O            6.77918733848057        3.20587522598383        6.76416537963012
H            7.00210410208549        4.13925379148503        6.73839985808738
H            5.81839256061822        3.18173747058625        6.61299308485495
O           -3.35998229840453        4.31818990476502       -0.09909168479894
H           -2.48551368996618        4.20024397955352        0.32557035684650
H           -3.22731228265533        3.99481552218626       -1.00794747367016
O           -5.55833169654368        1.96231308494331        4.64895612045954
H           -6.46794262605305        2.27852478778241        4.79594269560234
H           -5.57716739847548        1.39525106438292        3.85748350853927
O           -1.25902805986634       -2.18979586541349       -0.28126510436008
H           -1.48217790998529       -2.88214434151012        0.35347816883692
H           -0.58307471821976       -2.59409759237591       -0.83706072005532
O            2.11604658015242       -1.78540412077752       -0.99214258483045
H            1.89705928222110       -1.63680469332347       -0.05437511906851
H            2.26285875414375       -2.73441041568118       -1.12934578339148
O           10.40915536702151        1.99401973700157       -0.86946017759426
H           11.22462456643774        1.49017748354709       -1.11413233449267
H            9.83488008861628        1.32647101553968       -0.43484222626090
O           -3.08392795264198        1.83108224238306        3.39383900318841
H           -3.91119714322094        2.25353289807587        3.11779777641888
H           -3.32053777875251        0.95670880399728        3.75873550289914
O            2.68059843073944        1.00570550956330       -0.88268488997361
H            3.52415518704180        0.94748916200379       -0.40888989859657
H            2.81322807846925        0.70102811415381       -1.79948570256691
O           -1.06137348568132       -2.14040153320461        7.36394934794051
H           -1.40469471292657       -1.29965390524091        6.97544468873665
H           -1.83449489794400       -2.58551651000602        7.71763891899687
O           -2.40529948210164       -2.91743319933586        4.87264512558880
H           -2.90050807242459       -2.83252379863262        5.71364860788314
H           -1.82239389661237       -3.68782178205285        4.99222234892690
O           -1.37939027165622       -0.94765102511970       -7.40582421339682
H           -2.20025997157200       -0.53343897833856       -7.70853890666099
H           -0.65195508246331       -0.46091768137200       -7.81226747115847
O            3.88198723972051        6.77918502627386       -2.33639681192112
H            3.10172602455906        6.66855357905859       -2.90410757879265
H            3.63574919422676        6.45841891833034       -1.45802169461931
O            0.58533505971289        0.93967576031540       -7.38226319795766
H            1.36950939524379        1.53602366663447       -7.48462765119213
H            0.76352582643275        0.41091260771520       -6.57614509692460
O            4.68064026912856       -1.38146389598764       -1.65662375442471
H            3.72349794787146       -1.38693495721687       -1.44252397018956
H            5.02091565991543       -2.24158804466516       -1.35649953859771
O           -1.83920374995857       -4.35017017536021        1.37083274578857
H           -1.69695591971115       -5.31526074842682        1.45989241121103
H           -2.69416230871865       -4.19310431061604        1.82658144740680
O          -10.59028890219256       -1.47776689781281       -0.79056694690697
H          -11.08449779141887       -0.89088571065723       -1.38528365683697
H          -10.81177737713577       -1.19189748688004        0.10818524231544
O           -7.67174420422576       -1.90688549161004        1.17512260004198
H           -7.00210227890300       -2.05937171455896        1.86656183396899
H           -7.28132015384848       -2.19151589401732        0.31952966201393
O           -3.43068216175162       -1.49231979435429        1.63377073491735
H           -2.62303615668119       -1.84702369567360        2.02166410482506
H           -3.86180981910230       -2.20006707260089        1.12005558733598
O            0.50730433302127        1.77765186711278       -3.58710874555208
H            1.34556625328770        1.27986391020842       -3.55044219952533
H           -0.12790806811302        1.17107073056364       -4.01169738048734
O           -1.41114478236923        7.52616367312877       -2.81307653987564
H           -2.04983116394352        7.38600410531415       -2.09738976962734
H           -1.68173810582754        6.91325881133538       -3.51658077415800
O           -7.51464232749515       -0.07447724024905        3.99025932810777
H           -7.52323310692717        0.71537500600794        3.43042087567534
H           -8.41635230149773       -0.44798909102798        3.94997136227233
O            7.23974717272665        0.72156279349819        5.54135789710835
H            7.36741441871950        1.23810309746909        6.34205427892898
H            6.76279567199502        1.33774015775180        4.93661652088831
O           -2.61059323596353       -4.51528237119439       -1.27624593617905
H           -2.11461570558927       -4.58749663579739       -0.44607797117219
H           -2.62104780230154       -5.39778820278431       -1.68833795668605
O            1.66781487154566        1.64564026095238        1.60289287215570
H            1.54286299010305        2.60728589150233        1.71505364115786
H            2.05397547277431        1.51997739403476        0.72617208600712
O            5.07265551839520        3.68690031478379        1.55624105283023
H            5.03374610635425        3.97190530432550        0.62865324830525
H            4.85320675925410        2.72804738168852        1.50266924607840
O            0.80670332154571       -6.68467826357937        4.39020912701959
H            0.68773191552377       -6.85199894008367        3.43620714733036
H            1.73887882346741       -6.45522221597594        4.49009618694892
O           -5.95035032505954       -6.21351222761391        3.98846748209641
H           -5.92002078119838       -5.99205307966499        3.03132426071111
H           -5.14593414720655       -6.72023444038502        4.15149284842946
O            3.01511724171563       -5.62598359477771       -4.47687973968711
H            2.26185936627523       -5.06737951568306       -4.15465370692267
H            3.25345048186339       -5.20778674792809       -5.31104285555155
O            2.70763262783219        2.45107386165997       -7.43175100928018
H            2.49981990430722        3.31647305859760       -7.05115751208051
H            3.29687744037754        2.03739248020661       -6.76319435233666
O            2.09062915402580        3.52941872303062       -1.36479433331349
H            2.64381450302879        3.63080437060608       -2.18145519559426
H            2.21780422450249        2.59230467618394       -1.11395879960301
O            3.18346263388648       -2.39246022616050       -4.02631738055225
H            2.56886506079639       -2.78531963128647       -4.67204767802912
H            3.12555140959761       -2.96618072780903       -3.24312786138491
O           -3.31288149077599        2.28356784190014       -4.58456891241692
H           -2.58151404483417        1.69362001437961       -4.85907090317185
H           -2.97040310913835        2.80306248042518       -3.83302450332776
O           -0.58317089220804       -3.04291101180317       -5.87920014535615
H           -1.12990747269574       -2.47148192328189       -6.43642859159052
H           -0.94428591491611       -3.04036220709619       -4.97443306553015
O            6.22425470328029        5.16655022213272        4.85482227702107
H            5.32913146293993        5.36517667828619        4.56803382365601
H            6.78532043504098        5.24975978582002        4.06512896556278
O           -2.46387973522619        5.53524272748011       -4.49516021113007
H           -2.70118498350023        4.98197123359984       -3.73649603579088
H           -1.65155872375888        5.10497692037062       -4.82430481840224
O            5.41864082061330       -0.29458427901435        3.25672158433100
H            6.25154786949832        0.06850713499135        2.90835353986321
H            5.28459791796187        0.07298543667602        4.14392671898951
O           -2.08626622572570        2.92624019333690        5.70743581561979
H           -2.86915205589044        2.87691295901786        6.26029883749639
H           -2.34454294244258        2.56663835747981        4.83465199560325
O            4.02632446687811        3.35320300495318        6.15872513555479
H            3.45444247535576        3.90415047223659        6.69841952863277
H            3.94372740558295        3.69669200259269        5.24987277598293
O            0.37447449027569       -1.08002774548252       -2.97298770169361
H            1.04267654752289       -1.30139270420494       -2.30566913615105
H           -0.23460810893832       -1.83410952739960       -3.03559694126553
O           -1.40379709339391        0.45575376299581       -4.97317290982436
H           -1.98179861632491       -0.15215031358875       -4.46724138664827
H           -1.27327903395159        0.02148553485171       -5.83131514474144
O           -2.21864935038294        3.65982742019958       -2.48756862882145
H           -2.01139764815543        2.81000539154807       -2.06061142599756
H           -1.36389109600689        4.15191962476862       -2.46066975877742
O            0.34087053504040       -4.32709473044499       -0.99247768057431
H           -0.08049486068357       -5.19753735780229       -1.07234939770282
H            1.10413307022105       -4.51038431094744       -0.41400201030123
O            7.79653627999025       -4.63672517168251        2.99057343613511
H            8.11843885985554       -4.00867189089228        3.69119594682062
H            8.32074942753631       -5.42920359079994        3.10312834672212
O            3.27256139777506       -8.02171739648510        1.99450354745146
H            3.80061033042055       -7.83467206573475        1.20999512575335
H            3.51868852646450       -7.36256285835250        2.65559836391161
O           -6.64530736589145        5.01714612277397        3.49870351822501
H           -6.01687811324589        4.43672468076810        3.00658848514701
H           -7.14909196984100        4.42359647542042        4.08306922428475
O            8.76832266651407        3.22012380909903        4.50686451861498
H            8.17938135360791        3.17663710583970        5.26775021530908
H            8.31818383234978        3.75320111172982        3.82505336288778
O            9.32226878450896        3.10434764395885       -3.04736908920206
H            9.96132265668219        2.70181665545546       -3.64336574611529
H            9.58270963357186        2.76154769449047       -2.16397773065167
O            8.82078221466250        4.57080880904296        0.26499831104577
H            9.71496612323676        4.38369314441340        0.57759690786195
H            8.46480004630134        3.71256004540097       -0.06697752690918
O           -3.59649375706757       -1.30104730694308       -1.30134990500657
H           -3.84626359235601       -2.02759683466992       -1.89384099994668
H           -2.74539949843648       -1.57579770189280       -0.90370265784766
O            4.29668726092149        1.56097402623180       -5.48620904778328
H            4.81038328858679        2.38890252061559       -5.42915356187930
H            4.90266128721163        0.87578551749241       -5.84631696114386
O           -3.76473946738275       -0.57517206904196        4.35689309161501
H           -4.49964546150247       -0.73224547640533        4.96643078522125
H           -3.16738048007517       -1.32785088692573        4.42128793035945
O           -8.24940023253359       -0.58250400090262       -1.85460192999455
H           -9.02653994030105       -0.84458494717803       -1.32944270558792
H           -8.35788504166095       -1.02108488858549       -2.71701857444929
O           -7.30229434727941        1.15864658219704       -5.70302312702855
H           -6.99016849736892        1.96164020942681       -5.23563742775021
H           -8.22962685253271        1.05617919511520       -5.46480239870389
O            8.81080853756168       -4.07613430131313        0.39671389004874
H            8.41487204305330       -3.34943396892318       -0.14061793562258
H            8.46802693292579       -3.98295680436865        1.30037646361439
O            7.68518362563239       -2.35722013725848       -1.30300441155794
H            7.37800321377521       -2.90807933212141       -2.04290205428725
H            7.88363305713187       -1.48373837956936       -1.67844821825926
O           -4.20373855744076        1.24500258047400        6.82977617423618
H           -4.66613179092473        1.47543586889361        5.99499253019351
H           -4.79087167398862        0.62455152068375        7.26552190602979
O            1.64763125893382        4.30036116055488        2.10289654169747
H            1.01585505489792        4.88757299923638        2.55423957911044
H            2.04422974157193        4.82097235028684        1.36536998478676
O           -8.33323517613543        4.54517928743113        1.43481124210275
H           -7.75047277471165        4.60930837038220        0.66750256027209
H           -7.86811412193136        5.00087924570190        2.15966446373171
O           -2.73229251709471        4.67939344582889        3.17666101251515
H           -1.96536879817793        4.07310311685456        3.19116545949265
H           -3.18070338974856        4.60105898009706        4.04020393341264
O            2.75130185562076        6.92856752372720        4.46122695329363
H            3.21017694429525        6.14133985546055        4.07437821667795
H            3.25979224363461        7.70203283080119        4.22116950219696
O            0.42125590126754       -2.74061988219252        5.10285203327404
H           -0.07986287634650       -2.62356357249877        5.92442388764543
H           -0.13362516426019       -2.37813868593767        4.39173713662618
O            6.55357400893611       -2.30708294434264        1.53055054984808
H            7.49869517777694       -2.20852643935994        1.80953056313854
H            6.04691509158421       -2.44914669583504        2.34914973931759
O           -4.23096758389604       -1.78996910132379       -6.39148375006817
H           -5.21326975517620       -1.81930733852376       -6.37213478464301
H           -4.01068389016322       -0.96541091127713       -6.86340398159324
O          -10.00824221268013        1.89749004568806        4.25004889661138
H          -10.11089046732092        0.93707555169486        4.25869169526696
H          -10.30215059039982        2.21778657832410        3.37964152149079
O            2.81250122665979        0.30055326163746       -3.53445601811095
H            3.36882245600503        0.74346958047554       -4.19817036838321
H            2.90775403955343       -0.65655133174049       -3.69162469958007
O           -1.52735269842158        2.44728541249712       -7.12721821794765
H           -1.59087232728580        2.99541164056422       -7.90855274979307
H           -0.72332571810271        1.86753354108077       -7.24037501513235
O            6.25706092977482       -1.79000212543702        5.85286740370103
H            5.59932521770954       -1.79050929558810        6.55739805634712
H            6.55382435779378       -0.86291247760131        5.74758708049571
O            3.81447943244546       -1.63340365284633        7.24323698334287
H            2.97767165221421       -1.30696923326982        7.60242632591007
H            3.57114531707652       -2.40323904088223        6.68542156299935
O            2.13770651478732       -3.67803448785606       -6.25007791553751
H            1.17301656794570       -3.62014916845288       -6.20986844615054
H            2.45376831319658       -2.99965457387671       -6.85780969809011
O            5.64794709787234        3.92429913634781       -5.39277007534177
H            5.64557083936073        4.38589977653605       -4.51288119274965
H            5.33713712532210        4.56215243305019       -6.03377264655219
O            3.16646120611167       -4.10551884439987       -1.85750441541636
H            4.03127694363750       -4.16024448093193       -1.43020477870258
H            2.81107087011059       -5.00198554882178       -1.93388967161542
O            5.36562502802828       -3.22866464386070        3.76716923664049
H            5.59985779780840       -2.62485024321753        4.50142489439541
H            6.03148517827254       -3.92228959170059        3.78446194845090
O           -0.11437304059880       -7.01649356086902       -0.94254663762164
H            0.73394481413937       -7.06293774038175       -1.41751278258547
H            0.08861067014175       -7.21783008460023       -0.01426195676498
O            3.09129837604145       -1.62921681531896        3.56543205963951
H            2.58218590576038       -1.00148980687444        4.13697262135379
H            3.96679334320110       -1.24062576368629        3.41847378640098
O            9.21801549453209       -0.17198561146538        0.16230912775492
H            9.59585683812618       -0.67371134633574       -0.58662587665444
H            8.25334249374672       -0.12056866260463        0.02386310611769
O           -7.90996040175673        3.18671545375246        5.12613634726499
H           -8.18994654076846        3.45185575979756        6.00122320005266
H           -8.67079612096481        2.68102367973216        4.73745858025958
O           -3.95878400592300       -2.67336323145898        7.02498807376043
H           -4.46277104222884       -1.85292734556734        6.97376506664401
H           -4.54983547573589       -3.33472936505452        6.61573999952700
O           -9.10282079277551        3.49098122679597       -4.03164735176245
H           -9.23487980813133        4.09560718677869       -3.28709992787428
H           -8.24408251141249        3.72412638232845       -4.42746247079276
O           -1.58508382443164       -2.91682230450618       -3.29431977464292
H           -2.28735831613690       -2.26183092515809       -3.43567794972589
H           -1.90551160504644       -3.50566635600690       -2.58862311351961
O            1.75938125734387        5.26461358571818        6.45184466658715
H            0.80772783576630        5.43872999284967        6.47574556572719
H            2.15298487152058        5.97797345940952        5.92752539137418
O           -9.10862414376444        4.69920508998640       -1.56200384107677
H           -9.67538061660420        5.34482027294602       -1.13993558268594
H           -8.18418237757472        4.95016968120895       -1.33151171633922
O           -4.63992071580117       -3.53280178308563        0.25843318938190
H           -3.97482422276625       -3.88741587303000       -0.36266932403008
H           -5.40803432982687       -3.28903064097918       -0.29025657314138
O           -7.58990808751196        1.90304868789757       -2.35775533263490
H           -7.93085781031250        0.99730437581204       -2.18747459450549
H           -8.19362440737292        2.33381966171026       -2.98225744262523
O           -0.99404848121725        5.32607347863727        5.81759875395748
H           -1.33211146210062        4.39855194376548        5.73533424848789
H           -1.76660129753938        5.86967818275560        5.97441363561587
O            5.37292141970210       -5.52754700572523        1.82097793144630
H            4.75354521526871       -5.51857281824619        2.57194230581497
H            6.23520710910305       -5.23343691610844        2.13485422102759
O            5.47832223533419       -3.72061195382568       -0.44731685911950
H            6.02862860926436       -3.20118695504750        0.18027505317928
H            6.02734243377770       -4.50399404236461       -0.65350379725210
O           -8.36407281390527       -4.79879249613611        4.18405035488844
H           -7.69129653105977       -5.48833973599413        4.20475020272394
H           -8.53041774306204       -4.60928939507623        3.23701138583330
O            0.57070974315510        7.16906485050202       -0.98722014661398
H            0.01770861588379        7.59410857485730       -1.66226944601525
H            0.04126005556928        7.16597057592324       -0.16485574700284
O           -9.27424708091690       -3.57786039345011       -2.02193165606115
H           -9.26334470813890       -3.15815325116107       -2.89431169339346
H           -9.85234897063805       -3.01470164685615       -1.48262542417441
O          -11.55864444969946        0.66694578863840       -2.22236910435973
H          -12.45563382875972        0.99838941903679       -2.23396520594376
H          -11.02322061271371        1.29548226008459       -1.68023366066302
O          -10.05314674641283       -0.92966507906616        3.85697518070662
H          -10.40517408670948       -0.64250201320022        2.98849273764076
H          -10.37285855988874       -1.85341463819336        3.92359040319905
O           -8.10484710530999       -2.59876783989614        5.71888155636328
H           -8.82994540716536       -1.98947972920458        5.56646976215105
H           -8.26955549415830       -3.36130443412809        5.12536277876107
O           -3.90487503461671       -3.96651789353011        2.98913158553688
H           -3.39088180946885       -3.51767850131231        3.69832430630703
H           -4.68988260428775       -3.41727689302739        2.85552931994862
O           -6.85364517884164       -1.55666550458603       -5.95239327408409
H           -6.97673827237326       -0.60340088813026       -6.08530769617630
H           -6.64159871740272       -1.64113851543611       -4.99216664129196
O            8.31474180104105       -0.11905954034007       -5.55710746647205
H            7.66711786233138       -0.37736403833786       -6.21910940161273
H            7.89294514261357        0.62498534527123       -5.07779622283950
O           -1.32078565228793       -5.65006249003871       -4.52746873353993
H           -1.76443692962977       -6.12789555143999       -3.80654773699910
H           -1.04431394038886       -6.30328702107441       -5.16906883486851
O           -6.07204287624866       -2.27749473222180        3.31842120444791
H           -6.11844118920815       -2.84491994747113        4.10435654511726
H           -6.47162759760963       -1.42588004625245        3.58495071384471
O           10.29445256674752        0.65367492833156       -3.80167870315838
H           10.81431206643959       -0.05073676298151       -3.40582609120956
H            9.92552697215391        0.30951937652379       -4.62458323802737
O           -2.37138568839757       -6.98052277651680       -2.35226180463164
H           -1.55052680484836       -7.15713728604580       -1.85129578088294
H           -3.08126900629632       -7.40910089428398       -1.86146432692084
O           -5.69407956103776        2.17144634183093       -7.77043271823659
H           -5.35152115531632        2.98284014508035       -7.37409428668290
H           -6.36420419655317        1.82014404807541       -7.16416755845468
O            1.56351413193760        6.48914794393724       -3.90751997554149
H            1.05912256673946        7.30321614519448       -3.90823724284956
H            1.00525318180872        5.82950338976430       -3.43984282445151
O            2.30321926575987       -5.31375296939049        0.54329598963394
H            2.75598428724058       -4.55665537472891        0.97302077005720
H            3.00897156658501       -5.87548420031932        0.18624166583840
O           -0.84349092410762        3.98204846986609        0.66168973960212
H           -0.65295012972899        3.59911359032306        1.53772635392015
H           -0.55511928637323        3.33358054313229       -0.00833403277021
O            3.09550557760995       -1.16938259590765       -7.15282238473706
H            2.92011710208156       -0.51187014728925       -7.82763919005806
H            2.45954895466367       -0.98966571259931       -6.42248580779984
O           -6.49111627281656        3.52488953053386       -4.66282647079336
H           -5.82740625610179        3.88525217139804       -5.28107207346046
H           -6.02942301961955        3.47200944497450       -3.79793763924527
O          -10.91616590029483        0.03898337225705        1.50736867521230
H          -10.01096696913383        0.30785537867908        1.19214507048611
H          -11.40065147116858        0.85374378875200        1.65474480465253
O            7.97599567160645        0.21205881697157       -2.34145042875323
H            8.80224250787921        0.42496677111324       -2.80994049146855
H            7.78389862119994        0.96779639435730       -1.75548796717598
O           -3.30943637420862        7.08290279373845        2.06145585776824
H           -3.19766121960922        6.25701372025173        2.56176316389882
H           -2.43694076368327        7.18188276040103        1.63864902848726
O           11.87667537754496       -0.40221248468268        1.44738100355570
H           11.13473524947092        0.09239063722482        1.81175944807404
H           11.54152883788753       -1.27605264440068        1.19459067692150
O            1.28898275287685       -4.17845528359859        2.86518280190632
H            1.78271478999920       -3.47303751864145        2.43323178509503
H            0.98075623770020       -3.82407148031022        3.71033948076170
O            9.03132805819796       -1.91224182562700        2.16659991260077
H            9.21350674709865       -1.24950613120587        1.46657997180494
H            9.15019121654540       -1.45023686089764        3.01502078431081
O           -5.52946882329574       -5.59231915418405       -1.93120277237240
H           -4.93649906245992       -6.11288111034024       -1.36430978417220
H           -5.49930113331859       -5.99565693525381       -2.81903858613154
O            5.11948362785044        1.39654354467386       -2.64829013201218
H            5.91787781181092        1.53551705641869       -3.19504269366823
H            5.04811178208261        0.45696521860460       -2.46314955637091
O           -5.98052190104496       -0.84732190740266        6.09109390925274
H           -6.44534812659334       -0.25474118053347        5.47409346131771
H           -6.59983057038977       -1.59253647860622        6.15657478998230
O           10.50922533163593       -1.48877794819802       -1.86991602042945
H            9.99101595049348       -1.89246059216879       -2.60009373557071
H           10.81024458346258       -2.19746888378570       -1.28298517044961
O           11.23602560984864       -2.95085060228217        0.33244784766160
H           11.91052693816916       -3.56609823602998        0.61462533946376
H           10.36333552259936       -3.38089935270524        0.48234262478207
O            4.38833048536969        0.50399698022608        5.67804012784061
H            4.15598040768268       -0.19958225290754        6.31031941032147
H            4.28710042537048        1.35588380198919        6.11431047607883
O            8.48771043276157       -3.14297591963399        5.03405874000662
H            9.08036207389123       -2.39411484051766        4.88794602519964
H            7.70331085646718       -2.75815261240881        5.46061299837025
O           -1.93170161434833       -6.97724231632415        1.67373850873283
H           -2.38669725869023       -6.94568987220513        2.54607819901421
H           -1.03107433205936       -7.29154117994242        1.82334185380030
O          -10.82774591506062       -3.48739969517477        3.68361088455691
H          -10.44666646795061       -4.13175957911977        4.28699420753053
H          -10.46460882841048       -3.71114736907294        2.81293844848943
O           -5.81194747893381       -0.10236220131772       -0.32232807107617
H           -5.05438885389307       -0.61144811865879       -0.66284305790603
H           -6.59204469233413       -0.31899550273581       -0.85204352205018
O           -5.23615980822721       -6.27078923081344       -4.52128857793487
H           -5.96352085011864       -6.33277957571387       -5.13950991498681
H           -4.62719572740170       -5.59646511306065       -4.87224220175663
O            2.11506879968379        4.51649953232463       -5.71862442333267
H            2.18844130360258        5.38899063875566       -5.30631351329888
H            1.18077101747426        4.26677150858256       -5.55739383737280
O            6.86194983474855       -3.96669953193420       -3.35870349508598
H            6.29284327811996       -4.70171732424835       -3.07807711516555
H            6.38025511185334       -3.60844607698477       -4.13367178579674
O           -9.92260755206412        0.89712578107436       -4.43182507156660
H          -10.57194053265822        0.72966997596339       -3.72895209769535
H           -9.80110522676042        1.85936804638624       -4.42936433431711
O          -10.64244425954744        2.96622240763884        1.78577980581273
H          -10.54087020345899        2.68956011691137        0.85441439871289
H          -10.06642224640695        3.73542128101123        1.86287403177430
O           -4.03283942634486       -7.04190198593862       -0.11167580837483
H           -4.71975595582970       -6.74608503595748        0.51376238243584
H           -3.22893557665537       -7.10591512108904        0.42777324824539
O           11.19379417999301        3.36819317068855        1.18186671341449
H           12.14475739725586        3.46514832632234        1.19639156553281
H           10.96538495180366        2.86198261981395        0.35403817553000
O           -4.87238362836247        6.19935708795426       -2.84453681785886
H           -4.28122228101988        6.55396283730458       -2.14041764173093
H           -4.46040896858770        6.42085125562782       -3.68190061177984
O           -8.50140094500069        0.56901174714092        0.67355874039140
H           -8.14617682069271       -0.33261772364384        0.82485872071679
H           -8.05131980214929        1.15800901536692        1.31882612605932
O           -6.23753723362803       -1.60529711705813       -3.40536061318849
H           -5.91032819388690       -0.68722426945503       -3.36701234858703
H           -5.46482358739129       -2.21599965083625       -3.34568635387049
O            0.29824779991515        6.11211105981759        3.56581818482946
H           -0.21933652495568        5.80953924033605        4.33612909387941
H            1.08800967478979        6.56214215663590        3.90589887056001
O            7.20680312700978       -5.73847555818074       -0.92081216728923
H            7.55536756941873       -5.68150574256523       -1.81183607582557
H            7.87536996905678       -5.29537713729516       -0.35457705706440
O           -0.41268015592301        3.84146506397617       -5.10024140281958
H           -0.10029825412341        3.19836412829191       -4.43454839344529
H           -0.86663771972008        3.31923627990127       -5.78826303746547
O            0.78947379471391       -7.14273665318327        1.69165994672756
H            1.57491343428441       -7.72284874375109        1.78133409317888
H            1.18579974030502       -6.28563208247943        1.41098603153321
O           -9.02723088203518       -4.14459621857403        1.65135356731125
H           -8.75222511129423       -4.72103519216214        0.92634019989632
H           -8.63343215134529       -3.26293203469932        1.46422809431918
O            3.02631454882856       -3.50572374293548        5.46226022460912
H            2.06944632611822       -3.38438265544076        5.54704780411603
H            3.26262398318436       -2.90900720492210        4.71696011974566
O            3.37863220619190       -5.61011750607070        3.70759215642960
H            3.56003779899376       -5.01639860764648        4.45555910061808
H            2.63087866911386       -5.16583125462035        3.24214947946615
O            0.94335498340148       -4.21815833132474       -3.62717983922315
H            0.15155021461207       -4.60596899995484       -4.02034368524133
H            0.76787486864067       -4.16183050953903       -2.66971146210726
O            9.11101303960049       -2.31241794027544       -4.00265202747915
H            8.38368857886872       -2.93284931118043       -3.87616631066197
H            8.76387075146426       -1.59309459742915       -4.55928767879777
O           -5.87928315825130        6.75336564618007        1.36448506614723
H           -6.23708489615145        6.43703627544672        2.20004567823084
H           -4.93980761094218        6.94330619217708        1.55419258920667
O           -6.66912028752313        5.42387064078284       -0.80655719816366
H           -6.21721788573338        5.78750827972710       -1.57718543796330
H           -6.35591615551228        5.95561242491814       -0.04199322158177
O            7.41523991929258        1.26186029149069        2.08587759181954
H            7.00968202491908        1.93383779091086        2.65719396751979
H            8.37128188710860        1.27274492036225        2.28197110670754
O           10.00525485706863        1.57192273981095        2.83589597731611
H           10.49273855818392        2.19348602026394        2.26151512228205
H            9.66184742779093        2.14682258016395        3.55135367749463
O           -5.84515660920997       -5.64655585109243        1.37434435382810
H           -6.66891878577013       -5.67926566292507        0.87212764245676
H           -5.37826856385881       -4.82842259349057        1.08673194042064
O            0.17335433316088        1.85864290599090        7.10502816869935
H            0.57317805223808        2.19523414815993        6.26268022356015
H           -0.20473223203366        2.62719522886117        7.53109621771057
O           -4.33368135533557        4.14370407399914       -6.15212494990502
H           -3.80122458242550        4.90176514675485       -5.87948121489466
H           -3.90513700700237        3.38141169436301       -5.69683911384682
O           -7.43692277237233        2.21098808938594        2.41094565564619
H           -7.89214243800106        3.01924793932043        2.10244186903661
H           -6.51482987355931        2.30359663250667        2.13205168418491
O           -9.08994596824507       -1.77137182088327       -4.21097643697119
H           -8.48384274906702       -1.94016842355643       -4.94690176384536
H           -9.52143954863037       -0.93088275958223       -4.41929368728256
O            4.48858488553653       -6.76244551227109       -0.35182762875372
H            4.97401810585694       -6.33810009616037        0.38735091695051
H            5.03459434332370       -6.58135806720598       -1.13136440828953
O            5.85718370181039        5.15936946909075       -3.07455745468481
H            6.75534581240260        5.47151135429306       -2.82156553175374
H            5.20624575340589        5.86729658244691       -2.87889190503074
O            5.16422649600932       -6.09527782716132       -3.01138264361214
H            4.39469936179668       -5.79260720120858       -3.55763183355180
H            5.61282305471900       -6.75602725014759       -3.53727577664780
O          -10.02057249195458        2.24653907226862       -0.75192540362053
H           -9.60614168072735        3.05528576829571       -1.10542134793589
H           -9.30678553051125        1.65026082848670       -0.45143059609622
O            7.20367159445188        2.00276590881423       -4.25540891854256
H            6.83110672792017        2.69772228985507       -4.81359229483276
H            7.92371489815752        2.43010618617841       -3.74197341726092
O            1.27043148323641       -0.62060502073389        7.56381716083938
H            0.52468499407249       -1.22504188392194        7.68195009490880
H            0.92951700559665        0.27996951878494        7.67023764157798
O            6.45450282039169       -0.19128092685010       -0.01613868772168
H            5.95696131314502       -0.55073204223703       -0.76789646494451
H            6.47857792467774       -0.92489259980073        0.63505481214292
O            3.59356385126033       -3.22583482655665        1.46812751726561
H            4.27209384756409       -3.36605815108758        0.78687777639077
H            4.06735884742741       -3.23464293343111        2.31014698212222
O           -5.29504622450718        0.87319532964194       -3.41413076920641
H           -6.06436136580640        1.36653992194212       -3.07069219383757
H           -4.75830991226186        1.49268015045418       -3.94440225433873
O            2.65688423879328        5.66271339730601        0.05199844440735
H            1.98757815425747        6.28426010515281       -0.26750922278908
H            2.55349313637963        4.84684210401427       -0.49255652907074
O           -3.27972958227939        6.83638688286658       -0.84658314204107
H           -3.29463965722176        5.91058204252449       -0.47812377885435
H           -3.53496607847184        7.40898518831405       -0.12024868237975
O           -4.45300824928905        4.42998950454071        5.22082124879167
H           -4.78931146470662        3.53295914484793        5.04220199777026
H           -5.14635982994451        5.02308290851354        4.90873351831317
O           -4.89301332497408        3.53394113008633        2.10830416373184
H           -4.07239074193595        4.04044234880985        2.29245430294870
H           -4.99841689080973        3.54422282040800        1.14648238891717
O            1.06909436590925       -0.88731127908754       -5.47813673335163
H            0.54151647988533       -1.66459480697491       -5.73255858193234
H            0.93312455487752       -0.82952658946077       -4.49849311174701
O            5.92790103501980        2.47581973940344        4.00603541065586
H            4.97334846499456        2.32369495921828        3.87396397376697
H            6.03524050579726        3.35465920505841        4.40261726840574
O           -0.82507112006737        6.62519764617364        1.18112354308131
H           -0.41740282427319        6.61539723407792        2.06328677275679
H           -0.87318173249733        5.68230408293235        0.92466130649900
O           -3.57172272376647        0.61656550534229       -7.46564330218816
H           -4.39359083759938        1.10123158623192       -7.70075548236944
H           -2.94724299988458        1.30881336963664       -7.18640739468638
O           12.43933235526949        0.35990100629710       -1.08955729238758
H           11.95757863693366       -0.37423198929129       -1.49510382347528
H           12.44516828867722        0.14598004526989       -0.13382450304217
O            5.22084108012497       -3.49964598576124       -5.41618949897391
H            5.49709101579660       -2.92513841924947       -6.13067730816772
H            4.50762703899179       -3.02806201271238       -4.93422370195861
O           -3.36497283638182        1.43595001821349       -1.50933096525102
H           -4.07058144814578        1.95503995149864       -1.91726372204825
H           -3.54399301710655        0.49586559098162       -1.66346121650996
O           -5.02637866258993        3.52778213502750       -2.42051908246329
H           -4.87237057203539        4.47996837171201       -2.54603670008184
H           -5.45785872478947        3.43278564719029       -1.55084184546238
O            7.42023726242746        4.57267517651915        2.53095855290029
H            6.59481299360056        4.19216606306940        2.16586057402725
H            7.98566868581239        4.73086475762661        1.74741414125436
O            6.18998773115099       -1.21638667669620       -3.88042159234738
H            5.50020380463878       -1.40273880070510       -3.22618131869095
H            6.85509757443144       -0.65782089497887       -3.44247034464720
O           -6.82760449231291       -2.86011690573119       -1.12656391433397
H           -7.66398853644508       -3.30533219501645       -1.36204719902950
H           -6.65107222247506       -2.28428641455110       -1.89759226606921
O           -3.35325379857766       -1.01642063353330       -4.04240237549142
H           -3.69394949697399       -1.33031730442044       -4.91376761008617
H           -3.96565491501574       -0.33784436175299       -3.73160672764486
O           -7.89994079831879       -5.53602226387810       -0.54998084643666
H           -7.09355662366897       -5.56326817855523       -1.10271277567249
H           -8.58773360614385       -5.18326304690574       -1.12708010823473
O            2.30893228450799       -6.82157427492135       -2.10325669839201
H            3.08876235081010       -7.11307911651091       -1.61476305068988
H            2.53331877211195       -6.78422742050172       -3.04104675086069
O           -5.68781184812205       -4.02756855823035        5.49174048658021
H           -6.53494972335491       -3.97451740099580        5.94060955930546
H           -5.70984864779957       -4.85565973338904        4.95924131964962
O            5.62751991296134       -0.56211270232561       -6.36687592389855
H            5.78107976920269       -0.87106441674122       -5.44379622253348
H            4.76886079797530       -0.91499285821317       -6.66020999697515
O            9.39885657109102       -0.55306179320706        4.46823385389878
H            8.64200278973180       -0.08918019406096        4.87386961170347
H            9.92583428961397        0.13871772921769        4.04565994764203
O           -1.14654829033062       -5.27151607878474        5.40299844471438
H           -1.05776146139883       -5.41713015197985        6.34424576612983
H           -0.38029777349217       -5.74033544603026        4.98369226427399
 
 Bond Distances (Angstroems)
 ---------------------------
H1-C2=1.0884         C2-H1=1.0884         C2-H3=1.0881         C2-C4=1.5162         C2-O7=1.4199         H3-C2=1.0881         
C4-C2=1.5162         C4-H5=1.0840         C4-H6=1.0813         C4-N9=1.4776         H5-C4=1.0840         H6-C4=1.0813         
O7-C2=1.4199         O7-H8=0.9875         H8-O7=0.9875         N9-C4=1.4776         N9-H10=1.0445        N9-H11=1.0430        
N9-H12=1.0404        H10-N9=1.0445        H11-N9=1.0430        H12-N9=1.0404        O13-H14=0.9880       O13-H15=0.9856       
H14-O13=0.9880       H15-O13=0.9856       O16-H17=0.9712       O16-H18=0.9638       H17-O16=0.9712       H18-O16=0.9638       
O19-H20=0.9755       O19-H21=0.9838       H20-O19=0.9755       H21-O19=0.9838       O22-H23=0.9715       O22-H24=0.9773       
H23-O22=0.9715       H24-O22=0.9773       O25-H26=0.9704       O25-H27=0.9734       H26-O25=0.9704       H27-O25=0.9734       
O28-H29=0.9690       O28-H30=0.9734       H29-O28=0.9690       H30-O28=0.9734       O31-H32=0.9788       O31-H33=0.9706       
H32-O31=0.9788       H33-O31=0.9706       O34-H35=0.9707       O34-H36=0.9697       H35-O34=0.9707       H36-O34=0.9697       
O37-H38=0.9672       O37-H39=0.9862       H38-O37=0.9672       H39-O37=0.9862       O40-H41=0.9773       O40-H42=0.9775       
H41-O40=0.9773       H42-O40=0.9775       O43-H44=0.9840       O43-H45=0.9774       H44-O43=0.9840       H45-O43=0.9774       
O46-H47=0.9821       O46-H48=0.9731       H47-O46=0.9821       H48-O46=0.9731       O49-H50=0.9678       O49-H51=0.9683       
H50-O49=0.9678       H51-O49=0.9683       O52-H53=0.9705       O52-H54=0.9776       H53-O52=0.9705       H54-O52=0.9776       
O55-H56=0.9736       O55-H57=0.9847       H56-O55=0.9736       H57-O55=0.9847       O58-H59=0.9861       O58-H60=0.9710       
H59-O58=0.9861       H60-O58=0.9710       O61-H62=0.9722       O61-H63=0.9787       H62-O61=0.9722       H63-O61=0.9787       
O64-H65=0.9841       O64-H66=0.9717       H65-O64=0.9841       H66-O64=0.9717       O67-H68=0.9794       O67-H69=0.9636       
H68-O67=0.9794       H69-O67=0.9636       O70-H71=0.9805       O70-H72=0.9795       H71-O70=0.9805       H72-O70=0.9795       
O73-H74=0.9600       O73-H75=0.9729       H74-O73=0.9600       H75-O73=0.9729       O76-H77=0.9793       O76-H78=0.9738       
H77-O76=0.9793       H78-O76=0.9738       O79-H80=0.9742       O79-H81=0.9738       H80-O79=0.9742       H81-O79=0.9738       
O82-H83=0.9654       O82-H84=0.9640       H83-O82=0.9654       H84-O82=0.9640       O85-H86=0.9744       O85-H87=0.9700       
H86-O85=0.9744       H87-O85=0.9700       O88-H89=0.9893       O88-H90=0.9820       H89-O88=0.9893       H90-O88=0.9820       
O91-H92=0.9690       O91-H93=0.9766       H92-O91=0.9690       H93-O91=0.9766       O94-H95=0.9693       O94-H96=0.9752       
H95-O94=0.9693       H96-O94=0.9752       O97-H98=0.9878       O97-H99=0.9597       H98-O97=0.9878       H99-O97=0.9597       
O100-H101=0.9797     O100-H102=0.9734     H101-O100=0.9797     H102-O100=0.9734     O103-H104=0.9680     O103-H105=0.9650     
H104-O103=0.9680     H105-O103=0.9650     O106-H107=0.9713     O106-H108=0.9670     H107-O106=0.9713     H108-O106=0.9670     
O109-H110=0.9905     O109-H111=0.9804     H110-O109=0.9905     H111-O109=0.9804     O112-H113=0.9808     O112-H114=0.9725     
H113-O112=0.9808     H114-O112=0.9725     O115-H116=0.9796     O115-H117=0.9815     H116-O115=0.9796     H117-O115=0.9815     
O118-H119=0.9708     O118-H120=0.9688     H119-O118=0.9708     H120-O118=0.9688     O121-H122=0.9746     O121-H123=0.9826     
H122-O121=0.9746     H123-O121=0.9826     O124-H125=0.9636     O124-H126=0.9750     H125-O124=0.9636     H126-O124=0.9750     
O127-H128=0.9756     O127-H129=0.9756     H128-O127=0.9756     H129-O127=0.9756     O130-H131=0.9694     O130-H132=0.9715     
H131-O130=0.9694     H132-O130=0.9715     O133-H134=0.9682     O133-H135=0.9768     H134-O133=0.9682     H135-O133=0.9768     
O136-H137=0.9614     O136-H138=0.9863     H137-O136=0.9614     H138-O136=0.9863     O139-H140=0.9697     O139-H141=0.9740     
H140-O139=0.9697     H141-O139=0.9740     O142-H143=0.9762     O142-H144=0.9662     H143-O142=0.9762     H144-O142=0.9662     
O145-H146=0.9712     O145-H147=0.9851     H146-O145=0.9712     H147-O145=0.9851     O148-H149=0.9758     O148-H150=0.9652     
H149-O148=0.9758     H150-O148=0.9652     O151-H152=0.9829     O151-H153=0.9646     H152-O151=0.9829     H153-O151=0.9646     
O154-H155=0.9916     O154-H156=0.9631     H155-O154=0.9916     H156-O154=0.9631     O157-H158=0.9680     O157-H159=0.9825     
H158-O157=0.9680     H159-O157=0.9825     O160-H161=0.9916     O160-H162=0.9784     H161-O160=0.9916     H162-O160=0.9784     
O163-H164=0.9742     O163-H165=0.9726     H164-O163=0.9742     H165-O163=0.9726     O166-H167=0.9789     O166-H168=0.9757     
H167-O166=0.9789     H168-O166=0.9757     O169-H170=0.9674     O169-H171=0.9742     H170-O169=0.9674     H171-O169=0.9742     
O172-H173=0.9607     O172-H174=0.9723     H173-O172=0.9607     H174-O172=0.9723     O175-H176=0.9685     O175-H177=0.9764     
H176-O175=0.9685     H177-O175=0.9764     O178-H179=0.9731     O178-H180=0.9696     H179-O178=0.9731     H180-O178=0.9696     
O181-H182=0.9597     O181-H183=0.9787     H182-O181=0.9597     H183-O181=0.9787     O184-H185=0.9601     O184-H186=0.9751     
H185-O184=0.9601     H186-O184=0.9751     O187-H188=0.9700     O187-H189=0.9714     H188-O187=0.9700     H189-O187=0.9714     
O190-H191=0.9796     O190-H192=0.9706     H191-O190=0.9796     H192-O190=0.9706     O193-H194=0.9734     O193-H195=0.9867     
H194-O193=0.9734     H195-O193=0.9867     O196-H197=0.9704     O196-H198=0.9751     H197-O196=0.9704     H198-O196=0.9751     
O199-H200=0.9945     O199-H201=0.9568     H200-O199=0.9945     H201-O199=0.9568     O202-H203=0.9640     O202-H204=0.9655     
H203-O202=0.9640     H204-O202=0.9655     O205-H206=0.9869     O205-H207=0.9734     H206-O205=0.9869     H207-O205=0.9734     
O208-H209=0.9632     O208-H210=0.9755     H209-O208=0.9632     H210-O208=0.9755     O211-H212=0.9621     O211-H213=0.9827     
H212-O211=0.9621     H213-O211=0.9827     O214-H215=0.9656     O214-H216=0.9867     H215-O214=0.9656     H216-O214=0.9867     
O217-H218=0.9702     O217-H219=0.9788     H218-O217=0.9702     H219-O217=0.9788     O220-H221=0.9760     O220-H222=0.9830     
H221-O220=0.9760     H222-O220=0.9830     O223-H224=0.9676     O223-H225=0.9631     H224-O223=0.9676     H225-O223=0.9631     
O226-H227=0.9739     O226-H228=0.9736     H227-O226=0.9739     H228-O226=0.9736     O229-H230=0.9801     O229-H231=0.9629     
H230-O229=0.9801     H231-O229=0.9629     O232-H233=0.9867     O232-H234=0.9710     H233-O232=0.9867     H234-O232=0.9710     
O235-H236=0.9722     O235-H237=0.9712     H236-O235=0.9722     H237-O235=0.9712     O238-H239=0.9817     O238-H240=0.9589     
H239-O238=0.9817     H240-O238=0.9589     O241-H242=0.9735     O241-H243=0.9860     H242-O241=0.9735     H243-O241=0.9860     
O244-H245=0.9657     O244-H246=0.9744     H245-O244=0.9657     H246-O244=0.9744     O247-H248=0.9777     O247-H249=0.9762     
H248-O247=0.9777     H249-O247=0.9762     O250-H251=0.9899     O250-H252=0.9563     H251-O250=0.9899     H252-O250=0.9563     
O253-H254=0.9694     O253-H255=0.9721     H254-O253=0.9694     H255-O253=0.9721     O256-H257=0.9904     O256-H258=0.9731     
H257-O256=0.9904     H258-O256=0.9731     O259-H260=0.9829     O259-H261=0.9753     H260-O259=0.9829     H261-O259=0.9753     
O262-H263=0.9659     O262-H264=0.9729     H263-O262=0.9659     H264-O262=0.9729     O265-H266=0.9727     O265-H267=0.9746     
H266-O265=0.9727     H267-O265=0.9746     O268-H269=0.9565     O268-H270=0.9977     H269-O268=0.9565     H270-O268=0.9977     
O271-H272=0.9638     O271-H273=0.9791     H272-O271=0.9638     H273-O271=0.9791     O274-H275=0.9674     O274-H276=0.9813     
H275-O274=0.9674     H276-O274=0.9813     O277-H278=0.9673     O277-H279=0.9641     H278-O277=0.9673     H279-O277=0.9641     
O280-H281=0.9936     O280-H282=0.9562     H281-O280=0.9936     H282-O280=0.9562     O283-H284=0.9662     O283-H285=0.9674     
H284-O283=0.9662     H285-O283=0.9674     O286-H287=0.9791     O286-H288=0.9617     H287-O286=0.9791     H288-O286=0.9617     
O289-H290=0.9733     O289-H291=0.9713     H290-O289=0.9733     H291-O289=0.9713     O292-H293=0.9899     O292-H294=0.9691     
H293-O292=0.9899     H294-O292=0.9691     O295-H296=0.9774     O295-H297=0.9759     H296-O295=0.9774     H297-O295=0.9759     
O298-H299=0.9563     O298-H300=0.9928     H299-O298=0.9563     H300-O298=0.9928     O301-H302=0.9642     O301-H303=0.9768     
H302-O301=0.9642     H303-O301=0.9768     O304-H305=0.9682     O304-H306=0.9739     H305-O304=0.9682     H306-O304=0.9739     
O307-H308=0.9707     O307-H309=0.9734     H308-O307=0.9707     H309-O307=0.9734     O310-H311=0.9677     O310-H312=0.9689     
H311-O310=0.9677     H312-O310=0.9689     O313-H314=0.9572     O313-H315=0.9852     H314-O313=0.9572     H315-O313=0.9852     
O316-H317=0.9767     O316-H318=0.9749     H317-O316=0.9767     H318-O316=0.9749     O319-H320=0.9827     O319-H321=0.9696     
H320-O319=0.9827     H321-O319=0.9696     O322-H323=0.9906     O322-H324=0.9576     H323-O322=0.9906     H324-O322=0.9576     
O325-H326=0.9735     O325-H327=0.9636     H326-O325=0.9735     H327-O325=0.9636     O328-H329=0.9831     O328-H330=0.9786     
H329-O328=0.9831     H330-O328=0.9786     O331-H332=0.9636     O331-H333=0.9800     H332-O331=0.9636     H333-O331=0.9800     
O334-H335=0.9707     O334-H336=0.9781     H335-O334=0.9707     H336-O334=0.9781     O337-H338=0.9682     O337-H339=0.9707     
H338-O337=0.9682     H339-O337=0.9707     O340-H341=0.9563     O340-H342=0.9877     H341-O340=0.9563     H342-O340=0.9877     
O343-H344=0.9801     O343-H345=0.9798     H344-O343=0.9801     H345-O343=0.9798     O346-H347=0.9593     O346-H348=0.9802     
H347-O346=0.9593     H348-O346=0.9802     O349-H350=0.9842     O349-H351=0.9673     H350-O349=0.9842     H351-O349=0.9673     
O352-H353=0.9703     O352-H354=0.9870     H353-O352=0.9703     H354-O352=0.9870     O355-H356=0.9614     O355-H357=0.9804     
H356-O355=0.9614     H357-O355=0.9804     O358-H359=0.9720     O358-H360=0.9564     H359-O358=0.9720     H360-O358=0.9564     
O361-H362=0.9705     O361-H363=0.9777     H362-O361=0.9705     H363-O361=0.9777     O364-H365=0.9608     O364-H366=0.9653     
H365-O364=0.9608     H366-O364=0.9653     O367-H368=0.9777     O367-H369=0.9636     H368-O367=0.9777     H369-O367=0.9636     
O370-H371=0.9658     O370-H372=0.9696     H371-O370=0.9658     H372-O370=0.9696     O373-H374=0.9577     O373-H375=0.9826     
H374-O373=0.9577     H375-O373=0.9826     O376-H377=0.9813     O376-H378=0.9701     H377-O376=0.9813     H378-O376=0.9701     
O379-H380=0.9749     O379-H381=0.9760     H380-O379=0.9749     H381-O379=0.9760     O382-H383=0.9584     O382-H384=0.9850     
H383-O382=0.9584     H384-O382=0.9850     O385-H386=0.9760     O385-H387=0.9818     H386-O385=0.9760     H387-O385=0.9818     
O388-H389=0.9955     O388-H390=0.9593     H389-O388=0.9955     H390-O388=0.9593     O391-H392=0.9734     O391-H393=0.9754     
H392-O391=0.9734     H393-O391=0.9754     O394-H395=0.9721     O394-H396=0.9746     H395-O394=0.9721     H396-O394=0.9746     
O397-H398=0.9633     O397-H399=0.9694     H398-O397=0.9633     H399-O397=0.9694     O400-H401=0.9633     O400-H402=0.9669     
H401-O400=0.9633     H402-O400=0.9669     O403-H404=0.9810     O403-H405=0.9733     H404-O403=0.9810     H405-O403=0.9733     
O406-H407=0.9716     O406-H408=0.9756     H407-O406=0.9716     H408-O406=0.9756     O409-H410=0.9776     O409-H411=0.9603     
H410-O409=0.9776     H411-O409=0.9603     O412-H413=0.9736     O412-H414=0.9712     H413-O412=0.9736     H414-O412=0.9712     
O415-H416=0.9822     O415-H417=0.9682     H416-O415=0.9822     H417-O415=0.9682     O418-H419=0.9556     O418-H420=0.9844     
H419-O418=0.9556     H420-O418=0.9844     O421-H422=0.9741     O421-H423=0.9624     H422-O421=0.9741     H423-O421=0.9624     
O424-H425=0.9661     O424-H426=0.9723     H425-O424=0.9661     H426-O424=0.9723     O427-H428=0.9844     O427-H429=0.9656     
H428-O427=0.9844     H429-O427=0.9656     O430-H431=0.9615     O430-H432=0.9695     H431-O430=0.9615     H432-O430=0.9695     
O433-H434=0.9742     O433-H435=0.9675     H434-O433=0.9742     H435-O433=0.9675     O436-H437=0.9566     O436-H438=0.9740     
H437-O436=0.9566     H438-O436=0.9740     O439-H440=0.9678     O439-H441=0.9804     H440-O439=0.9678     H441-O439=0.9804     
O442-H443=0.9710     O442-H444=0.9803     H443-O442=0.9710     H444-O442=0.9803     O445-H446=0.9714     O445-H447=0.9699     
H446-O445=0.9714     H447-O445=0.9699     O448-H449=0.9769     O448-H450=0.9641     H449-O448=0.9769     H450-O448=0.9641     
O451-H452=0.9750     O451-H453=0.9702     H452-O451=0.9750     H453-O451=0.9702     O454-H455=0.9560     O454-H456=0.9969     
H455-O454=0.9560     H456-O454=0.9969     O457-H458=0.9854     O457-H459=0.9591     H458-O457=0.9854     H459-O457=0.9591     
O460-H461=0.9808     O460-H462=0.9828     H461-O460=0.9808     H462-O460=0.9828     O463-H464=0.9754     O463-H465=0.9867     
H464-O463=0.9754     H465-O463=0.9867     O466-H467=0.9761     O466-H468=0.9705     H467-O466=0.9761     H468-O466=0.9705     
O469-H470=0.9585     O469-H471=0.9818     H470-O469=0.9585     H471-O469=0.9818     O472-H473=0.9769     O472-H474=0.9758     
H473-O472=0.9769     H474-O472=0.9758     O475-H476=0.9806     O475-H477=0.9851     H476-O475=0.9806     H477-O475=0.9851     
O478-H479=0.9662     O478-H480=0.9836     H479-O478=0.9662     H480-O478=0.9836     O481-H482=0.9683     O481-H483=0.9836     
H482-O481=0.9683     H483-O481=0.9836     O484-H485=0.9720     O484-H486=0.9865     H485-O484=0.9720     H486-O484=0.9865     
O487-H488=0.9654     O487-H489=0.9750     H488-O487=0.9654     H489-O487=0.9750     O490-H491=0.9643     O490-H492=0.9735     
H491-O490=0.9643     H492-O490=0.9735     O493-H494=0.9624     O493-H495=0.9771     H494-O493=0.9624     H495-O493=0.9771     
O496-H497=0.9645     O496-H498=0.9825     H497-O496=0.9645     H498-O496=0.9825     O499-H500=0.9708     O499-H501=0.9760     
H500-O499=0.9708     H501-O499=0.9760     O502-H503=0.9767     O502-H504=0.9800     H503-O502=0.9767     H504-O502=0.9800     
O505-H506=0.9653     O505-H507=0.9849     H506-O505=0.9653     H507-O505=0.9849     O508-H509=0.9913     O508-H510=0.9566     
H509-O508=0.9913     H510-O508=0.9566     O511-H512=0.9657     O511-H513=0.9859     H512-O511=0.9657     H513-O511=0.9859     
O514-H515=0.9776     O514-H516=0.9678     H515-O514=0.9776     H516-O514=0.9678     O517-H518=0.9682     O517-H519=0.9675     
H518-O517=0.9682     H519-O517=0.9675     O520-H521=0.9809     O520-H522=0.9688     H521-O520=0.9809     H522-O520=0.9688     
O523-H524=0.9839     O523-H525=0.9814     H524-O523=0.9839     H525-O523=0.9814     O526-H527=0.9910     O526-H528=0.9562     
H527-O526=0.9910     H528-O526=0.9562     O529-H530=0.9751     O529-H531=0.9774     H530-O529=0.9751     H531-O529=0.9774     
O532-H533=0.9661     O532-H534=0.9822     H533-O532=0.9661     H534-O532=0.9822     O535-H536=0.9672     O535-H537=0.9688     
H536-O535=0.9672     H537-O535=0.9688     O538-H539=0.9705     O538-H540=0.9812     H539-O538=0.9705     H540-O538=0.9812     
O541-H542=0.9717     O541-H543=0.9662     H542-O541=0.9717     H543-O541=0.9662     O544-H545=0.9763     O544-H546=0.9762     
H545-O544=0.9763     H546-O544=0.9762     O547-H548=0.9677     O547-H549=0.9863     H548-O547=0.9677     H549-O547=0.9863     
O550-H551=0.9965     O550-H552=0.9595     H551-O550=0.9965     H552-O550=0.9595     O553-H554=0.9745     O553-H555=0.9643     
H554-O553=0.9745     H555-O553=0.9643     O556-H557=0.9818     O556-H558=0.9676     H557-O556=0.9818     H558-O556=0.9676     
O559-H560=0.9733     O559-H561=0.9907     H560-O559=0.9733     H561-O559=0.9907     O562-H563=0.9756     O562-H564=0.9701     
H563-O562=0.9756     H564-O562=0.9701     O565-H566=0.9719     O565-H567=0.9783     H566-O565=0.9719     H567-O565=0.9783     
O568-H569=0.9827     O568-H570=0.9732     H569-O568=0.9827     H570-O568=0.9732     O571-H572=0.9672     O571-H573=0.9794     
H572-O571=0.9672     H573-O571=0.9794     O574-H575=0.9575     O574-H576=0.9815     H575-O574=0.9575     H576-O574=0.9815     
O577-H578=0.9663     O577-H579=0.9693     H578-O577=0.9663     H579-O577=0.9693     O580-H581=0.9727     O580-H582=0.9755     
H581-O580=0.9727     H582-O580=0.9755     O583-H584=0.9795     O583-H585=0.9791     H584-O583=0.9795     H585-O583=0.9791     
O586-H587=0.9688     O586-H588=0.9727     H587-O586=0.9688     H588-O586=0.9727     O589-H590=0.9763     O589-H591=0.9784     
H590-O589=0.9763     H591-O589=0.9784     O592-H593=0.9869     O592-H594=0.9655     H593-O592=0.9869     H594-O592=0.9655     
O595-H596=0.9780     O595-H597=0.9646     H596-O595=0.9780     H597-O595=0.9646     O598-H599=0.9653     O598-H600=0.9650     
H599-O598=0.9653     H600-O598=0.9650     O601-H602=0.9602     O601-H603=0.9848     H602-O601=0.9602     H603-O601=0.9848     
O604-H605=0.9854     O604-H606=0.9736     H605-O604=0.9854     H606-O604=0.9736     O607-H608=0.9760     O607-H609=0.9669     
H608-O607=0.9760     H609-O607=0.9669     O610-H611=0.9566     O610-H612=0.9913     H611-O610=0.9566     H612-O610=0.9913     
 C  H  Rav=1.0855 sigma=0.0030  Rmin=1.0813  Rmax=1.0884     4
 C  C  Rav=1.5162 sigma=0.0000  Rmin=1.5162  Rmax=1.5162     1
 N  H  Rav=1.0426 sigma=0.0017  Rmin=1.0404  Rmax=1.0445     3
 N  C  Rav=1.4776 sigma=0.0000  Rmin=1.4776  Rmax=1.4776     1
 O  H  Rav=0.9737 sigma=0.0087  Rmin=0.9556  Rmax=0.9977   401
 O  C  Rav=1.4199 sigma=0.0000  Rmin=1.4199  Rmax=1.4199     1
 
 selected bond angles (degree)
 --------------------
H3-C2-H1=108.73                C4-C2-H1=110.59                C4-C2-H3=107.97                O7-C2-H1=109.45                
O7-C2-H3=109.13                O7-C2-C4=110.93                H5-C4-C2=108.98                H6-C4-C2=106.31                
H6-C4-H5=109.59                N9-C4-C2=113.61                N9-C4-H5=109.73                N9-C4-H6=108.52                
H8-O7-C2=106.59                H10-N9-C4=108.61               H11-N9-C4=110.25               H11-N9-H10=107.65              
H12-N9-C4=110.72               H12-N9-H10=106.12              H12-N9-H11=113.27              
 
 selected dihedral angles (degree)
 ---------------------------------
H5-C4-C2-H1=188.38            H5-C4-C2-H3= 69.54            H5-C4-C2-O7=310.01            H6-C4-C2-H1= 70.35            
H6-C4-C2-H3=311.51            H6-C4-C2-O7=191.98            N9-C4-C2-H1=311.06            N9-C4-C2-H3=192.22            
N9-C4-C2-O7= 72.70            H8-O7-C2-H1=291.96            H8-O7-C2-H3= 50.83            H8-O7-C2-C4=169.67            
H10-N9-C4-C2= 99.45           H10-N9-C4-H5=221.72           H10-N9-C4-H6=341.44           H11-N9-C4-C2=341.73           
H11-N9-C4-H5=103.99           H11-N9-C4-H6=223.72           H12-N9-C4-C2=215.58           H12-N9-C4-H5=337.85           
H12-N9-C4-H6= 97.57           
 
 CMA Distance (Angstroems)
 ---------------------------
R(CMA):  1.6104
           -------------------------------------------------
          |                Final Singlepoint                |
           -------------------------------------------------

          ...................................................
          :                      SETUP                      :
          :.................................................:
          :  # basis functions                1224          :
          :  # atomic orbitals                1224          :
          :  # shells                          816          :
          :  # electrons                      1626          :
          :  max. iterations                   250          :
          :  Hamiltonian                  GFN2-xTB          :
          :  restarted?                      false          :
          :  GBSA solvation                  false          :
          :  PC potential                    false          :
          :  electronic temp.          300.0000000     K    :
          :  accuracy                    1.0000000          :
          :  -> integral cutoff          0.2500000E+02      :
          :  -> integral neglect         0.1000000E-07      :
          :  -> SCF convergence          0.1000000E-05 Eh   :
          :  -> wf. convergence          0.1000000E-03 e    :
          :  Broyden damping             0.4000000          :
          ...................................................

 iter      E             dE          RMSdq      gap      omega  full diag
   1  -1039.7926702 -0.103979E+04  0.227E-05    7.75       0.0  T
   2  -1039.7926702 -0.143245E-10  0.138E-05    7.75     293.6  T
   3  -1039.7926702 -0.250111E-11  0.170E-06    7.75    2381.9  T

   *** convergence criteria satisfied after 3 iterations ***

         #    Occupation            Energy/Eh            Energy/eV
      -------------------------------------------------------------
         1        2.0000           -0.7365280             -20.0419
       ...           ...                  ...                  ...
       807        2.0000           -0.4532140             -12.3326
       808        2.0000           -0.4517905             -12.2938
       809        2.0000           -0.4505838             -12.2610
       810        2.0000           -0.4490991             -12.2206
       811        2.0000           -0.4478320             -12.1861
       812        2.0000           -0.4420038             -12.0275
       813        2.0000           -0.4379678             -11.9177 (HOMO)
       814                         -0.1532572              -4.1703 (LUMO)
       815                         -0.1385716              -3.7707
       816                         -0.1293845              -3.5207
       817                         -0.1225340              -3.3343
       818                         -0.1134475              -3.0871
       ...                                ...                  ...
      1224                          0.3738099              10.1719
      -------------------------------------------------------------
                  HL-Gap            0.2847105 Eh            7.7474 eV
             Fermi-level           -0.2956125 Eh           -8.0440 eV

 SCC (total)                   0 d,  0 h,  0 min, 12.247 sec
 SCC setup                      ...        0 min,  0.032 sec (  0.263%)
 Dispersion                     ...        0 min,  0.081 sec (  0.659%)
 classical contributions        ...        0 min,  0.021 sec (  0.168%)
 integral evaluation            ...        0 min,  0.704 sec (  5.749%)
 iterations                     ...        0 min,  1.839 sec ( 15.017%)
 molecular gradient             ...        0 min,  9.500 sec ( 77.569%)
 printout                       ...        0 min,  0.070 sec (  0.574%)

         :::::::::::::::::::::::::::::::::::::::::::::::::::::
         ::                     SUMMARY                     ::
         :::::::::::::::::::::::::::::::::::::::::::::::::::::
         :: total energy           -1033.453356157433 Eh    ::
         :: gradient norm              0.000184577962 Eh/a0 ::
         :: HOMO-LUMO gap              7.747367621971 eV    ::
         ::.................................................::
         :: SCC energy             -1039.792670222606 Eh    ::
         :: -> isotropic ES            5.739193704776 Eh    ::
         :: -> anisotropic ES         -1.310283940108 Eh    ::
         :: -> anisotropic XC         -0.098124752420 Eh    ::
         :: -> dispersion             -0.633727354034 Eh    ::
         :: repulsion energy           6.217748458041 Eh    ::
         :: add. restraining           0.000000000000 Eh    ::
         :: total charge               1.000000000000 e     ::
         :::::::::::::::::::::::::::::::::::::::::::::::::::::

           ------------------------------------------------- 
          |                Numerical Hessian                |
           ------------------------------------------------- 
step length          :   0.00500
SCC accuracy         :   0.30000
Hessian scale factor :   1.00000
frozen atoms in %    :   0.00000    0
RMS gradient         :   0.00018
estimated CPU  time    762.10 min
estimated wall time    763.93 min
