      -----------------------------------------------------------      
     |                   =====================                   |     
     |                           x T B                           |     
     |                   =====================                   |     
     |                         S. Grimme                         |     
     |          Mulliken Center for Theoretical Chemistry        |     
     |                    University of Bonn                     |     
      -----------------------------------------------------------      

   * xtb version 6.5.1 (579679a) compiled by 'ehlert@majestix' on 2022-07-11

   xtb is free software: you can redistribute it and/or modify it under
   the terms of the GNU Lesser General Public License as published by
   the Free Software Foundation, either version 3 of the License, or
   (at your option) any later version.
   
   xtb is distributed in the hope that it will be useful,
   but WITHOUT ANY WARRANTY; without even the implied warranty of
   MERCHANTABILITY or FITNESS FOR A PARTICULAR PURPOSE.  See the
   GNU Lesser General Public License for more details.
   
   Cite this work as:
   * C. Bannwarth, E. Caldeweyher, S. Ehlert, A. Hansen, P. Pracht,
     J. Seibert, S. Spicher, S. Grimme, WIREs Comput. Mol. Sci., 2020, 11,
     e01493. DOI: 10.1002/wcms.1493
   
   for GFN2-xTB:
   * C. Bannwarth, S. Ehlert and S. Grimme., J. Chem. Theory Comput., 2019,
     15, 1652-1671. DOI: 10.1021/acs.jctc.8b01176
   for GFN1-xTB:
   * S. Grimme, C. Bannwarth, P. Shushkov, J. Chem. Theory Comput., 2017,
     13, 1989-2009. DOI: 10.1021/acs.jctc.7b00118
   for GFN0-xTB:
   * P. Pracht, E. Caldeweyher, S. Ehlert, S. Grimme, ChemRxiv, 2019, preprint.
     DOI: 10.26434/chemrxiv.8326202.v1
   for GFN-FF:
   * S. Spicher and S. Grimme, Angew. Chem. Int. Ed., 2020, 59, 15665-15673.
     DOI: 10.1002/anie.202004239
   
   for ALPB and GBSA implicit solvation:
   * S. Ehlert, M. Stahn, S. Spicher, S. Grimme, J. Chem. Theory Comput.,
     2021, 17, 4250-4261. DOI: 10.1021/acs.jctc.1c00471
   
   for DFT-D4:
   * E. Caldeweyher, C. Bannwarth and S. Grimme, J. Chem. Phys., 2017,
     147, 034112. DOI: 10.1063/1.4993215
   * E. Caldeweyher, S. Ehlert, A. Hansen, H. Neugebauer, S. Spicher,
     C. Bannwarth and S. Grimme, J. Chem. Phys., 2019, 150, 154122.
     DOI: 10.1063/1.5090222
   * E. Caldeweyher, J.-M. Mewes, S. Ehlert and S. Grimme, Phys. Chem. Chem. Phys.
     2020, 22, 8499-8512. DOI: 10.1039/D0CP00502A
   
   for sTDA-xTB:
   * S. Grimme and C. Bannwarth, J. Chem. Phys., 2016, 145, 054103.
     DOI: 10.1063/1.4959605
   
   in the mass-spec context:
   * V. Asgeirsson, C. Bauer and S. Grimme, Chem. Sci., 2017, 8, 4879.
     DOI: 10.1039/c7sc00601b
   * J. Koopman and S. Grimme, ACS Omega 2019, 4, 12, 15120-15133.
     DOI: 10.1021/acsomega.9b02011
   
   for metadynamics refer to:
   * S. Grimme, J. Chem. Theory Comput., 2019, 155, 2847-2862
     DOI: 10.1021/acs.jctc.9b00143
   
   for SPH calculations refer to:
   * S. Spicher and S. Grimme, J. Chem. Theory Comput., 2021, 17, 1701-1714
     DOI: 10.1021/acs.jctc.0c01306
   
   with help from (in alphabetical order)
   P. Atkinson, C. Bannwarth, F. Bohle, G. Brandenburg, E. Caldeweyher
   M. Checinski, S. Dohm, S. Ehlert, S. Ehrlich, I. Gerasimov, C. Hölzer
   A. Katbashev, J. Koopman, C. Lavigne, S. Lehtola, F. März, M. Müller,
   F. Musil, H. Neugebauer, J. Pisarek, C. Plett, P. Pracht, F. Pultar,
   J. Seibert, P. Shushkov, S. Spicher, M. Stahn, M. Steiner, T. Strunk,
   J. Stückrath, T. Rose, and J. Unsleber
   
 * started run on 2022/11/24 at 09:07:52.365     

           -------------------------------------------------
          |                Calculation Setup                |
           -------------------------------------------------

          program call               : xtb solvent_cluster.coord --gfn2 --input xcontrol --opt 1
          hostname                   : cn0341
          coordinate file            : solvent_cluster.coord
          omp threads                :                     2

   ID    Z sym.   atoms
    1    8 o      1, 4, 7, 10, 13, 16, 19, 22, 25, 28, 31, 34, 37, 40, 43,
                  46, 49, 52, 55, 58, 61, 64, 67, 70, 73, 76, 79, 82, 85, 88,
                  91, 94, 97, 100, 103, 106, 109, 112, 115, 118, 121, 124,
                  127, 130, 133, 136, 139, 142, 145, 148, 151, 154, 157, 160,
                  163, 166, 169, 172, 175, 178, 181, 184, 187, 190, 193, 196,
                  199, 202, 205, 208, 211, 214, 217, 220, 223, 226, 229, 232,
                  235, 238, 241, 244, 247, 250, 253, 256, 259, 262, 265, 268,
                  271, 274, 277, 280, 283, 286, 289, 292, 295, 298, 301, 304,
                  307, 310, 313, 316, 319, 322, 325, 328, 331, 334, 337, 340,
                  343, 346, 349, 352, 355, 358, 361, 364, 367, 370, 373, 376,
                  379, 382, 385, 388, 391, 394, 397, 400, 403, 406, 409, 412,
                  415, 418, 421, 424, 427, 430, 433, 436, 439, 442, 445, 448,
                  451, 454, 457, 460, 463, 466, 469, 472, 475, 478, 481, 484,
                  487, 490, 493, 496, 499, 502, 505, 508, 511, 514, 517, 520,
                  523, 526, 529, 532, 535, 538, 541, 544, 547, 550, 553, 556,
                  559, 562, 565, 568, 571, 574, 577, 580, 583, 586, 589, 592,
                  595, 598, 601, 604, 607, 610, 613, 616, 619, 622, 625, 628,
                  631, 634, 637, 640, 643, 646, 649, 652, 655, 658, 661, 664,
                  667, 670, 673, 676, 679, 682, 685, 688, 691, 694, 697, 700,
                  703, 706, 709, 712, 715, 718, 721, 724, 727, 730, 733, 736,
                  739, 742, 745, 748, 751, 754
    2    1 h      2, 3, 5, 6, 8, 9, 11, 12, 14, 15, 17, 18, 20, 21, 23, 24,
                  26, 27, 29, 30, 32, 33, 35, 36, 38, 39, 41, 42, 44, 45, 47,
                  48, 50, 51, 53, 54, 56, 57, 59, 60, 62, 63, 65, 66, 68, 69,
                  71, 72, 74, 75, 77, 78, 80, 81, 83, 84, 86, 87, 89, 90, 92,
                  93, 95, 96, 98, 99, 101, 102, 104, 105, 107, 108, 110, 111,
                  113, 114, 116, 117, 119, 120, 122, 123, 125, 126, 128, 129,
                  131, 132, 134, 135, 137, 138, 140, 141, 143, 144, 146, 147,
                  149, 150, 152, 153, 155, 156, 158, 159, 161, 162, 164, 165,
                  167, 168, 170, 171, 173, 174, 176, 177, 179, 180, 182, 183,
                  185, 186, 188, 189, 191, 192, 194, 195, 197, 198, 200, 201,
                  203, 204, 206, 207, 209, 210, 212, 213, 215, 216, 218, 219,
                  221, 222, 224, 225, 227, 228, 230, 231, 233, 234, 236, 237,
                  239, 240, 242, 243, 245, 246, 248, 249, 251, 252, 254, 255,
                  257, 258, 260, 261, 263, 264, 266, 267, 269, 270, 272, 273,
                  275, 276, 278, 279, 281, 282, 284, 285, 287, 288, 290, 291,
                  293, 294, 296, 297, 299, 300, 302, 303, 305, 306, 308, 309,
                  311, 312, 314, 315, 317, 318, 320, 321, 323, 324, 326, 327,
                  329, 330, 332, 333, 335, 336, 338, 339, 341, 342, 344, 345,
                  347, 348, 350, 351, 353, 354, 356, 357, 359, 360, 362, 363,
                  365, 366, 368, 369, 371, 372, 374, 375, 377, 378, 380, 381,
                  383, 384, 386, 387, 389, 390, 392, 393, 395, 396, 398, 399,
                  401, 402, 404, 405, 407, 408, 410, 411, 413, 414, 416, 417,
                  419, 420, 422, 423, 425, 426, 428, 429, 431, 432, 434, 435,
                  437, 438, 440, 441, 443, 444, 446, 447, 449, 450, 452, 453,
                  455, 456, 458, 459, 461, 462, 464, 465, 467, 468, 470, 471,
                  473, 474, 476, 477, 479, 480, 482, 483, 485, 486, 488, 489,
                  491, 492, 494, 495, 497, 498, 500, 501, 503, 504, 506, 507,
                  509, 510, 512, 513, 515, 516, 518, 519, 521, 522, 524, 525,
                  527, 528, 530, 531, 533, 534, 536, 537, 539, 540, 542, 543,
                  545, 546, 548, 549, 551, 552, 554, 555, 557, 558, 560, 561,
                  563, 564, 566, 567, 569, 570, 572, 573, 575, 576, 578, 579,
                  581, 582, 584, 585, 587, 588, 590, 591, 593, 594, 596, 597,
                  599, 600, 602, 603, 605, 606, 608, 609, 611, 612, 614, 615,
                  617, 618, 620, 621, 623, 624, 626, 627, 629, 630, 632, 633,
                  635, 636, 638, 639, 641, 642, 644, 645, 647, 648, 650, 651,
                  653, 654, 656, 657, 659, 660, 662, 663, 665, 666, 668, 669,
                  671, 672, 674, 675, 677, 678, 680, 681, 683, 684, 686, 687,
                  689, 690, 692, 693, 695, 696, 698, 699, 701, 702, 704, 705,
                  707, 708, 710, 711, 713, 714, 716, 717, 719, 720, 722, 723,
                  725, 726, 728, 729, 731, 732, 734, 735, 737, 738, 740, 741,
                  743, 744, 746, 747, 749, 750, 752, 753, 755, 756

molecular fragmentation (1/2 indicates fragments):
111222222222222222222222222222222222222222222222222222222222222222222222
222222222222222222222222222222222222222222222222222222222222222222222222
222222222222222222222222222222222222222222222222222222222222222222222222
222222222222222222222222222222222222222222222222222222222222222222222222
222222222222222222222222222222222222222222222222222222222222222222222222
222222222222222222222222222222222222222222222222222222222222222222222222
222222222222222222222222222222222222222222222222222222222222222222222222
222222222222222222222222222222222222222222222222222222222222222222222222
222222222222222222222222222222222222222222222222222222222222222222222222
222222222222222222222222222222222222222222222222222222222222222222222222
222222222222222222222222222222222222
# atoms in fragment 1/2:     3   753
 fragment masses (1/2) :       18.02     4521.84
CMA distance (Bohr)    :  16.063
constraining FC (au)   :  0.0500

           -------------------------------------------------
          |                 G F N 2 - x T B                 |
           -------------------------------------------------

        Reference                      10.1021/acs.jctc.8b01176
      * Hamiltonian:
        H0-scaling (s, p, d)           1.850000    2.230000    2.230000
        zeta-weighting                 0.500000
      * Dispersion:
        s8                             2.700000
        a1                             0.520000
        a2                             5.000000
        s9                             5.000000
      * Repulsion:
        kExp                           1.500000    1.000000
        rExp                           1.000000
      * Coulomb:
        alpha                          2.000000
        third order                    shell-resolved
        anisotropic                    true
        a3                             3.000000
        a5                             4.000000
        cn-shift                       1.200000
        cn-exp                         4.000000
        max-rad                        5.000000


          ...................................................
          :                      SETUP                      :
          :.................................................:
          :  # basis functions                1512          :
          :  # atomic orbitals                1512          :
          :  # shells                         1008          :
          :  # electrons                      2016          :
          :  max. iterations                   250          :
          :  Hamiltonian                  GFN2-xTB          :
          :  restarted?                      false          :
          :  GBSA solvation                  false          :
          :  PC potential                    false          :
          :  electronic temp.          300.0000000     K    :
          :  accuracy                    1.0000000          :
          :  -> integral cutoff          0.2500000E+02      :
          :  -> integral neglect         0.1000000E-07      :
          :  -> SCF convergence          0.1000000E-05 Eh   :
          :  -> wf. convergence          0.1000000E-03 e    :
          :  Broyden damping             0.4000000          :
          ...................................................

 iter      E             dE          RMSdq      gap      omega  full diag
   1  -1290.9625604 -0.129096E+04  0.407E+00    8.01       0.0  T
   2  -1291.0385010 -0.759406E-01  0.242E+00    7.53       1.0  T
   3  -1291.0697694 -0.312684E-01  0.211E-01    6.35       1.0  T
   4  -1291.0750775 -0.530810E-02  0.457E-02    6.75       1.0  T
   5  -1291.0751530 -0.755506E-04  0.306E-02    6.70       1.0  T
   6  -1291.0751923 -0.392503E-04  0.434E-03    6.73       1.0  T
   7  -1291.0751947 -0.241465E-05  0.774E-04    6.73       4.7  T
   8  -1291.0751947 -0.335378E-07  0.401E-04    6.73       9.1  T
   9  -1291.0751947 -0.158600E-07  0.667E-05    6.73      54.5  T

   *** convergence criteria satisfied after 9 iterations ***

         #    Occupation            Energy/Eh            Energy/eV
      -------------------------------------------------------------
         1        2.0000           -0.6954510             -18.9242
       ...           ...                  ...                  ...
      1002        2.0000           -0.4104907             -11.1700
      1003        2.0000           -0.4101146             -11.1598
      1004        2.0000           -0.4038500             -10.9893
      1005        2.0000           -0.3989522             -10.8560
      1006        2.0000           -0.3965893             -10.7917
      1007        2.0000           -0.3603462              -9.8055
      1008        2.0000           -0.3523985              -9.5893 (HOMO)
      1009                         -0.1051202              -2.8605 (LUMO)
      1010                         -0.0945369              -2.5725
      1011                         -0.0884571              -2.4070
      1012                         -0.0816791              -2.2226
      1013                         -0.0763737              -2.0782
       ...                                ...                  ...
      1512                          0.6998109              19.0428
      -------------------------------------------------------------
                  HL-Gap            0.2472782 Eh            6.7288 eV
             Fermi-level           -0.2287593 Eh           -6.2249 eV

 SCC (total)                   0 d,  0 h,  0 min, 21.760 sec
 SCC setup                      ...        0 min,  0.042 sec (  0.191%)
 Dispersion                     ...        0 min,  0.110 sec (  0.504%)
 classical contributions        ...        0 min,  0.023 sec (  0.106%)
 integral evaluation            ...        0 min,  0.611 sec (  2.809%)
 iterations                     ...        0 min,  8.528 sec ( 39.190%)
 molecular gradient             ...        0 min, 12.373 sec ( 56.862%)
 printout                       ...        0 min,  0.074 sec (  0.338%)

         :::::::::::::::::::::::::::::::::::::::::::::::::::::
         ::                     SUMMARY                     ::
         :::::::::::::::::::::::::::::::::::::::::::::::::::::
         :: total energy           -1283.285497740991 Eh    ::
         :: gradient norm              0.121253921412 Eh/a0 ::
         :: HOMO-LUMO gap              6.728783368881 eV    ::
         ::.................................................::
         :: SCC energy             -1291.075194728851 Eh    ::
         :: -> isotropic ES            7.171381902099 Eh    ::
         :: -> anisotropic ES         -1.618047535372 Eh    ::
         :: -> anisotropic XC         -0.126558447527 Eh    ::
         :: -> dispersion             -0.796696606010 Eh    ::
         :: repulsion energy           7.632296863927 Eh    ::
         :: add. restraining           0.000000000000 Eh    ::
         :: total charge               0.000000000000 e     ::
         :::::::::::::::::::::::::::::::::::::::::::::::::::::

      ----------------------------------------------------------- 
     |                       L-ANC optimizer                     |
      ----------------------------------------------------------- 
          low memory version by Sebastian Ehlert

          ...................................................
          :                      SETUP                      :
          :.................................................:
          :   energy convergence        0.1000000E-05 Eh    :
          :   grad. convergence         0.8000000E-03 Eh/a0 :
          :   optimization log               true           :
          :   writing optlog all                1     steps :
          :   Hessian reset                    20     steps :
          :   maximium step len.        1.0000000     a0    :
          :   LBFGS images                     20           :
          ...................................................
 * calculating model hessian...
Using Lindh-Hessian (1995)
 Shifting diagonal of input Hessian by   1.000007397963486E-002
 Lowest  eigenvalues of input Hessian
    0.010000   -0.000000   -0.000000   -0.000000   -0.000000   -0.000000
   -0.000000   -0.000000   -0.000000   -0.000000   -0.000000   -0.000000
   -0.000000   -0.000000   -0.000000   -0.000000   -0.000000   -0.000000
 Highest eigenvalues
    0.438587    0.463405    1.264386    1.375061    1.515768    1.662645
 

........................................................................
.............................. CYCLE    1 ..............................
........................................................................
   1  -1291.0876666 -0.129109E+04  0.460E-02    6.82       0.0  T
   2  -1291.0880002 -0.333644E-03  0.253E-02    6.97       1.0  T
   3  -1291.0880577 -0.574903E-04  0.967E-03    7.04       1.0  T
   4  -1291.0880608 -0.308168E-05  0.173E-03    7.01       2.1  T
   5  -1291.0880609 -0.852065E-07  0.246E-04    7.01      14.8  T
   6  -1291.0880609 -0.584600E-08  0.110E-04    7.01      33.1  T
     SCC iter.                  ...        0 min,  4.616 sec
     gradient                   ...        0 min, 12.408 sec
 * total energy  : -1283.3072254 Eh     change       -0.2172765E-01 Eh
   gradient norm :     0.0453211 Eh/a0  converged?    E=F G=F D=F
   step length   :     0.4525232 a0

........................................................................
.............................. CYCLE    2 ..............................
........................................................................
   1  -1291.0991079 -0.129110E+04  0.402E-02    7.21       0.0  T
   2  -1291.0994161 -0.308146E-03  0.209E-02    7.44       1.0  T
   3  -1291.0994569 -0.407969E-04  0.873E-03    7.56       1.0  T
   4  -1291.0994585 -0.166275E-05  0.118E-03    7.55       3.1  T
   5  -1291.0994586 -0.498922E-07  0.234E-04    7.55      15.6  T
   6  -1291.0994586 -0.483578E-08  0.894E-05    7.55      40.7  T
     SCC iter.                  ...        0 min,  4.139 sec
     gradient                   ...        0 min, 12.411 sec
 * total energy  : -1283.3218923 Eh     change       -0.1466690E-01 Eh
   gradient norm :     0.0402112 Eh/a0  converged?    E=F G=F D=F
   step length   :     1.0809135 a0

........................................................................
.............................. CYCLE    3 ..............................
........................................................................
   1  -1291.0930520 -0.129109E+04  0.555E-02    7.68       0.0  T
   2  -1291.0932835 -0.231508E-03  0.316E-02    7.86       1.0  T
   3  -1291.0933133 -0.297189E-04  0.890E-03    7.96       1.0  T
   4  -1291.0933169 -0.367297E-05  0.125E-03    7.94       2.9  T
   5  -1291.0933170 -0.577234E-07  0.318E-04    7.93      11.4  T
   6  -1291.0933170 -0.483783E-08  0.827E-05    7.94      44.0  T
     SCC iter.                  ...        0 min,  3.954 sec
     gradient                   ...        0 min, 12.418 sec
 * total energy  : -1283.3225415 Eh     change       -0.6491931E-03 Eh
   gradient norm :     0.0781456 Eh/a0  converged?    E=F G=F D=F
   step length   :     1.1752227 a0

........................................................................
.............................. CYCLE    4 ..............................
........................................................................
   1  -1291.1103110 -0.129111E+04  0.431E-02    8.06       0.0  T
   2  -1291.1103577 -0.467804E-04  0.262E-02    8.08       1.0  T
   3  -1291.1103722 -0.144352E-04  0.346E-03    8.09       1.1  T
   4  -1291.1103735 -0.131497E-05  0.105E-03    8.08       3.5  T
   5  -1291.1103735 -0.236009E-07  0.133E-04    8.08      27.3  T
   6  -1291.1103735 -0.106343E-08  0.534E-05    8.08      68.1  T
     SCC iter.                  ...        0 min,  3.848 sec
     gradient                   ...        0 min, 12.459 sec
 * total energy  : -1283.3273207 Eh     change       -0.4779211E-02 Eh
   gradient norm :     0.0391785 Eh/a0  converged?    E=F G=F D=F
   step length   :     0.5997187 a0

........................................................................
.............................. CYCLE    5 ..............................
........................................................................
   1  -1291.1132643 -0.129111E+04  0.157E-02    8.10       0.0  T
   2  -1291.1133026 -0.383118E-04  0.832E-03    8.09       1.0  T
   3  -1291.1133085 -0.586023E-05  0.323E-03    8.08       1.1  T
   4  -1291.1133089 -0.366649E-06  0.469E-04    8.09       7.8  T
   5  -1291.1133089 -0.845512E-08  0.939E-05    8.09      38.7  T
     SCC iter.                  ...        0 min,  3.140 sec
     gradient                   ...        0 min, 12.497 sec
 * total energy  : -1283.3287355 Eh     change       -0.1414827E-02 Eh
   gradient norm :     0.0170170 Eh/a0  converged?    E=F G=F D=F
   step length   :     0.3642902 a0

........................................................................
.............................. CYCLE    6 ..............................
........................................................................
   1  -1291.1140405 -0.129111E+04  0.781E-03    8.10       0.0  T
   2  -1291.1140425 -0.201166E-05  0.479E-03    8.10       1.0  T
   3  -1291.1140430 -0.502919E-06  0.738E-04    8.11       4.9  T
   4  -1291.1140431 -0.668556E-07  0.173E-04    8.11      21.0  T
     SCC iter.                  ...        0 min,  2.510 sec
     gradient                   ...        0 min, 12.484 sec
 * total energy  : -1283.3293733 Eh     change       -0.6378043E-03 Eh
   gradient norm :     0.0070366 Eh/a0  converged?    E=F G=F D=F
   step length   :     0.1555651 a0

........................................................................
.............................. CYCLE    7 ..............................
........................................................................
   1  -1291.1145073 -0.129111E+04  0.103E-02    8.11       0.0  T
   2  -1291.1145112 -0.383945E-05  0.623E-03    8.11       1.0  T
   3  -1291.1145120 -0.768331E-06  0.106E-03    8.12       3.4  T
   4  -1291.1145121 -0.121363E-06  0.194E-04    8.12      18.8  T
   5  -1291.1145121 -0.115142E-08  0.316E-05    8.12     115.0  T
     SCC iter.                  ...        0 min,  3.095 sec
     gradient                   ...        0 min, 12.510 sec
 * total energy  : -1283.3296937 Eh     change       -0.3204123E-03 Eh
   gradient norm :     0.0058103 Eh/a0  converged?    E=F G=F D=F
   step length   :     0.2213009 a0

........................................................................
.............................. CYCLE    8 ..............................
........................................................................
   1  -1291.1151689 -0.129112E+04  0.351E-03    8.11       0.0  T
   2  -1291.1151690 -0.139792E-06  0.213E-03    8.11       1.7  T
   3  -1291.1151691 -0.570744E-07  0.198E-04    8.11      18.4  T
   4  -1291.1151691 -0.383102E-08  0.656E-05    8.11      55.4  T
     SCC iter.                  ...        0 min,  2.470 sec
     gradient                   ...        0 min, 12.482 sec
 * total energy  : -1283.3297540 Eh     change       -0.6024934E-04 Eh
   gradient norm :     0.0033340 Eh/a0  converged?    E=F G=F D=F
   step length   :     0.0681016 a0

........................................................................
.............................. CYCLE    9 ..............................
........................................................................
   1  -1291.1157121 -0.129112E+04  0.484E-03    8.11       0.0  T
   2  -1291.1157124 -0.295790E-06  0.293E-03    8.11       1.2  T
   3  -1291.1157125 -0.119915E-06  0.290E-04    8.11      12.6  T
   4  -1291.1157125 -0.890486E-08  0.964E-05    8.11      37.7  T
     SCC iter.                  ...        0 min,  2.467 sec
     gradient                   ...        0 min, 12.496 sec
 * total energy  : -1283.3298130 Eh     change       -0.5899854E-04 Eh
   gradient norm :     0.0043339 Eh/a0  converged?    E=F G=F D=F
   step length   :     0.0863632 a0

........................................................................
.............................. CYCLE   10 ..............................
........................................................................
   1  -1291.1158965 -0.129112E+04  0.442E-03    8.10       0.0  T
   2  -1291.1158968 -0.268981E-06  0.268E-03    8.10       1.4  T
   3  -1291.1158969 -0.106744E-06  0.276E-04    8.10      13.2  T
   4  -1291.1158969 -0.865884E-08  0.925E-05    8.10      39.3  T
     SCC iter.                  ...        0 min,  2.472 sec
     gradient                   ...        0 min, 12.477 sec
 * total energy  : -1283.3298698 Eh     change       -0.5680306E-04 Eh
   gradient norm :     0.0049429 Eh/a0  converged?    E=F G=F D=F
   step length   :     0.0764927 a0

........................................................................
.............................. CYCLE   11 ..............................
........................................................................
   1  -1291.1155345 -0.129112E+04  0.904E-03    8.08       0.0  T
   2  -1291.1155357 -0.114025E-05  0.549E-03    8.08       1.0  T
   3  -1291.1155361 -0.422680E-06  0.558E-04    8.08       6.5  T
   4  -1291.1155361 -0.381960E-07  0.183E-04    8.08      19.9  T
     SCC iter.                  ...        0 min,  2.505 sec
     gradient                   ...        0 min, 12.600 sec
 * total energy  : -1283.3299756 Eh     change       -0.1057872E-03 Eh
   gradient norm :     0.0056795 Eh/a0  converged?    E=F G=F D=F
   step length   :     0.1514640 a0

........................................................................
.............................. CYCLE   12 ..............................
........................................................................
   1  -1291.1155096 -0.129112E+04  0.665E-03    8.07       0.0  T
   2  -1291.1155103 -0.631074E-06  0.405E-03    8.07       1.0  T
   3  -1291.1155105 -0.207931E-06  0.411E-04    8.07       8.8  T
   4  -1291.1155105 -0.219707E-07  0.127E-04    8.07      28.5  T
     SCC iter.                  ...        0 min,  2.527 sec
     gradient                   ...        0 min, 12.628 sec
 * total energy  : -1283.3300570 Eh     change       -0.8140477E-04 Eh
   gradient norm :     0.0041932 Eh/a0  converged?    E=F G=F D=F
   step length   :     0.1064466 a0

........................................................................
.............................. CYCLE   13 ..............................
........................................................................
   1  -1291.1151184 -0.129112E+04  0.411E-03    8.07       0.0  T
   2  -1291.1151188 -0.315530E-06  0.249E-03    8.07       1.5  T
   3  -1291.1151188 -0.870095E-07  0.298E-04    8.07      12.2  T
   4  -1291.1151189 -0.116013E-07  0.834E-05    8.07      43.6  T
     SCC iter.                  ...        0 min,  2.543 sec
     gradient                   ...        0 min, 12.624 sec
 * total energy  : -1283.3300887 Eh     change       -0.3169458E-04 Eh
   gradient norm :     0.0028215 Eh/a0  converged?    E=F G=F D=F
   step length   :     0.0664967 a0

........................................................................
.............................. CYCLE   14 ..............................
........................................................................
   1  -1291.1157350 -0.129112E+04  0.182E-03    8.07       0.0  T
   2  -1291.1157350 -0.558459E-07  0.109E-03    8.07       3.3  T
   3  -1291.1157351 -0.162665E-07  0.132E-04    8.07      27.6  T
   4  -1291.1157351 -0.174327E-08  0.373E-05    8.07      97.4  T
     SCC iter.                  ...        0 min,  2.498 sec
     gradient                   ...        0 min, 12.595 sec
 * total energy  : -1283.3301019 Eh     change       -0.1327579E-04 Eh
   gradient norm :     0.0017631 Eh/a0  converged?    E=F G=F D=F
   step length   :     0.0242283 a0

........................................................................
.............................. CYCLE   15 ..............................
........................................................................
   1  -1291.1149840 -0.129111E+04  0.440E-03    8.06       0.0  T
   2  -1291.1149844 -0.346395E-06  0.268E-03    8.06       1.4  T
   3  -1291.1149845 -0.112710E-06  0.303E-04    8.07      12.0  T
   4  -1291.1149845 -0.117236E-07  0.925E-05    8.07      39.3  T
     SCC iter.                  ...        0 min,  2.450 sec
     gradient                   ...        0 min, 12.529 sec
 * total energy  : -1283.3301117 Eh     change       -0.9793505E-05 Eh
   gradient norm :     0.0037909 Eh/a0  converged?    E=F G=F D=F
   step length   :     0.0737652 a0

........................................................................
.............................. CYCLE   16 ..............................
........................................................................
   1  -1291.1152989 -0.129112E+04  0.131E-03    8.07       0.0  T
   2  -1291.1152990 -0.389832E-07  0.784E-04    8.07       4.6  T
   3  -1291.1152990 -0.749674E-08  0.104E-04    8.07      35.0  T
     SCC iter.                  ...        0 min,  1.842 sec
     gradient                   ...        0 min, 12.528 sec
 * total energy  : -1283.3301245 Eh     change       -0.1278516E-04 Eh
   gradient norm :     0.0024210 Eh/a0  converged?    E=F G=F D=F
   step length   :     0.0242740 a0

........................................................................
.............................. CYCLE   17 ..............................
........................................................................
   1  -1291.1155703 -0.129112E+04  0.203E-03    8.07       0.0  T
   2  -1291.1155704 -0.858251E-07  0.122E-03    8.07       3.0  T
   3  -1291.1155704 -0.161749E-07  0.158E-04    8.07      23.0  T
   4  -1291.1155705 -0.311775E-08  0.312E-05    8.07     116.6  T
     SCC iter.                  ...        0 min,  2.438 sec
     gradient                   ...        0 min, 12.498 sec
 * total energy  : -1283.3301396 Eh     change       -0.1509151E-04 Eh
   gradient norm :     0.0007680 Eh/a0  converged?    E=F G=T D=F
   step length   :     0.0416335 a0

........................................................................
.............................. CYCLE   18 ..............................
........................................................................
   1  -1291.1155292 -0.129112E+04  0.248E-03    8.07       0.0  T
   2  -1291.1155293 -0.101056E-06  0.150E-03    8.07       2.4  T
   3  -1291.1155294 -0.267812E-07  0.170E-04    8.07      21.4  T
   4  -1291.1155294 -0.390924E-08  0.445E-05    8.07      81.7  T
     SCC iter.                  ...        0 min,  2.464 sec
     gradient                   ...        0 min, 12.394 sec
 * total energy  : -1283.3301466 Eh     change       -0.6943389E-05 Eh
   gradient norm :     0.0009832 Eh/a0  converged?    E=F G=F D=F
   step length   :     0.0456570 a0

........................................................................
.............................. CYCLE   19 ..............................
........................................................................
   1  -1291.1153800 -0.129112E+04  0.269E-03    8.06       0.0  T
   2  -1291.1153801 -0.100540E-06  0.164E-03    8.06       2.2  T
   3  -1291.1153801 -0.327277E-07  0.166E-04    8.06      21.9  T
   4  -1291.1153801 -0.362797E-08  0.503E-05    8.06      72.3  T
     SCC iter.                  ...        0 min,  2.433 sec
     gradient                   ...        0 min, 12.315 sec
 * total energy  : -1283.3301520 Eh     change       -0.5465972E-05 Eh
   gradient norm :     0.0014336 Eh/a0  converged?    E=F G=F D=F
   step length   :     0.0464441 a0

........................................................................
.............................. CYCLE   20 ..............................
........................................................................
   1  -1291.1154646 -0.129112E+04  0.232E-03    8.06       0.0  T
   2  -1291.1154647 -0.500941E-07  0.141E-03    8.06       2.6  T
   3  -1291.1154647 -0.196949E-07  0.121E-04    8.06      30.1  T
   4  -1291.1154647 -0.162095E-08  0.391E-05    8.06      92.9  T
     SCC iter.                  ...        0 min,  2.435 sec
     gradient                   ...        0 min, 12.310 sec
 * total energy  : -1283.3301571 Eh     change       -0.5045771E-05 Eh
   gradient norm :     0.0011524 Eh/a0  converged?    E=F G=F D=F
   step length   :     0.0401539 a0
 * RMSD in coord.:     0.1080210 a0     energy gain  -0.4465933E-01 Eh
 * calculating model hessian...
Using Lindh-Hessian (1995)
 Shifting diagonal of input Hessian by   1.000013395296605E-002
 Lowest  eigenvalues of input Hessian
    0.010000    0.010000   -0.000000   -0.000000   -0.000000   -0.000000
   -0.000000   -0.000000   -0.000000   -0.000000   -0.000000   -0.000000
   -0.000000   -0.000000   -0.000000   -0.000000   -0.000000   -0.000000
 Highest eigenvalues
    0.308862    0.322615    1.237808    1.270772    1.374622    1.427657
 

........................................................................
.............................. CYCLE   21 ..............................
........................................................................
   1  -1291.1155643 -0.129112E+04  0.779E-03    8.06       0.0  T
   2  -1291.1155649 -0.602219E-06  0.475E-03    8.06       1.0  T
   3  -1291.1155652 -0.220693E-06  0.400E-04    8.06       9.1  T
   4  -1291.1155652 -0.175223E-07  0.120E-04    8.06      30.4  T
     SCC iter.                  ...        0 min,  2.434 sec
     gradient                   ...        0 min, 12.377 sec
 * total energy  : -1283.3302621 Eh     change       -0.1049968E-03 Eh
   gradient norm :     0.0026549 Eh/a0  converged?    E=F G=F D=F
   step length   :     0.1353328 a0

........................................................................
.............................. CYCLE   22 ..............................
........................................................................
   1  -1291.1156353 -0.129112E+04  0.518E-03    8.06       0.0  T
   2  -1291.1156357 -0.389545E-06  0.314E-03    8.06       1.2  T
   3  -1291.1156358 -0.104708E-06  0.316E-04    8.06      11.5  T
   4  -1291.1156358 -0.127966E-07  0.745E-05    8.06      48.8  T
     SCC iter.                  ...        0 min,  2.441 sec
     gradient                   ...        0 min, 12.212 sec
 * total energy  : -1283.3302862 Eh     change       -0.2411440E-04 Eh
   gradient norm :     0.0023243 Eh/a0  converged?    E=F G=F D=F
   step length   :     0.0847952 a0

........................................................................
.............................. CYCLE   23 ..............................
........................................................................
   1  -1291.1158180 -0.129112E+04  0.295E-03    8.06       0.0  T
   2  -1291.1158182 -0.155180E-06  0.183E-03    8.05       2.0  T
   3  -1291.1158182 -0.510217E-07  0.204E-04    8.05      17.8  T
   4  -1291.1158182 -0.496584E-08  0.522E-05    8.05      69.6  T
     SCC iter.                  ...        0 min,  2.404 sec
     gradient                   ...        0 min, 12.205 sec
 * total energy  : -1283.3303149 Eh     change       -0.2868203E-04 Eh
   gradient norm :     0.0009136 Eh/a0  converged?    E=F G=F D=F
   step length   :     0.0453024 a0

........................................................................
.............................. CYCLE   24 ..............................
........................................................................
   1  -1291.1158141 -0.129112E+04  0.324E-03    8.06       0.0  T
   2  -1291.1158143 -0.202821E-06  0.197E-03    8.06       1.8  T
   3  -1291.1158143 -0.446605E-07  0.247E-04    8.05      14.7  T
   4  -1291.1158143 -0.795990E-08  0.575E-05    8.05      63.3  T
     SCC iter.                  ...        0 min,  2.378 sec
     gradient                   ...        0 min, 12.208 sec
 * total energy  : -1283.3303288 Eh     change       -0.1390943E-04 Eh
   gradient norm :     0.0012357 Eh/a0  converged?    E=F G=F D=F
   step length   :     0.0704099 a0

........................................................................
.............................. CYCLE   25 ..............................
........................................................................
   1  -1291.1157575 -0.129112E+04  0.330E-03    8.06       0.0  T
   2  -1291.1157576 -0.827747E-07  0.201E-03    8.06       1.8  T
   3  -1291.1157576 -0.361633E-07  0.157E-04    8.06      23.2  T
   4  -1291.1157576 -0.243563E-08  0.536E-05    8.06      67.8  T
     SCC iter.                  ...        0 min,  2.354 sec
     gradient                   ...        0 min, 12.212 sec
 * total energy  : -1283.3303411 Eh     change       -0.1234460E-04 Eh
   gradient norm :     0.0013257 Eh/a0  converged?    E=F G=F D=F
   step length   :     0.0684660 a0

........................................................................
.............................. CYCLE   26 ..............................
........................................................................
   1  -1291.1155922 -0.129112E+04  0.482E-03    8.06       0.0  T
   2  -1291.1155925 -0.316835E-06  0.293E-03    8.06       1.2  T
   3  -1291.1155926 -0.101790E-06  0.301E-04    8.06      12.1  T
   4  -1291.1155926 -0.114590E-07  0.913E-05    8.06      39.8  T
     SCC iter.                  ...        0 min,  2.330 sec
     gradient                   ...        0 min, 12.158 sec
 * total energy  : -1283.3303535 Eh     change       -0.1239464E-04 Eh
   gradient norm :     0.0017134 Eh/a0  converged?    E=F G=F D=F
   step length   :     0.0912272 a0

........................................................................
.............................. CYCLE   27 ..............................
........................................................................
   1  -1291.1157559 -0.129112E+04  0.196E-03    8.06       0.0  T
   2  -1291.1157560 -0.101284E-06  0.119E-03    8.06       3.1  T
   3  -1291.1157560 -0.202931E-07  0.167E-04    8.06      21.8  T
   4  -1291.1157560 -0.370437E-08  0.365E-05    8.06      99.5  T
     SCC iter.                  ...        0 min,  2.339 sec
     gradient                   ...        0 min, 12.179 sec
 * total energy  : -1283.3303592 Eh     change       -0.5647278E-05 Eh
   gradient norm :     0.0008394 Eh/a0  converged?    E=F G=F D=F
   step length   :     0.0327754 a0

........................................................................
.............................. CYCLE   28 ..............................
........................................................................
   1  -1291.1155612 -0.129112E+04  0.342E-03    8.07       0.0  T
   2  -1291.1155614 -0.264280E-06  0.207E-03    8.07       1.8  T
   3  -1291.1155615 -0.684611E-07  0.287E-04    8.07      12.7  T
   4  -1291.1155615 -0.975820E-08  0.727E-05    8.07      50.0  T
     SCC iter.                  ...        0 min,  2.348 sec
     gradient                   ...        0 min, 12.224 sec
 * total energy  : -1283.3303613 Eh     change       -0.2142838E-05 Eh
   gradient norm :     0.0013084 Eh/a0  converged?    E=F G=F D=F
   step length   :     0.0562754 a0

........................................................................
.............................. CYCLE   29 ..............................
........................................................................
   1  -1291.1158161 -0.129112E+04  0.926E-04    8.07       0.0  T
   2  -1291.1158161 -0.129935E-07  0.563E-04    8.07       6.5  T
   3  -1291.1158161 -0.592695E-08  0.675E-05    8.07      53.9  T
     SCC iter.                  ...        0 min,  1.787 sec
     gradient                   ...        0 min, 12.216 sec
 * total energy  : -1283.3303625 Eh     change       -0.1152950E-05 Eh
   gradient norm :     0.0002670 Eh/a0  converged?    E=F G=T D=F
   step length   :     0.0176965 a0

........................................................................
.............................. CYCLE   30 ..............................
........................................................................
   1  -1291.1157811 -0.129112E+04  0.363E-04    8.07       0.0  T
   2  -1291.1157811 -0.109662E-08  0.221E-04    8.07      16.5  T
   3  -1291.1157811 -0.489990E-09  0.184E-05    8.07     197.6  T
     SCC iter.                  ...        0 min,  1.782 sec
     gradient                   ...        0 min, 12.175 sec
 * total energy  : -1283.3303626 Eh     change       -0.1312478E-06 Eh
   gradient norm :     0.0000876 Eh/a0  converged?    E=T G=T D=F
   step length   :     0.0064760 a0

   *** GEOMETRY OPTIMIZATION CONVERGED AFTER 30 CYCLES ***

------------------------------------------------------------------------
 total energy gain   :        -0.0448648 Eh      -28.1531 kcal/mol
 total RMSD          :         0.0994511 a0        0.0526 Å
 total power (kW/mol):        -3.9264212 (step)   -0.2369 (real)
------------------------------------------------------------------------

 L-ANCopt (total)              0 d,  0 h,  8 min, 17.167 sec
 setup                          ...        0 min,  0.029 sec (  0.006%)
 model hessian                  ...        0 min, 15.344 sec (  3.086%)
 ANC generation                 ...        0 min,  5.094 sec (  1.025%)
 coordinate transformation      ...        0 min,  0.002 sec (  0.000%)
 Rational function              ...        0 min,  0.000 sec (  0.000%)
 singlepoint calculation        ...        7 min, 56.481 sec ( 95.839%)
 optimization log               ...        0 min,  0.206 sec (  0.041%)
 hessian update                 ...        0 min,  0.001 sec (  0.000%)

================
 final structure:
================
$coord
       -7.63432995231100      -11.39617660422500       -8.16186864681200      o
       -8.02089693593400      -12.92067267969900       -7.15184787192100      h
       -6.00824821006100      -11.75641715613400       -8.94110847053400      h
        5.71362645949700       -4.32057976546500        0.02980785077600      o
        4.12168130769600       -5.13560797510500       -0.43374559216700      h
        6.67652773647200       -4.17560988353900       -1.53067048591600      h
        6.41824473523300        1.44912803811700       -4.90398551366300      o
        5.29468070377800        1.12253856373200       -3.46513579797400      h
        6.75107935609300        3.26188364764600       -4.90004591504900      h
        3.80247615043000        0.27440864465700       -0.77311743044300      o
        4.73587162418900        1.43718402676600        0.32095339263100      h
        4.33583178744300       -1.39994278193300       -0.18383095997000      h
        2.79976873118100       -4.00397522297200       -6.40630443001300      o
        2.07763247007300       -4.56873002914000       -4.79314821426800      h
        1.96983069435000       -2.41741327225600       -6.80415860556800      h
       -6.16599634591300       -9.37630034234700        1.21952156050700      o
       -7.91368264029300       -8.94933474635700        1.62396831980300      h
       -5.21471646230600       -9.16047211155700        2.76334842222800      h
        6.74241767758500       -1.87384822866300        4.85478550552200      o
        5.34180859226600       -0.89283328350100        5.54195330861300      h
        8.14512412003500       -1.81479188504800        6.04263309500500      h
        1.40232914789300       -5.82805051165700       -1.97611277570800      o
       -0.22485710327000       -5.61487943227200       -1.11532141082600      h
        1.48752901759200       -7.51927078310200       -2.70625773280600      h
        5.30046764481100      -10.13839141670600       -0.26861697534000      o
        6.73470376183600       -9.19094790411100       -0.91672232098600      h
        5.81495121389000      -11.89931122078100       -0.26215520032000      h
        2.17180588788000        5.26506554438900        2.82823856811200      o
        3.32632884527200        5.80899038670000        4.16676140883300      h
        0.51759845009200        4.99670914392700        3.58915328050900      h
        0.81287443209500        8.67304368445500        6.61876594338200      o
       -0.94822967903000        8.21621556130400        6.38533593658200      h
        0.71443529073800       10.48562439285500        6.99150609835400      h
       -2.26371283036600        3.82170069590700        5.06994394222500      o
       -1.94932187713400        2.02441141461700        5.27593973936100      h
       -3.00741431462900        4.33490580604300        6.66501792858600      h
        2.01746930319700       -6.92343831214500      -10.41086428543800      o
        1.96128597457100       -6.10252517370100       -8.75111287397300      h
        0.26301371642500       -7.13905739657100      -10.93407114243700      h
       -5.51262338805000        6.43494065259000        2.09782720198500      o
       -4.43291112547100        5.33772868735900        3.09843750107500      h
       -4.64699272546200        8.05493596455800        2.03454194743700      h
       11.30120035373400        2.95140251793900       -0.55005464520500      o
       11.55099211972900        4.58650906276700       -1.38325438171700      h
       12.76456062813400        2.62049566169900        0.52512002046300      h
        1.47004625198700        0.43977678122400       -8.93367870267100      o
        3.10498225263900       -0.08694948380800       -9.65607881941100      h
        1.86405086813400        1.88687943563600       -7.83076833724900      h
       -3.27544338810000       -1.20099502537200       -9.28513892792700      o
       -1.61906365855600       -0.43905264976800       -9.05842816450600      h
       -3.25400178420400       -2.64624999154300       -8.16643776907600      h
      -15.24725144406200       -1.60788209228800       -4.46861903363000      o
      -16.03986697349800       -2.87301138847100       -3.37893990569400      h
      -14.89840208553200       -2.52306448221100       -6.03034843579600      h
      -11.07090167555600       -2.24158137407500       -0.09438170000000      o
      -11.11515413871000       -2.32426520708800        1.74940934366700      h
      -12.11719986607100       -3.60329090634000       -0.72894319759700      h
       -9.00614731007100        2.65552098270400        2.66808231971300      o
       -8.30912166274900        3.08217285886400        1.02901657565600      h
       -8.45827789992300        3.96118789949500        3.80915496255500      h
       -1.94741570319900        6.89446272445600       -6.83504644322800      o
       -2.02186619111300        6.89527243952200       -4.94376129182100      h
       -1.63828809650700        8.63380763300400       -7.26107601562500      h
        6.30383718982900       -0.42812999825400       -9.70865976100300      o
        6.58601499599600       -2.24685572467700       -9.83133613848000      h
        6.45514075567000        0.08846656354800       -7.94821065043500      h
       -2.92502223980700       -5.08885912614600        0.43879537095000      o
       -4.30746585520300       -6.26305509669900        0.28220481979900      h
       -3.59621671895000       -3.35711771722800        0.06725244089300      h
       -7.23440587186200       -3.82632754740800       -3.05128855159000      o
       -7.61749797676500       -5.59498826782500       -3.31756109701300      h
       -8.51012556756500       -3.21755217410500       -1.87617129900900      h
       -2.16477974337000       -1.00752465156900        6.64640460249600      o
       -1.46644701210300       -2.71570692550200        6.74720703229000      h
       -3.95168668113200       -1.16006911559300        6.23324411767100      h
      -12.62749695782500        2.25728431131000       -1.57227153903000      o
      -12.16401597906900        0.49517643596400       -1.26187947040700      h
      -11.01169529620400        3.12297490674500       -1.74327358360000      h
        2.31624104973800       -2.61606188123000      -13.46222602214600      o
        0.56553334170100       -2.45971464117700      -13.99592075970900      h
        2.37498053676800       -4.14061828129200      -12.44982312826500      h
        9.46601542666400       -7.95329515614500       -2.19997168321300      o
       10.16274014098800       -6.28676671102600       -1.71300918807400      h
        8.83678757379000       -7.78100183140900       -3.89672515406300      h
      -15.81203872630500       -5.94294208352800        2.34888168191500      o
      -17.11507962417000       -7.13989138516600        2.85766014832200      h
      -15.83695196596300       -5.96078411872800        0.51523065239000      h
        9.76126574959000        9.24683466443700        6.27422262778300      o
        9.22166203438100       11.00593642270300        6.29306698231900      h
       10.74802358873100        8.98144012367400        4.74155615398100      h
      -15.95606551706300      -10.59644613810500       -1.42846326881100      o
      -15.67583254919200      -10.72155381128800        0.39066344612000      h
      -17.75165433960600      -10.22799167296000       -1.61063383883900      h
      -10.50047040967000       -3.27489137439500        9.90672235878000      o
       -9.06499860103600       -2.18526997210700       10.18743649982200      h
      -10.85250180232600       -3.15222348027600        8.09432406260200      h
        7.61365121623000        6.45277557939700       -5.40808291592100      o
        9.09071969740300        6.36892757069700       -6.47134371136800      h
        6.47597971462300        7.62854175461000       -6.23931126311100      h
        9.51364026413400       -5.19267611102600       12.33891123647300      o
        9.41889895060900       -6.91653522205400       11.66637782848000      h
        7.96139948474000       -4.94059262297100       13.30311905768600      h
       11.14070728417200       -3.53169519056800       -0.79033108886800      o
       11.07171731434600       -2.44086063713300       -2.28396827048100      h
       12.88298448803300       -3.43326326607500       -0.18896922441500      h
      -10.87963550436800       -7.85940715385200        2.27976505585300      o
      -11.41150661217000       -7.34457552238700        0.58360777161900      h
      -12.19265708602100       -8.95857215727700        2.89664569335400      h
        1.13888952560100        9.89980941773700        0.80779334338700      o
        1.71651876518700        8.35065666465000        1.61984337856800      h
        2.60339755680400       10.76335886636500        0.11190849867600      h
        1.08410074537200       -3.00896209277800        3.13134981215900      o
       -0.47036588477000       -3.50504222139100        2.32308511896400      h
        2.08506751102600       -4.53463434747700        3.23645441567200      h
       -7.87060086160900        3.83815626072100       -2.22772126942900      o
       -7.39649015757000        5.55998726589300       -2.63270949681400      h
       -7.47835636172300        2.75149719056300       -3.66369774562900      h
       11.41461497098300       -0.13075874103100       -4.40175346461400      o
       13.21833191207000       -0.43400594179000       -4.64923031140800      h
       11.28479733823000        1.11574988105100       -3.03213561992400      h
       10.83029056520700      -12.62437548809300       -6.62675051853100      o
       12.33117073303600      -12.46923807270200       -5.60868894479700      h
       11.23891638578700      -11.84244143673100       -8.24387894426900      h
       10.40924835829100        2.77993802246900       -8.42191211221000      o
        8.84216250770100        3.42931887171400       -9.14968321144400      h
       10.01404673832700        1.90194029879500       -6.85750231482000      h
       -7.28653857953000        0.31229892569500       -5.95792848354800      o
       -7.14258345247100       -1.29472118095200       -5.04992231903500      h
       -8.95928479466400        0.32829064669200       -6.71505718424100      h
       -7.57756716605700        0.26119165022300      -11.72041433413100      o
       -6.53132791590500        1.32968679625400      -12.79967953441500      h
       -6.49436760869100       -0.21393336837600      -10.31996154332100      h
       15.21102507730600       -5.98697047280500      -11.86605958351300      o
       15.92097792864300       -7.38335171035100      -10.90132886303500      h
       16.02549132723500       -4.51951108103200      -11.13632350339500      h
       15.41955587528500        2.91947079774400       -7.45889960558800      o
       13.62036902832900        3.18283975316700       -7.68807065632400      h
       16.17382881513100        3.47354357271500       -9.05132602013200      h
        7.42421759903300       -3.58460841533500       -4.73610815154800      o
        7.73303246042700       -1.77794281938700       -4.67701720610600      h
        5.72938383633500       -3.80423011279800       -5.47871744640000      h
      -17.84616966779700       -5.20822924326000       -2.18743215326400      o
      -19.51505560140700       -4.89688371133000       -1.48581464555000      h
      -18.16428715266400       -5.91506698417100       -3.87852190473900      h
       -3.42967360351000       10.98608666479700        2.56088802738800      o
       -1.66173593060300       10.96162089315800        2.04935370030800      h
       -4.09110052631500       12.65963882669500        2.21031884476700      h
       -5.84361942102300        4.46979840781500       -8.69562835542100      o
       -5.84932783147200        2.78081870052400       -7.98928193720900      h
       -4.41545569267300        5.35468851609400       -7.91111558043900      h
        6.97531395888000       -9.31289020620400       -6.57869939668200      o
        8.29237022902300      -10.56867976620900       -6.26753504090500      h
        6.36113969523200       -9.72774503802400       -8.26270137552800      h
        0.29362068014800        3.52329056373300      -12.72140906961900      o
        0.51932729479000        2.34571907039200      -11.29163095613700      h
        1.60026479047900        3.03401496485300      -13.90789891292800      h
       11.43228917508700       13.32153960319500        2.18752423016100      o
       10.27879644847200       13.78027265079400        3.52348588826400      h
       12.94468451403200       12.66128421089000        3.02862238902700      h
        5.64056858830300        6.27911329069600        6.45596676508700      o
        7.13738614070500        7.32011832991500        6.14287347060200      h
        6.23407289610300        4.72529617032300        7.24369719628500      h
        5.21270177463800        8.70279607763200       10.99886643428300      o
        5.09779161334300        7.97003383516500        9.30406195043200      h
        5.70148716518900        7.32144874687200       12.09354386222100      h
       17.88097470363700       -2.26639567939900       -9.08626843300100      o
       18.92799567086500       -3.58663211472800       -8.33620497883800      h
       19.04602781589700       -0.95521060050800       -9.72649074792100      h
       -7.94825851417000        5.10165100405100        7.45371525261700      o
       -9.17116005495000        3.70536657603200        7.44775099330600      h
       -7.89172322276300        5.61072598678900        9.21380677091100      h
       -6.35974505291500        0.01278085305500       10.36639273615000      o
       -5.26532974489500       -1.21605687024400       11.24088206379100      h
       -5.29870758713300        1.50149975586600       10.08909902458800      h
      -12.78416373863100       -6.55470853093700       -2.21339314240400      o
      -12.22718442455400       -6.03839639689000       -3.92069423599200      h
      -13.99424134022700       -7.91146264013700       -2.41039399992400      h
      -22.91865391759300       -0.19481967970400       -1.08268742179100      o
      -21.24555745630500        0.53625491201200       -1.33772098464700      h
      -23.41150502801300        0.26923714144500        0.62048571285900      h
        8.68039507196500       -6.94424174878600        3.12530970170600      o
        7.59986572703400       -5.77279521043700        2.16168272518000      h
        9.81467315640100       -7.72772048254700        1.93786450328600      h
      -12.06318857843600        1.15764334563400       -7.51069323481500      o
      -12.87252692547700        0.50703163303000       -6.00711918611200      h
      -13.39867662170500        1.21332247156700       -8.77408044631400      h
      -10.23120520730600        5.32321689692400      -12.08935043486200      o
       -8.76436417600400        4.76080782723000      -11.15344112008900      h
      -10.73628723142800        3.93203495686900      -13.13972094568100      h
        1.22318805252500       -6.36524412216800       12.78888845318100      o
        2.50176587709000       -7.63549342577600       12.33736667520400      h
       -0.13747432495500       -7.31859604095600       13.50956653768500      h
      -11.29114438836600        1.41445429042100        7.59830323170000      o
      -11.92094230617500        1.19485050907100        5.88945277977400      h
      -12.75407366352100        1.86693833820400        8.59905137099100      h
      -18.01126796151400        1.47063652243900       -0.92137423611100      o
      -16.73775161899400        0.85538771016000       -2.06997470148300      h
      -17.46204996242700        3.18162987729300       -0.44097512447900      h
       12.13173692157500        7.62913879840600        2.06116433820300      o
       12.17290867978700        6.02948124490500        2.94706825743000      h
       13.81699995876600        7.98072564607200        1.40349790748800      h
       -2.74821119921100       -8.84093379125900        5.03386458027300      o
       -1.71251655881800       -9.40825129617200        3.62648535275300      h
       -1.66631649496800       -7.76584151764200        6.09883560416000      h
      -19.27806411106900        0.81452007537100       -6.58735403482800      o
      -17.78857477530300        0.13662677625300       -5.71884914763700      h
      -18.65139616486900        1.42948883536700       -8.18098487470900      h
       -2.75278312601700       -2.32859943566000      -14.17959888450200      o
       -3.06197442063200       -1.88516802970700      -12.39811853971200      h
       -3.50784812503100       -1.01383817834500      -15.17097211811400      h
       -2.81742131096100       -7.13496569410400      -11.97964969904400      o
       -4.09677098936600       -6.64898504633400      -10.74979663733100      h
       -2.96409785012300       -5.91188376405300      -13.32901560830500      h
       -2.57688288211800       -5.00653001680400       -5.85506031192600      o
       -2.45263751526300       -6.61294272093200       -4.95401545996100      h
       -2.08354536890000       -3.68610865553800       -4.67503788938300      h
        3.49047239142500        6.00335619032500       -2.19261716858400      o
        5.10525400789100        6.65650512703400       -1.61475641168000      h
        2.69077998098400        5.25161148950400       -0.73489446012900      h
        4.59606308290700       -1.34059046584900       10.24802392529100      o
        2.80228214492800       -0.89010738518900       10.48690253942500      h
        4.63148468624700       -2.92271100122500        9.29383273177700      h
      -12.40999726651100        8.01739492207200       -2.52545143190800      o
      -11.49604658182000        7.09108404677100       -3.83025459370600      h
      -11.25072066380900        8.25700748422200       -1.11193071901800      h
       -3.12868165366700       -9.38073558924300       -3.42195938691700      o
       -4.93444386707000       -9.15022412149800       -3.07927268851300      h
       -2.25842903302400       -9.53658475536200       -1.78833975500000      h
       -4.24162964636800        8.54423179276400        6.93321345441000      o
       -4.36006464506800        9.76481675233000        5.55848400515200      h
       -5.66140678966400        7.39091941705900        6.77950475630800      h
       -3.35348472230300        4.06911834439000       10.15719764658800      o
       -1.49814537230900        4.00799682359700       10.07019401986400      h
       -3.81616936827600        5.32814699331600       11.37477347212500      h
       -6.79169910173400       -5.86927738939500        6.15084279755300      o
       -7.12395754231800       -4.12162534440700        5.63945651519500      h
       -5.17377232479700       -6.36990072419200        5.47000349863900      h
      -21.42451111750300        4.85093112145400       -4.02184958911500      o
      -20.32575370566800        6.26718573129900       -4.38001197632700      h
      -20.66972410605900        3.38466031439100       -4.84356497461700      h
      -10.64004287013400       10.05284293527700       -9.19966458687200      o
      -10.82761318296300        9.57681276043500      -10.93765409590700      h
      -10.66759542879800        8.44770633265700       -8.24488627648100      h
      -21.08273778355500       -9.74132243815600       -1.88838452279700      o
      -21.81496064135500       -8.05970341809500       -1.68566182643600      h
      -21.56107573859100      -10.30531900539300       -3.54050009386300      h
      -15.69986536326200       -7.47347955503600        7.89604203551800      o
      -15.59987252211100       -5.68401813297900        7.53959722418900      h
      -15.35333847225400       -8.32546647223700        6.32533486945400      h
        7.35081511363500        8.81767246026400      -13.07394843024800      o
        6.84633052864000        7.38957337565900      -11.99161366741300      h
        7.75019707592900       10.18958221277300      -11.95937981046300      h
        7.13875979818200        7.55775590583800        1.05514726161900      o
        6.84478541179200        5.91338127511400        1.81757975238800      h
        8.95859264379600        7.77270538042400        1.08903386778200      h
        2.54195044586800        4.76436166909400       -6.95717446361900      o
        3.10430192049400        5.07905557733100       -5.22709432336500      h
        0.93616734437900        5.66932993133500       -7.13393202893900      h
        1.79789815779300        8.30194101065500      -11.94797568228800      o
        1.37685003603500        6.49967005819600      -12.08870110839600      h
        3.02083245073700        8.64742674108900      -13.24771622121500      h
       20.54145648643300       -5.67486127918600       -6.35766702786900      o
       22.27765343563700       -5.15020868980700       -6.36766648589500      h
       20.00987850744000       -5.54978986568700       -4.57681680161400      h
       20.91297714569200        1.46671167672600      -10.31180649826100      o
       19.88255314958200        2.72890467156500      -11.13069848900900      h
       21.23809180613700        2.07124179561300       -8.60269683697300      h
       -8.24765283810600        7.10500469955900       12.25309729295600      o
       -6.73160238707200        8.12580977213600       12.49136415158900      h
       -9.44547800599000        8.20277541404600       11.39880466726800      h
       11.31100307447100       -0.60150566258300        3.33714541928700      o
       10.57401677653300       -1.33458567286100        1.83291728352000      h
       12.04860060974700       -2.03732504945500        4.20587969331900      h
       12.83595151065300       -5.07909284178200        5.21174121937900      o
       13.27055462568400       -5.70815086801000        6.87720105433100      h
       11.14041226242400       -5.69962664986800        4.81769032800100      h
        7.06976407943200        2.55310221361400        2.17862336469300      o
        8.59832654600500        2.63595431973000        1.14504001116800      h
        7.23905049812600        0.98694620475600        3.14057459101700      h
      -11.44305976526700       -5.10609087567400       -6.76680560498800      o
       -9.65234806877400       -4.92625671008600       -7.08190746631900      h
      -11.98246599976700       -6.47492570183400       -7.88038932134000      h
      -18.49942056977300       -1.80376256228400        2.80781720155500      o
      -18.33437969481200       -0.50423469897400        1.48566531543700      h
      -17.37626521895500       -3.21153296950100        2.35269294168100      h
       -7.00961725660700       -0.95487714060100        5.36111063710500      o
       -7.96193711101600        0.16099550290600        4.21301973293400      h
       -7.48040139820100       -0.39187072418800        7.04149183205600      h
        5.16399699053600       12.37584545526400       -1.44677001370000      o
        5.31857369797000       13.71666616286600       -0.19944207806700      h
        6.86219187631000       11.73286599862600       -1.74007632678700      h
       -4.91150283630900       -0.14280658564200       16.72826043016300      o
       -6.39001074687100        0.79273582183000       16.16691850401900      h
       -3.47558277296300        0.98571375742800       16.58588132509700      h
       11.16316434213400        3.90004221326500        5.61786051218500      o
        9.99469512049700        3.63638275934200        6.99012491882200      h
       11.24452690748700        2.27954224714800        4.72739265761300      h
        2.69864552097300        0.94258532046500        5.73731484588000      o
        2.93794683618900        2.13391677790500        4.36871903830500      h
        1.77130865997500       -0.47511733478500        4.98646104898800      h
       16.29434213688600       -1.44265969856700       -4.32035473311900      o
       17.52414552148400       -0.69871287458600       -3.18275109289500      h
       16.96165816271100       -1.37331924750500       -6.03745774204300      h
       16.73576747572300        4.21178238724800      -12.14997906750600      o
       16.30533388452900        2.66975034225800      -13.08792370254200      h
       15.39975727452800        5.37332354889900      -12.58304599596700      h
       12.74560378690500       -1.58282141734500       -9.79089657310700      o
       14.52326188052800       -1.33562643300300       -9.47503466872300      h
       11.91178655900700        0.01204732455800       -9.41842279560500      h
      -22.55349818489900       -3.06774381329200       -6.23304997119500      o
      -23.62100466373000       -2.58764966109800       -4.85007259533400      h
      -21.46305555306700       -1.59977701498400       -6.51744192220200      h
      -22.37779762796300        5.18723707156300        0.81068401673200      o
      -22.00511232020800        4.90616238819500       -1.01207128439300      h
      -24.01858842706100        4.48618999047700        1.10931458468200      h
       -8.00057928887600       12.17716159401900        5.17259649063500      o
       -8.58261223923300       11.00124070221800        3.86884261750000      h
       -7.61125919621000       13.72501642833300        4.30044258610100      h
       -6.84864184413400        8.92344862362400       -3.18751876734100      o
       -7.68800107321300       10.36739439049200       -2.42207281091400      h
       -6.40199318183100        9.45343614670800       -4.89335594484900      h
        9.64923849789000        0.55136959097600      -13.69108762931300      o
        9.91168091557800       -1.24233723100600      -14.11081027801500      h
        8.78229085505300        0.46304240435400      -12.06890482746700      h
      -14.74124016950400       12.55229655465500        6.53870779065600      o
      -13.41129684125100       11.76101837539300        7.53056435399400      h
      -16.12154166205100       11.36822964841700        6.51267277811600      h
        3.45433898369000       15.34058601989100       -5.25165065501900      o
        4.24376830553900       14.24533226257700       -3.98524390107000      h
        3.65628413889100       14.49465714021800       -6.84023100199000      h
       10.48747293487300       -4.42681246204700      -13.99264121213400      o
        9.24112785553200       -4.87290855260900      -12.72494325247500      h
       12.11833519603600       -4.81967837884800      -13.25656518422600      h
      -12.30723848829000        0.08433306903600      -13.83231954581700      o
      -10.76323819602500        0.01646839227400      -12.83823546631600      h
      -12.73019527520900       -1.64684574654600      -14.19818110324700      h
       -0.13721056210900       -0.32610397978900       11.14946464763100      o
       -0.95651680289500       -1.73314677240700       11.99985725425900      h
       -0.92383253581200       -0.27530007563100        9.46701502385000      h
      -12.30400751895500       -9.28824283360200       -9.55161338017400      o
      -10.80042858455400      -10.30885501844900       -9.36681952111800      h
      -13.67888554016900      -10.15650034376000       -8.67345065791400      h
       -8.11771075707200       -8.90357458576400       -3.63581059284400      o
       -9.05253900970700       -9.98719997586400       -2.48040243906200      h
       -8.20550293336500       -9.71521232620600       -5.27494187316400      h
      -15.45066828230700        4.34217955605300       -5.25949431840700      o
      -16.32990181872100        5.80046463901300       -4.60058228579200      h
      -14.43375327654900        3.67079239912900       -3.88229881250000      h
      -10.75107252586800      -12.46022303698400       -1.12583123091900      o
      -12.51404008781500      -12.25322345030500       -1.51373531357000      h
      -10.65266182847700      -12.97467516480200        0.66266514230000      h
       17.73906488517700       -3.06058053609500        9.30660169562100      o
       16.69606393139400       -1.82618680723400        8.36527866390200      h
       18.41033742379600       -2.04968850607800       10.68408703087500      h
       -4.41897016436400        3.09070408259800      -14.54735671729400      o
       -4.97660597112600        4.77257695823900      -14.92112494459800      h
       -2.69447625546100        3.24281808386900      -13.87938891950900      h
       12.57354837469800        6.98554806739000       -3.16908365431300      o
       12.31482261407100        7.10438788412800       -4.98020827312200      h
       14.33568227723900        6.46453962099600       -2.99038642193400      h
      -22.69917429086000       -5.07213871132700       -0.49950718441700      o
      -22.90282123706500       -3.24652886407100       -0.88785003233100      h
      -23.04797733693200       -5.20710662850500        1.28186659343600      h
        5.17826504222800       10.98415640649400        4.28350973490400      o
        3.72762249080800       10.15893197016800        5.01082306862500      h
        5.86866629718700        9.83681820851500        3.00987958930800      h
       -0.53809258640500        2.61877007583400       15.32362781915500      o
       -0.31912489285700        4.40136615450900       14.98761879752700      h
       -0.42987466902900        1.74803590804300       13.69442285558500      h
       -2.19182000016400      -10.32253443184600       10.96873162765900      o
       -3.49080034920600       -9.02014222625500       11.04357588268200      h
       -3.05706534460700      -11.76119261020400       10.24041968545700      h
        4.53652118743700       -9.98644249735900       11.69102649308900      o
        6.34325578842900      -10.15155764327400       11.63387541671800      h
        3.90056377233600      -10.55999030362700       10.06760065937100      h
        1.28416281228700       10.04552972892300       -4.66693164328300      o
        1.98551881140900        8.78139027780600       -3.53093323227800      h
        0.66268097253500       11.44109366925600       -3.63997964802900      h
        6.98974619978900        4.70605880022100       13.87400895647000      o
        5.87471215278600        3.49635144469400       14.77447915203300      h
        8.52203825425200        4.78369833049900       14.83269169181600      h
       -8.15279921401000      -15.03263686349600       -4.82781511170800      o
       -6.37263269532800      -15.11476577980700       -4.40932456338000      h
       -9.03644291291000      -14.34825759727500       -3.36747236058500      h
       -5.15556558949600       14.80752337959500       -4.47592854859300      o
       -6.66208669057300       14.44193543445200       -3.49146507126900      h
       -5.21651666985800       13.63803321820700       -5.89057047840600      h
        0.20409902288700       13.59993997569000        7.03181743032600      o
       -1.43514685816200       13.93694751282400        7.82616530668800      h
        0.10434414094100       14.33834698811500        5.34388125937200      h
       21.54938906142700        2.94185163209800       -5.39648329824300      o
       19.98905880063700        3.62623990021800       -4.69682614763200      h
       22.74666159653200        4.29642376375000       -5.26769438429800      h
       15.83468455409400       -2.84943851120900        1.10335497371900      o
       15.73082027863400       -1.04964234007300        1.46534080338200      h
       16.46630945762900       -3.66978773483200        2.63183720876400      h
      -12.87230132696900        6.40610176881000        5.12205323108600      o
      -13.12787225040600        4.65984074032200        4.52460174025600      h
      -14.56031656972600        7.14357182090600        5.15961602507300      h
        2.16092640526500      -12.85060185522700       -8.73401260364100      o
        3.26472533797100      -12.13255316375500       -9.99655090621200      h
        2.00257715363700      -11.56584946885300       -7.38504043541100      h
      -10.96168278943100        9.61025730319600        8.61406141318300      o
       -9.73291243637300       10.64617110739000        7.72683774790300      h
      -11.27901972186000        8.18076240426500        7.47861469916500      h
       -0.43470502020400      -10.34092813606500        0.66313141743800      o
        0.88135611288400       -9.19390907330400        1.30645622017100      h
        0.42727984607700      -11.86007302033300        0.14167221735900      h
      -16.83885455735600       12.79475344027400       -1.72993236141700      o
      -15.61495838880200       12.73846021482500       -0.33328477909300      h
      -15.89733811086300       13.53797123689700       -3.10242874967800      h
      -14.19511776450900        1.86670277933000        3.39932054657800      o
      -15.95671634907400        2.37945522356700        3.50923256396200      h
      -13.65888323016800        2.16414742103600        1.66266225536600      h
       15.00435003688600        6.84772457985100        7.11133655422000      o
       14.85545812493900        7.06802913280900        8.90129970002900      h
       13.61815834886800        5.71196766259400        6.61410473420600      h
      -15.87143335883300       -3.41751274610700       -9.25428057811900      o
      -16.46943717082600       -1.82233456668200       -9.90434547319700      h
      -14.77483566187300       -4.12373797808300      -10.56956297706400      h
       15.00827461954800       12.69387851416700       -3.00790673072400      o
       13.19037038760900       12.31352823154200       -2.92291999168700      h
       15.21602321554800       14.31664383462000       -2.23874887121900      h
       12.21055025720500        7.72025324671000       -8.20376314809900      o
       12.03879607279400        6.94639836413200       -9.87404485181400      h
       11.35276593574700        9.36551606771600       -8.24034215812700      h
       11.63972425118900      -12.28433810742400       -0.76902684574900      o
       10.88662490088900      -10.67046996104900       -1.28622388120000      h
       13.27017703217300      -12.28988508047400       -1.60706830070500      h
        2.82854616164000       -7.85984102510400        3.36939666020400      o
        2.67302383193900       -8.87557158540800        4.89567339930700      h
        4.15387231548800       -8.60550178989200        2.32214619596500      h
       -4.94975344651100      -12.83270644830800        7.38478301297400      o
       -3.96200484710900      -11.59150551140500        6.43258243485400      h
       -6.61123122599800      -12.04170476486500        7.53062870067400      h
      -11.58531525390900       -3.44641288818800        4.84232627286400      o
      -11.42806137777000       -5.15432070607100        4.16738515483500      h
      -13.35139513383500       -3.12087261724000        5.18764076445800      h
       13.94774904424300       -8.00565104592700        1.07560514788600      o
       13.86835884803500       -6.80791264859000        2.46710971178200      h
       14.05217324399000       -7.06924802910100       -0.50173579548800      h
       18.37632239847200       -5.46100707369800        4.72601230049100      o
       17.70209248560700       -7.16820372345600        4.93955387425400      h
       18.32451392166800       -4.71798349120300        6.39893147298100      h
       14.34945611400600       -6.68644905678700        9.91226498508300      o
       15.72862104203000       -5.43755648929400        9.90966642576400      h
       13.16036129764900       -6.12507815245100       11.16679316775600      h
      -22.16771950574700       -4.58251760402600        4.71787259131300      o
      -20.84580216939000       -3.48252322596000        3.98523985025400      h
      -21.80631780795000       -4.57225773760600        6.52630425748100      h
       -8.87857328733300        2.23929191590700       14.16039116779100      o
       -8.12940402786800        1.44465730897100       12.66172669248900      h
       -8.86202506490900        4.03509319164600       13.81691998008400      h
       -6.22357886126900       -7.14478019425900       11.04009635467000      o
       -6.46891093430600       -6.54337145704300        9.29731109968700      h
       -7.81985672305700       -7.82636422491000       11.57573813942800      h
       -6.70488143632600      -16.59672163236900        4.35122402425200      o
       -5.86031106287500      -16.07513450540200        2.80785590030800      h
       -6.00736002620400      -15.49723947850700        5.66061696868800      h
      -15.02240835462200      -11.11439688300300        3.64199256086700      o
      -13.90098167880500      -12.54881129510400        3.91007791188900      h
      -16.67601811045300      -11.50085776928500        4.28584702033500      h
       11.11847775828500       -9.40399729062400      -10.61346029173700      o
       11.16826671558000       -7.98586239609000       -9.41030965314000      h
[...]
   385   8 o      387   1 h                                       0.9718199
   388   8 o      389   1 h                                       0.9802914
   388   8 o      390   1 h                                       0.9763750
   391   8 o      392   1 h                                       0.9746833
   391   8 o      393   1 h                                       0.9590984
   394   8 o      395   1 h                                       0.9730371
   394   8 o      396   1 h                                       0.9769278
   397   8 o      398   1 h                                       0.9859884
   397   8 o      399   1 h                                       0.9749893
   400   8 o      401   1 h                                       0.9653634
   400   8 o      402   1 h                                       0.9893477
   403   8 o      404   1 h                                       0.9714634
   403   8 o      405   1 h                                       0.9805353
   406   8 o      407   1 h                                       0.9845451
   406   8 o      408   1 h                                       0.9646045
   409   8 o      410   1 h                                       0.9831474
   409   8 o      411   1 h                                       0.9645803
   412   8 o      413   1 h                                       0.9726251
   412   8 o      414   1 h                                       0.9746064
   415   8 o      416   1 h                                       0.9576019
   415   8 o      417   1 h                                       0.9841432
   418   8 o      419   1 h                                       0.9649016
   418   8 o      420   1 h                                       0.9802283
   421   8 o      422   1 h                                       0.9838521
   421   8 o      423   1 h                                       0.9566451
   424   8 o      425   1 h                                       0.9783616
   424   8 o      426   1 h                                       0.9820512
   427   8 o      428   1 h                                       0.9813666
   427   8 o      429   1 h                                       0.9701019
   430   8 o      431   1 h                                       0.9736598
   430   8 o      432   1 h                                       0.9770786
   433   8 o      434   1 h                                       0.9790370
   433   8 o      435   1 h                                       0.9768250
   436   8 o      437   1 h                                       0.9753562
   436   8 o      438   1 h                                       0.9677228
   439   8 o      440   1 h                                       0.9724725
   439   8 o      441   1 h                                       0.9722701
   442   8 o      443   1 h                                       0.9778626
   442   8 o      444   1 h                                       0.9690487
   445   8 o      446   1 h                                       0.9845876
   445   8 o      447   1 h                                       0.9617241
   448   8 o      449   1 h                                       0.9891799
   448   8 o      450   1 h                                       0.9759184
   451   8 o      452   1 h                                       0.9812913
   451   8 o      453   1 h                                       0.9675625
   454   8 o      455   1 h                                       0.9842101
   454   8 o      456   1 h                                       0.9612359
   457   8 o      458   1 h                                       0.9710565
   457   8 o      459   1 h                                       0.9771752
   460   8 o      461   1 h                                       0.9738892
   460   8 o      462   1 h                                       0.9610544
   463   8 o      464   1 h                                       0.9844912
   463   8 o      465   1 h                                       0.9605224
   466   8 o      467   1 h                                       0.9591307
   466   8 o      468   1 h                                       0.9833069
   469   8 o      470   1 h                                       0.9987858
   469   8 o      471   1 h                                       0.9566067
   472   8 o      473   1 h                                       0.9573363
   472   8 o      474   1 h                                       0.9866111
   475   8 o      476   1 h                                       0.9689148
   475   8 o      477   1 h                                       0.9750969
   478   8 o      479   1 h                                       0.9639720
   478   8 o      480   1 h                                       0.9754437
   481   8 o      482   1 h                                       0.9670254
   481   8 o      483   1 h                                       0.9722561
   484   8 o      485   1 h                                       0.9731096
   484   8 o      486   1 h                                       0.9796153
   487   8 o      488   1 h                                       0.9575727
   487   8 o      489   1 h                                       0.9785657
   490   8 o      491   1 h                                       0.9657380
   490   8 o      492   1 h                                       0.9666427
   493   8 o      494   1 h                                       0.9915536
   493   8 o      495   1 h                                       0.9815256
   496   8 o      497   1 h                                       0.9745824
   496   8 o      498   1 h                                       0.9708988
   499   8 o      500   1 h                                       0.9711500
   499   8 o      501   1 h                                       0.9840005
   502   8 o      503   1 h                                       0.9775545
   502   8 o      504   1 h                                       0.9762751
   505   8 o      506   1 h                                       0.9781096
   505   8 o      507   1 h                                       0.9731569
   508   8 o      509   1 h                                       0.9727867
   508   8 o      510   1 h                                       0.9848168
   511   8 o      512   1 h                                       0.9808788
   511   8 o      513   1 h                                       0.9785438
   514   8 o      515   1 h                                       0.9753990
   514   8 o      516   1 h                                       0.9681415
   517   8 o      518   1 h                                       0.9677005
   517   8 o      519   1 h                                       0.9794819
   520   8 o      521   1 h                                       0.9823185
   520   8 o      522   1 h                                       0.9761811
   523   8 o      524   1 h                                       0.9905474
   523   8 o      525   1 h                                       0.9801262
   526   8 o      527   1 h                                       0.9653922
   526   8 o      528   1 h                                       0.9678838
   529   8 o      530   1 h                                       0.9733568
   529   8 o      531   1 h                                       0.9741298
   532   8 o      533   1 h                                       0.9815566
   532   8 o      534   1 h                                       0.9587643
   535   8 o      536   1 h                                       0.9618674
   535   8 o      537   1 h                                       0.9686407
   538   8 o      539   1 h                                       0.9702755
   538   8 o      540   1 h                                       0.9809697
   541   8 o      542   1 h                                       0.9558337 (min)
   541   8 o      543   1 h                                       0.9816372
   544   8 o      545   1 h                                       0.9863390
   544   8 o      546   1 h                                       0.9663927
   547   8 o      548   1 h                                       0.9704539
   547   8 o      549   1 h                                       0.9622775
   550   8 o      551   1 h                                       0.9634614
   550   8 o      552   1 h                                       0.9758641
   553   8 o      554   1 h                                       0.9647678
   553   8 o      555   1 h                                       0.9760046
   556   8 o      557   1 h                                       0.9770937
   556   8 o      558   1 h                                       0.9697633
   559   8 o      560   1 h                                       0.9633916
   559   8 o      561   1 h                                       0.9707213
   562   8 o      563   1 h                                       0.9770964
   562   8 o      564   1 h                                       0.9849971
   565   8 o      566   1 h                                       0.9758125
   565   8 o      567   1 h                                       0.9833268
   568   8 o      569   1 h                                       0.9691041
   568   8 o      570   1 h                                       0.9921286
   571   8 o      572   1 h                                       0.9701945
   571   8 o      573   1 h                                       0.9782839
   574   8 o      575   1 h                                       0.9682524
   574   8 o      576   1 h                                       0.9668797
   577   8 o      578   1 h                                       0.9833174
   577   8 o      579   1 h                                       0.9666543
   580   8 o      581   1 h                                       0.9661401
   580   8 o      582   1 h                                       0.9698767
   583   8 o      584   1 h                                       0.9825637
   583   8 o      585   1 h                                       0.9760825
   586   8 o      587   1 h                                       0.9770442
   586   8 o      588   1 h                                       0.9747007
   589   8 o      590   1 h                                       0.9585112
   589   8 o      591   1 h                                       0.9884915
   592   8 o      593   1 h                                       0.9740632
   592   8 o      594   1 h                                       0.9688446
   595   8 o      596   1 h                                       0.9603193
   595   8 o      597   1 h                                       0.9637406
   598   8 o      599   1 h                                       0.9772972
   598   8 o      600   1 h                                       0.9614868
   601   8 o      602   1 h                                       0.9755559
   601   8 o      603   1 h                                       0.9809224
   604   8 o      605   1 h                                       0.9740481
   604   8 o      606   1 h                                       0.9773525
   607   8 o      608   1 h                                       0.9760778
   607   8 o      609   1 h                                       0.9710273
   610   8 o      611   1 h                                       0.9670784
   610   8 o      612   1 h                                       0.9778947
   613   8 o      614   1 h                                       0.9897915
   613   8 o      615   1 h                                       0.9569578
   616   8 o      617   1 h                                       0.9764745
   616   8 o      618   1 h                                       0.9636588
   619   8 o      620   1 h                                       0.9698834
   619   8 o      621   1 h                                       0.9801421
   622   8 o      623   1 h                                       0.9818817
   622   8 o      624   1 h                                       0.9664564
   625   8 o      626   1 h                                       0.9570090
   625   8 o      627   1 h                                       0.9933728
   628   8 o      629   1 h                                       0.9606444
   628   8 o      630   1 h                                       0.9748579
   631   8 o      632   1 h                                       0.9757448
   631   8 o      633   1 h                                       0.9771270
   634   8 o      635   1 h                                       0.9889792
   634   8 o      636   1 h                                       0.9706394
   637   8 o      638   1 h                                       0.9746491
   637   8 o      639   1 h                                       0.9660227
   640   8 o      641   1 h                                       0.9613367
   640   8 o      642   1 h                                       0.9997629 (max)
   643   8 o      644   1 h                                       0.9773610
   643   8 o      645   1 h                                       0.9868328
   646   8 o      647   1 h                                       0.9569552
   646   8 o      648   1 h                                       0.9930123
   649   8 o      650   1 h                                       0.9819881
   649   8 o      651   1 h                                       0.9782652
   652   8 o      653   1 h                                       0.9696321
   652   8 o      654   1 h                                       0.9857211
   655   8 o      656   1 h                                       0.9664705
   655   8 o      657   1 h                                       0.9885806
   658   8 o      659   1 h                                       0.9663731
   658   8 o      660   1 h                                       0.9744880
   661   8 o      662   1 h                                       0.9659531
   661   8 o      663   1 h                                       0.9725015
   664   8 o      665   1 h                                       0.9740269
   664   8 o      666   1 h                                       0.9676639
   667   8 o      668   1 h                                       0.9683722
   667   8 o      669   1 h                                       0.9630171
   670   8 o      671   1 h                                       0.9838688
   670   8 o      672   1 h                                       0.9661425
   673   8 o      674   1 h                                       0.9896831
   673   8 o      675   1 h                                       0.9715781
   676   8 o      677   1 h                                       0.9938530
   676   8 o      678   1 h                                       0.9709001
   679   8 o      680   1 h                                       0.9910643
   679   8 o      681   1 h                                       0.9808661
   682   8 o      683   1 h                                       0.9692437
   682   8 o      684   1 h                                       0.9602498
   685   8 o      686   1 h                                       0.9805515
   685   8 o      687   1 h                                       0.9738754
   688   8 o      689   1 h                                       0.9763228
   688   8 o      690   1 h                                       0.9747597
   691   8 o      692   1 h                                       0.9605093
   691   8 o      693   1 h                                       0.9824049
   694   8 o      695   1 h                                       0.9757738
   694   8 o      696   1 h                                       0.9795941
   697   8 o      698   1 h                                       0.9713911
   697   8 o      699   1 h                                       0.9653477
   700   8 o      701   1 h                                       0.9672773
   700   8 o      702   1 h                                       0.9680166
   703   8 o      704   1 h                                       0.9642034
   703   8 o      705   1 h                                       0.9684997
   706   8 o      707   1 h                                       0.9769689
   706   8 o      708   1 h                                       0.9800745
   709   8 o      710   1 h                                       0.9783426
   709   8 o      711   1 h                                       0.9569625
   712   8 o      713   1 h                                       0.9682909
   712   8 o      714   1 h                                       0.9851514
   715   8 o      716   1 h                                       0.9717023
   715   8 o      717   1 h                                       0.9722748
   718   8 o      719   1 h                                       0.9737369
   718   8 o      720   1 h                                       0.9820763
   721   8 o      722   1 h                                       0.9707665
   721   8 o      723   1 h                                       0.9706857
   724   8 o      725   1 h                                       0.9761423
   724   8 o      726   1 h                                       0.9730237
   727   8 o      728   1 h                                       0.9864737
   727   8 o      729   1 h                                       0.9660865
   730   8 o      731   1 h                                       0.9704233
   730   8 o      732   1 h                                       0.9700837
   733   8 o      734   1 h                                       0.9783548
   733   8 o      735   1 h                                       0.9702749
   736   8 o      737   1 h                                       0.9802716
   736   8 o      738   1 h                                       0.9862185
   739   8 o      740   1 h                                       0.9589728
   739   8 o      741   1 h                                       0.9708874
   742   8 o      743   1 h                                       0.9673609
   742   8 o      744   1 h                                       0.9751405
   745   8 o      746   1 h                                       0.9776802
   745   8 o      747   1 h                                       0.9595431
   748   8 o      749   1 h                                       0.9722255
   748   8 o      750   1 h                                       0.9673162
   751   8 o      752   1 h                                       0.9774859
   751   8 o      753   1 h                                       0.9638579
   754   8 o      755   1 h                                       0.9704688
   754   8 o      756   1 h                                       0.9572595

 * 1 distinct bonds (by element types)

   Z      Z             #   av. dist./Å        max./Å        min./Å
   1 H    8 O         502     0.9736446     0.9997629     0.9558337


optimized geometry written to: xtbopt.coord


           -------------------------------------------------
          | TOTAL ENERGY            -1283.330362586575 Eh   |
          | GRADIENT NORM               0.005615558102 Eh/α |
          | HOMO-LUMO GAP               8.066464453329 eV   |
           -------------------------------------------------

------------------------------------------------------------------------
 * finished run on 2022/11/24 at 09:16:47.055     
------------------------------------------------------------------------
 total:
 * wall-time:     0 d,  0 h,  8 min, 54.690 sec
 *  cpu-time:     0 d,  0 h, 13 min, 12.575 sec
 * ratio c/w:     1.482 speedup
 SCF:
 * wall-time:     0 d,  0 h,  0 min, 21.769 sec
 *  cpu-time:     0 d,  0 h,  0 min, 35.364 sec
 * ratio c/w:     1.625 speedup
 ANC optimizer:
 * wall-time:     0 d,  0 h,  8 min, 31.917 sec
 *  cpu-time:     0 d,  0 h, 12 min, 35.505 sec
 * ratio c/w:     1.476 speedup

