      -----------------------------------------------------------      
     |                   =====================                   |     
     |                           x T B                           |     
     |                   =====================                   |     
     |                         S. Grimme                         |     
     |          Mulliken Center for Theoretical Chemistry        |     
     |                    University of Bonn                     |     
      -----------------------------------------------------------      

   * xtb version 6.5.1 (579679a) compiled by 'ehlert@majestix' on 2022-07-11

   xtb is free software: you can redistribute it and/or modify it under
   the terms of the GNU Lesser General Public License as published by
   the Free Software Foundation, either version 3 of the License, or
   (at your option) any later version.
   
   xtb is distributed in the hope that it will be useful,
   but WITHOUT ANY WARRANTY; without even the implied warranty of
   MERCHANTABILITY or FITNESS FOR A PARTICULAR PURPOSE.  See the
   GNU Lesser General Public License for more details.
   
   Cite this work as:
   * C. Bannwarth, E. Caldeweyher, S. Ehlert, A. Hansen, P. Pracht,
     J. Seibert, S. Spicher, S. Grimme, WIREs Comput. Mol. Sci., 2020, 11,
     e01493. DOI: 10.1002/wcms.1493
   
   for GFN2-xTB:
   * C. Bannwarth, S. Ehlert and S. Grimme., J. Chem. Theory Comput., 2019,
     15, 1652-1671. DOI: 10.1021/acs.jctc.8b01176
   for GFN1-xTB:
   * S. Grimme, C. Bannwarth, P. Shushkov, J. Chem. Theory Comput., 2017,
     13, 1989-2009. DOI: 10.1021/acs.jctc.7b00118
   for GFN0-xTB:
   * P. Pracht, E. Caldeweyher, S. Ehlert, S. Grimme, ChemRxiv, 2019, preprint.
     DOI: 10.26434/chemrxiv.8326202.v1
   for GFN-FF:
   * S. Spicher and S. Grimme, Angew. Chem. Int. Ed., 2020, 59, 15665-15673.
     DOI: 10.1002/anie.202004239
   
   for ALPB and GBSA implicit solvation:
   * S. Ehlert, M. Stahn, S. Spicher, S. Grimme, J. Chem. Theory Comput.,
     2021, 17, 4250-4261. DOI: 10.1021/acs.jctc.1c00471
   
   for DFT-D4:
   * E. Caldeweyher, C. Bannwarth and S. Grimme, J. Chem. Phys., 2017,
     147, 034112. DOI: 10.1063/1.4993215
   * E. Caldeweyher, S. Ehlert, A. Hansen, H. Neugebauer, S. Spicher,
     C. Bannwarth and S. Grimme, J. Chem. Phys., 2019, 150, 154122.
     DOI: 10.1063/1.5090222
   * E. Caldeweyher, J.-M. Mewes, S. Ehlert and S. Grimme, Phys. Chem. Chem. Phys.
     2020, 22, 8499-8512. DOI: 10.1039/D0CP00502A
   
   for sTDA-xTB:
   * S. Grimme and C. Bannwarth, J. Chem. Phys., 2016, 145, 054103.
     DOI: 10.1063/1.4959605
   
   in the mass-spec context:
   * V. Asgeirsson, C. Bauer and S. Grimme, Chem. Sci., 2017, 8, 4879.
     DOI: 10.1039/c7sc00601b
   * J. Koopman and S. Grimme, ACS Omega 2019, 4, 12, 15120-15133.
     DOI: 10.1021/acsomega.9b02011
   
   for metadynamics refer to:
   * S. Grimme, J. Chem. Theory Comput., 2019, 155, 2847-2862
     DOI: 10.1021/acs.jctc.9b00143
   
   for SPH calculations refer to:
   * S. Spicher and S. Grimme, J. Chem. Theory Comput., 2021, 17, 1701-1714
     DOI: 10.1021/acs.jctc.0c01306
   
   with help from (in alphabetical order)
   P. Atkinson, C. Bannwarth, F. Bohle, G. Brandenburg, E. Caldeweyher
   M. Checinski, S. Dohm, S. Ehlert, S. Ehrlich, I. Gerasimov, C. Hölzer
   A. Katbashev, J. Koopman, C. Lavigne, S. Lehtola, F. März, M. Müller,
   F. Musil, H. Neugebauer, J. Pisarek, C. Plett, P. Pracht, F. Pultar,
   J. Seibert, P. Shushkov, S. Spicher, M. Stahn, M. Steiner, T. Strunk,
   J. Stückrath, T. Rose, and J. Unsleber
   
 * started run on 2022/11/24 at 09:28:10.074     

           -------------------------------------------------
          |                Calculation Setup                |
           -------------------------------------------------

          program call               : xtb solvent_cluster.coord --gfn2 --sp --lmo --chrg 0
          hostname                   : cn0341
          coordinate file            : solvent_cluster.coord
          omp threads                :                     2

   ID    Z sym.   atoms
    1    8 o      1, 4, 7, 10, 13, 16, 19, 22, 25, 28, 31, 34, 37, 40, 43,
                  46, 49, 52, 55, 58, 61, 64, 67, 70, 73, 76, 79, 82, 85, 88,
                  91, 94, 97, 100, 103, 106, 109, 112, 115, 118, 121, 124,
                  127, 130, 133, 136, 139, 142, 145, 148, 151, 154, 157, 160,
                  163, 166, 169, 172, 175, 178, 181, 184, 187, 190, 193, 196,
                  199, 202, 205, 208, 211, 214, 217, 220, 223, 226, 229, 232,
                  235, 238, 241, 244, 247, 250, 253, 256, 259, 262, 265, 268,
                  271, 274, 277, 280, 283, 286, 289, 292, 295, 298, 301, 304,
                  307, 310, 313, 316, 319, 322, 325, 328, 331, 334, 337, 340,
                  343, 346, 349, 352, 355, 358, 361, 364, 367, 370, 373, 376,
                  379, 382, 385, 388, 391, 394, 397, 400, 403, 406, 409, 412,
                  415, 418, 421, 424, 427, 430, 433, 436, 439, 442, 445, 448,
                  451, 454, 457, 460, 463, 466, 469, 472, 475, 478, 481, 484,
                  487, 490, 493, 496, 499, 502, 505, 508, 511, 514, 517, 520,
                  523, 526, 529, 532, 535, 538, 541, 544, 547, 550, 553, 556,
                  559, 562, 565, 568, 571, 574, 577, 580, 583, 586, 589, 592,
                  595, 598, 601, 604, 607, 610, 613, 616, 619, 622, 625, 628,
                  631, 634, 637, 640, 643, 646, 649, 652, 655, 658, 661, 664,
                  667, 670, 673, 676, 679, 682, 685, 688, 691, 694, 697, 700,
                  703, 706, 709, 712, 715, 718, 721, 724, 727, 730, 733, 736,
                  739, 742, 745, 748, 751, 754
    2    1 h      2, 3, 5, 6, 8, 9, 11, 12, 14, 15, 17, 18, 20, 21, 23, 24,
                  26, 27, 29, 30, 32, 33, 35, 36, 38, 39, 41, 42, 44, 45, 47,
                  48, 50, 51, 53, 54, 56, 57, 59, 60, 62, 63, 65, 66, 68, 69,
                  71, 72, 74, 75, 77, 78, 80, 81, 83, 84, 86, 87, 89, 90, 92,
                  93, 95, 96, 98, 99, 101, 102, 104, 105, 107, 108, 110, 111,
                  113, 114, 116, 117, 119, 120, 122, 123, 125, 126, 128, 129,
                  131, 132, 134, 135, 137, 138, 140, 141, 143, 144, 146, 147,
                  149, 150, 152, 153, 155, 156, 158, 159, 161, 162, 164, 165,
                  167, 168, 170, 171, 173, 174, 176, 177, 179, 180, 182, 183,
                  185, 186, 188, 189, 191, 192, 194, 195, 197, 198, 200, 201,
                  203, 204, 206, 207, 209, 210, 212, 213, 215, 216, 218, 219,
                  221, 222, 224, 225, 227, 228, 230, 231, 233, 234, 236, 237,
                  239, 240, 242, 243, 245, 246, 248, 249, 251, 252, 254, 255,
                  257, 258, 260, 261, 263, 264, 266, 267, 269, 270, 272, 273,
                  275, 276, 278, 279, 281, 282, 284, 285, 287, 288, 290, 291,
                  293, 294, 296, 297, 299, 300, 302, 303, 305, 306, 308, 309,
                  311, 312, 314, 315, 317, 318, 320, 321, 323, 324, 326, 327,
                  329, 330, 332, 333, 335, 336, 338, 339, 341, 342, 344, 345,
                  347, 348, 350, 351, 353, 354, 356, 357, 359, 360, 362, 363,
                  365, 366, 368, 369, 371, 372, 374, 375, 377, 378, 380, 381,
                  383, 384, 386, 387, 389, 390, 392, 393, 395, 396, 398, 399,
                  401, 402, 404, 405, 407, 408, 410, 411, 413, 414, 416, 417,
                  419, 420, 422, 423, 425, 426, 428, 429, 431, 432, 434, 435,
                  437, 438, 440, 441, 443, 444, 446, 447, 449, 450, 452, 453,
                  455, 456, 458, 459, 461, 462, 464, 465, 467, 468, 470, 471,
                  473, 474, 476, 477, 479, 480, 482, 483, 485, 486, 488, 489,
                  491, 492, 494, 495, 497, 498, 500, 501, 503, 504, 506, 507,
                  509, 510, 512, 513, 515, 516, 518, 519, 521, 522, 524, 525,
                  527, 528, 530, 531, 533, 534, 536, 537, 539, 540, 542, 543,
                  545, 546, 548, 549, 551, 552, 554, 555, 557, 558, 560, 561,
                  563, 564, 566, 567, 569, 570, 572, 573, 575, 576, 578, 579,
                  581, 582, 584, 585, 587, 588, 590, 591, 593, 594, 596, 597,
                  599, 600, 602, 603, 605, 606, 608, 609, 611, 612, 614, 615,
                  617, 618, 620, 621, 623, 624, 626, 627, 629, 630, 632, 633,
                  635, 636, 638, 639, 641, 642, 644, 645, 647, 648, 650, 651,
                  653, 654, 656, 657, 659, 660, 662, 663, 665, 666, 668, 669,
                  671, 672, 674, 675, 677, 678, 680, 681, 683, 684, 686, 687,
                  689, 690, 692, 693, 695, 696, 698, 699, 701, 702, 704, 705,
                  707, 708, 710, 711, 713, 714, 716, 717, 719, 720, 722, 723,
                  725, 726, 728, 729, 731, 732, 734, 735, 737, 738, 740, 741,
                  743, 744, 746, 747, 749, 750, 752, 753, 755, 756

molecular fragmentation (1/2 indicates fragments):
111222222222222222222222222222222222222222222222222222222222222222222222
222222222222222222222222222222222222222222222222222222222222222222222222
222222222222222222222222222222222222222222222222222222222222222222222222
222222222222222222222222222222222222222222222222222222222222222222222222
222222222222222222222222222222222222222222222222222222222222222222222222
222222222222222222222222222222222222222222222222222222222222222222222222
222222222222222222222222222222222222222222222222222222222222222222222222
222222222222222222222222222222222222222222222222222222222222222222222222
222222222222222222222222222222222222222222222222222222222222222222222222
222222222222222222222222222222222222222222222222222222222222222222222222
222222222222222222222222222222222222
# atoms in fragment 1/2:     3   753
 fragment masses (1/2) :       18.02     4521.84
CMA distance (Bohr)    :  16.060
constraining FC (au)   :  0.0500

           -------------------------------------------------
          |                 G F N 2 - x T B                 |
           -------------------------------------------------

        Reference                      10.1021/acs.jctc.8b01176
      * Hamiltonian:
        H0-scaling (s, p, d)           1.850000    2.230000    2.230000
        zeta-weighting                 0.500000
      * Dispersion:
        s8                             2.700000
        a1                             0.520000
        a2                             5.000000
        s9                             5.000000
      * Repulsion:
        kExp                           1.500000    1.000000
        rExp                           1.000000
      * Coulomb:
        alpha                          2.000000
        third order                    shell-resolved
        anisotropic                    true
        a3                             3.000000
        a5                             4.000000
        cn-shift                       1.200000
        cn-exp                         4.000000
        max-rad                        5.000000


          ...................................................
          :                      SETUP                      :
          :.................................................:
          :  # basis functions                1512          :
          :  # atomic orbitals                1512          :
          :  # shells                         1008          :
          :  # electrons                      2016          :
          :  max. iterations                   250          :
          :  Hamiltonian                  GFN2-xTB          :
          :  restarted?                      false          :
          :  GBSA solvation                  false          :
          :  PC potential                    false          :
          :  electronic temp.          300.0000000     K    :
          :  accuracy                    1.0000000          :
          :  -> integral cutoff          0.2500000E+02      :
          :  -> integral neglect         0.1000000E-07      :
          :  -> SCF convergence          0.1000000E-05 Eh   :
          :  -> wf. convergence          0.1000000E-03 e    :
          :  Broyden damping             0.4000000          :
          ...................................................

 iter      E             dE          RMSdq      gap      omega  full diag
   1  -1291.0069736 -0.129101E+04  0.407E+00    8.48       0.0  T
   2  -1291.0797768 -0.728032E-01  0.242E+00    8.30       1.0  T
   3  -1291.1105318 -0.307550E-01  0.209E-01    7.92       1.0  T
   4  -1291.1156665 -0.513468E-02  0.454E-02    8.08       1.0  T
   5  -1291.1157396 -0.731320E-04  0.306E-02    8.05       1.0  T
   6  -1291.1157787 -0.391138E-04  0.432E-03    8.07       1.0  T
   7  -1291.1157811 -0.238751E-05  0.787E-04    8.07       4.6  T
   8  -1291.1157811 -0.360587E-07  0.410E-04    8.07       8.9  T
   9  -1291.1157811 -0.165583E-07  0.647E-05    8.07      56.2  T

   *** convergence criteria satisfied after 9 iterations ***

         #    Occupation            Energy/Eh            Energy/eV
      -------------------------------------------------------------
         1        2.0000           -0.6963277             -18.9480
       ...           ...                  ...                  ...
      1002        2.0000           -0.4120372             -11.2121
      1003        2.0000           -0.4109152             -11.1816
      1004        2.0000           -0.4104433             -11.1687
      1005        2.0000           -0.4094614             -11.1420
      1006        2.0000           -0.4090096             -11.1297
      1007        2.0000           -0.4052635             -11.0278
      1008        2.0000           -0.4024727             -10.9518 (HOMO)
      1009                         -0.1060364              -2.8854 (LUMO)
      1010                         -0.0948113              -2.5799
      1011                         -0.0885129              -2.4086
      1012                         -0.0819121              -2.2289
      1013                         -0.0769118              -2.0929
       ...                                ...                  ...
      1512                          0.4413193              12.0089
      -------------------------------------------------------------
                  HL-Gap            0.2964363 Eh            8.0664 eV
             Fermi-level           -0.2542545 Eh           -6.9186 eV
 
 localization/xTB-IFF output generation
 averaging CT terms over            7  occ. levels
 averaging CT terms over            1  virt. levels
 dipole moment from electron density (au)
     X       Y       Z   
   0.1814  -0.0015   1.3621  total (Debye):    3.493
cpu  time for init local    0.78 s
wall time for init local    0.41 s
 doing rotations ...
 initialization of trafo matrix to unity

 converged in     17 iterations, threshold :   0.99997552D-06
 doing transformations ...
 lmo centers(Z=2) and atoms on file <lmocent.coord>
 LMO Fii/eV  ncent    charge center   contributions...
    1 LP   *******   0.00  -4.34743  -4.79541  -6.44775  214O : 21.92  622O : 21.56  187O : 21.16  481O : 17.88  508O : 15.48  490O : 15.11  241O : 13.84   49O : 13.60  658O : 13.38   70O : 13.22  295O : 12.61  619O : 12.35
  118O : 11.90  325O : 11.60   94O : 11.47  196O : 11.41  394O : 11.39  754O : 11.19  628O : 10.96  223O : 10.56  130O : 10.44  262O : 10.11  175O :  9.93  439O :  9.62
  451O :  9.62  292O :  9.52  112O :  9.43  685O :  9.40  505O :  9.37  136O :  9.33  724O :  9.19  307O :  9.19  670O :  9.18  133O :  9.00  697O :  8.68  217O :  8.59
  733O :  8.54  514O :  8.35  109O :  8.33  346O :  8.25   13O :  8.03  535O :  7.93  595O :  7.86   37O :  7.79  289O :  7.70  730O :  7.55  385O :  7.54  364O :  7.50
  445O :  7.28   79O :  7.15  388O :  7.14  634O :  7.06  745O :  6.89  370O :  6.81  397O :  6.73  526O :  6.62  190O :  6.58  679O :  6.53  265O :  6.47  643O :  6.46
  268O :  6.42  178O :  6.30   40O :  6.29  568O :  6.22  316O :  6.19   64O :  6.16  562O :  6.13  529O :  6.12  502O :  6.00  277O :  5.99  373O :  5.95  610O :  5.94
  640O :  5.94   67O :  5.84   31O :  5.70  637O :  5.59  355O :  5.51  409O :  5.42  739O :  5.33  469O :  5.29  406O :  5.28  106O :  5.23  709O :  5.11  652O :  5.07
  661O :  4.97  691O :  4.94  718O :  4.93  349O :  4.88  418O :  4.84   28O :  4.81   46O :  4.76  298O :  4.73   58O :  4.72   97O :  4.66   19O :  4.65  334O :  4.59
  649O :  4.51  646O :  4.49  736O :  4.47  580O :  4.47  655O :  4.42  493O :  4.40  538O :  4.40  484O :  4.29  454O :  4.29  517O :  4.29  205O :  4.27  391O :  4.20
  376O :  4.20  166O :  4.18  163O :  4.18  523O :  4.12  400O :  4.04  478O :  4.03  631O :  4.03  226O :  3.88  559O :  3.85   88O :  3.79  742O :  3.78  430O :  3.78
  382O :  3.73  487O :  3.66  565O :  3.66  466O :  3.60  271O :  3.58  250O :  3.53  550O :  3.53  208O :  3.52  121O :  3.47  460O :  3.44  541O :  3.38  229O :  3.38
  148O :  3.37  700O :  3.32  598O :  3.31  328O :  3.30  571O :  3.24  313O :  3.21  553O :  3.14  259O :  3.12  544O :  3.08  421O :  3.02  613O :  2.99  199O :  2.99
   85O :  2.97  100O :  2.90  403O :  2.90  310O :  2.89  352O :  2.87   52O :  2.87   61O :  2.87  715O :  2.86  412O :  2.84  688O :  2.83  343O :  2.81   10O :  2.80
  244O :  2.80  103O :  2.77  592O :  2.59   16O :  2.56  463O :  2.56  160O :  2.55  586O :  2.54  115O :  2.50  673O :  2.47   73O :  2.44  472O :  2.43  253O :  2.42
  337O :  2.39  577O :  2.37  181O :  2.36  238O :  2.34  379O :  2.19  340O :  2.16  157O :  2.15  127O :  2.15  751O :  2.13  184O :  2.06  727O :  2.03  232O :  1.98
  235O :  1.97  427O :  1.97  361O :  1.96  176H :  1.93  154O :  1.92  625O :  1.91   22O :  1.87  556O :  1.84  358O :  1.84  347H :  1.82  424O :  1.75  304O :  1.74
    4O :  1.72  706O :  1.70  616O :  1.70    7O :  1.59  475O :  1.59  331O :  1.54  124O :  1.52  601O :  1.51  703O :  1.49  511O :  1.49  399H :  1.47   76O :  1.44
  220O :  1.43  415O :  1.40  660H :  1.38  322O :  1.38  712O :  1.37  499O :  1.37  145O :  1.36  482H :  1.35   91O :  1.35   25O :  1.33  448O :  1.31  496O :  1.30
  274O :  1.29   55O :  1.29  682O :  1.26  309H :  1.25  597H :  1.24  291H :  1.20  694O :  1.18  554H :  1.16  256O :  1.16  621H :  1.15  280O :  1.14  286O :  1.14
  374H :  1.11  457O :  1.11  664O :  1.08  442O :  1.06  686H :  1.06  211O :  1.04  224H :  1.04  193O :  1.04  636H :  1.03  532O :  1.02   34O :  1.01   68H :  0.98
  317H :  0.96  191H :  0.95  520O :  0.95  172O :  0.95  225H :  0.93  301O :  0.92  247O :  0.91  671H :  0.91  314H :  0.90  419H :  0.90  330H :  0.89  319O :  0.89
  748O :  0.88  583O :  0.87  441H :  0.87   30H :  0.86  433O :  0.86  464H :  0.85  283O :  0.85  207H :  0.84  635H :  0.83   82O :  0.83  594H :  0.82  308H :  0.80
  667O :  0.77  604O :  0.77  746H :  0.75  547O :  0.73   60H :  0.73  110H :  0.70  711H :  0.70   17H :  0.68   32H :  0.68  574O :  0.67  135H :  0.67  128H :  0.65
  638H :  0.65  721O :  0.65   66H :  0.65  142O :  0.64   75H :  0.64  436O :  0.64  365H :  0.64  672H :  0.63  151O :  0.63   15H :  0.63  471H :  0.61  242H :  0.60
  607O :  0.60  180H :  0.60  105H :  0.59  273H :  0.57  200H :  0.56  396H :  0.55   48H :  0.54  429H :  0.54  296H :  0.54  676O :  0.53  162H :  0.53  665H :  0.53
   14H :  0.52  183H :  0.52  272H :  0.52  479H :  0.50  392H :  0.50  293H :  0.50  107H :  0.48  101H :  0.48  485H :  0.47  169O :  0.47  552H :  0.47  555H :  0.47
  294H :  0.47  648H :  0.46  743H :  0.46  269H :  0.46  327H :  0.46  680H :  0.46  297H :  0.46   57H :  0.46  168H :  0.46   23H :  0.46   43O :  0.44  377H :  0.44
  491H :  0.43  627H :  0.43  116H :  0.43  525H :  0.42  132H :  0.42    1O :  0.42  182H :  0.41  626H :  0.40  339H :  0.40  287H :  0.39  164H :  0.39  393H :  0.38
  395H :  0.37  336H :  0.37  573H :  0.37  557H :  0.37  470H :  0.36  488H :  0.36  645H :  0.36  139O :  0.35  402H :  0.35  299H :  0.35  300H :  0.34   95H :  0.33
  227H :  0.33  185H :  0.33  575H :  0.33  123H :  0.33  504H :  0.32  122H :  0.32  398H :  0.32  725H :  0.32  710H :  0.32  111H :  0.32  323H :  0.32  195H :  0.31
  494H :  0.31  372H :  0.31  264H :  0.31  384H :  0.31  326H :  0.30  492H :  0.30  240H :  0.30  197H :  0.30  720H :  0.30  375H :  0.30  362H :  0.30  440H :  0.29
   65H :  0.29  591H :  0.29  202O :  0.29  279H :  0.29  531H :  0.28  677H :  0.28  165H :  0.28  647H :  0.28   38H :  0.28  329H :  0.27  618H :  0.27   62H :  0.27
  662H :  0.27  687H :  0.26  341H :  0.26   84H :  0.26  615H :  0.26  356H :  0.26   69H :  0.26  734H :  0.26  401H :  0.25  518H :  0.25  367O :  0.25  561H :  0.25
  501H :  0.24  417H :  0.24  206H :  0.24    5H :  0.24  579H :  0.24  689H :  0.24  131H :  0.23  630H :  0.23  572H :  0.23  243H :  0.23  509H :  0.23  563H :  0.23
   63H :  0.22  666H :  0.22  741H :  0.22  158H :  0.22  333H :  0.22  342H :  0.22  251H :  0.22  263H :  0.22  524H :  0.22  248H :  0.21  266H :  0.21  378H :  0.21
  312H :  0.20  659H :  0.20  708H :  0.20  213H :  0.20  348H :  0.20  569H :  0.20   59H :  0.19  194H :  0.19  477H :  0.19  570H :  0.19  414H :  0.18  426H :  0.18
  639H :  0.18  657H :  0.18  434H :  0.18  159H :  0.18  589O :  0.18  755H :  0.18  587H :  0.18  683H :  0.18  192H :  0.18  239H :  0.18  371H :  0.17  425H :  0.17
  735H :  0.17  516H :  0.17  387H :  0.17   54H :  0.16   72H :  0.16  719H :  0.16  620H :  0.16  167H :  0.16   78H :  0.16  230H :  0.16  530H :  0.16  404H :  0.16
  749H :  0.16    9H :  0.15   53H :  0.15  147H :  0.15  422H :  0.15  723H :  0.15  233H :  0.15  522H :  0.15  174H :  0.14   35H :  0.14   21H :  0.14  113H :  0.14
  357H :  0.14  204H :  0.14  215H :  0.14  617H :  0.14  102H :  0.14  155H :  0.14  459H :  0.14  668H :  0.14  480H :  0.13  513H :  0.13  249H :  0.13  260H :  0.13
  543H :  0.13  411H :  0.13   44H :  0.13  534H :  0.13  359H :  0.13  545H :  0.13  276H :  0.12  506H :  0.12  549H :  0.12  581H :  0.12  126H :  0.12  245H :  0.11
  453H :  0.11  539H :  0.11  497H :  0.11  282H :  0.11  380H :  0.11  458H :  0.11  381H :  0.11  536H :  0.11   29H :  0.11  152H :  0.11  443H :  0.11  275H :  0.11
  728H :  0.10  650H :  0.10  603H :  0.10  231H :  0.10   81H :  0.10    8H :  0.10  717H :  0.10  695H :  0.10  609H :  0.10    6H :  0.10  261H :  0.10  633H :  0.10
  629H :  0.10  546H :  0.10   20H :  0.09  642H :  0.09  693H :  0.09  278H :  0.09  663H :  0.09  564H :  0.09  551H :  0.09  144H :  0.08  257H :  0.08  540H :  0.08
   89H :  0.08  353H :  0.08  500H :  0.08  738H :  0.08  476H :  0.08   71H :  0.08   90H :  0.08  726H :  0.08  507H :  0.08  716H :  0.07   18H :  0.07   87H :  0.07
  452H :  0.07  731H :  0.07
    2 LP   *******   0.00 -38.59314 -44.75650  10.80685  622O : 21.23  187O : 20.84  214O : 19.00  490O : 18.03  481O : 17.61  508O : 15.24  241O : 13.63   49O : 13.33  658O : 13.18   70O : 13.07  295O : 12.42  619O : 12.19
  118O : 11.72  325O : 11.43   94O : 11.30  196O : 11.24  394O : 11.22  754O : 10.95  628O : 10.78  223O : 10.40  130O : 10.29  262O :  9.96  175O :  9.78  451O :  9.47
  439O :  9.47  292O :  9.38  112O :  9.28  685O :  9.26  505O :  9.23  136O :  9.19  724O :  9.05  307O :  9.05  670O :  9.04  133O :  8.86  697O :  8.55  217O :  8.46
  733O :  8.41  514O :  8.30  109O :  8.21  346O :  8.13   13O :  7.82  535O :  7.81  595O :  7.74   37O :  7.67  289O :  7.59  730O :  7.44  385O :  7.42  364O :  7.39
  445O :  7.17   79O :  7.04  388O :  7.04  634O :  6.95  745O :  6.78  370O :  6.71  397O :  6.63  526O :  6.52  190O :  6.48  679O :  6.43  265O :  6.37  643O :  6.36
  268O :  6.33  178O :  6.21   40O :  6.20  568O :  6.13  316O :  6.10   64O :  6.06  562O :  6.04  529O :  6.03  277O :  5.91  502O :  5.91  373O :  5.87  640O :  5.86
  610O :  5.85   67O :  5.75   31O :  5.62  637O :  5.51  355O :  5.42  409O :  5.34  739O :  5.25  469O :  5.21  406O :  5.21  106O :  5.15  709O :  5.03  652O :  4.99
  661O :  4.90  691O :  4.86  718O :  4.85  349O :  4.81  418O :  4.77   28O :  4.74   46O :  4.69  298O :  4.65   58O :  4.65   97O :  4.59   19O :  4.57  334O :  4.52
  649O :  4.45  646O :  4.42  580O :  4.41  736O :  4.41  655O :  4.35  493O :  4.34  538O :  4.34  484O :  4.23  454O :  4.23  517O :  4.23  205O :  4.20  391O :  4.14
  376O :  4.13  166O :  4.12  163O :  4.11  523O :  4.06  400O :  3.98  478O :  3.97  631O :  3.96  226O :  3.87  559O :  3.79   88O :  3.73  742O :  3.73  430O :  3.72
  382O :  3.67  487O :  3.67  565O :  3.61  466O :  3.55  271O :  3.53  250O :  3.48  550O :  3.48  208O :  3.45  121O :  3.42  460O :  3.39  541O :  3.33  229O :  3.33
  148O :  3.31  700O :  3.27  598O :  3.26  328O :  3.25  571O :  3.19  313O :  3.16  553O :  3.09  259O :  3.07  544O :  3.04  421O :  2.97  613O :  2.94  199O :  2.94
   85O :  2.92  100O :  2.86  403O :  2.86  310O :  2.85  352O :  2.83   61O :  2.83   52O :  2.82  715O :  2.82  412O :  2.80  688O :  2.79  343O :  2.77   10O :  2.76
  244O :  2.75  103O :  2.73  577O :  2.65  592O :  2.55   16O :  2.52  463O :  2.52  160O :  2.51  586O :  2.50  115O :  2.46  673O :  2.43   73O :  2.40  472O :  2.39
  253O :  2.38  337O :  2.35  181O :  2.32  238O :  2.30  379O :  2.15  340O :  2.13  157O :  2.12  127O :  2.11  751O :  2.07  184O :  2.03  727O :  2.00  232O :  1.95
  235O :  1.94  427O :  1.94  361O :  1.93  176H :  1.90  154O :  1.89  625O :  1.88   22O :  1.86  556O :  1.82  358O :  1.81  347H :  1.79  424O :  1.73  304O :  1.72
    4O :  1.70  706O :  1.68  616O :  1.68    7O :  1.57  475O :  1.57  331O :  1.51  124O :  1.50  703O :  1.47  511O :  1.47  399H :  1.45   76O :  1.42  220O :  1.41
  415O :  1.38  660H :  1.36  322O :  1.36  712O :  1.35  499O :  1.35  145O :  1.34  482H :  1.33   91O :  1.33   25O :  1.30  448O :  1.29  496O :  1.28  274O :  1.28
   55O :  1.27  601O :  1.26  682O :  1.24  309H :  1.23  597H :  1.22  291H :  1.19  694O :  1.16  554H :  1.15  256O :  1.14  621H :  1.13  280O :  1.12  286O :  1.12
  374H :  1.09  457O :  1.09  664O :  1.05  442O :  1.05  686H :  1.04  211O :  1.02  224H :  1.02  193O :  1.02  636H :  1.01  532O :  1.01   34O :  1.00   68H :  0.96
  317H :  0.95  191H :  0.93  520O :  0.93  172O :  0.93  225H :  0.92  301O :  0.91  247O :  0.90  671H :  0.89  314H :  0.89  419H :  0.88  330H :  0.88  319O :  0.87
  748O :  0.87  583O :  0.86  441H :  0.86   30H :  0.85  433O :  0.84  464H :  0.83  283O :  0.83  207H :  0.83  635H :  0.81   82O :  0.81  594H :  0.81  308H :  0.79
  667O :  0.76  604O :  0.75  746H :  0.74  547O :  0.72   60H :  0.72  110H :  0.69  711H :  0.69   17H :  0.67   32H :  0.67  574O :  0.66  135H :  0.66  638H :  0.64
  721O :  0.64   66H :  0.64  128H :  0.63  142O :  0.63   75H :  0.63  436O :  0.63  365H :  0.63  672H :  0.62  151O :  0.62   15H :  0.61  471H :  0.60  242H :  0.59
  607O :  0.59  180H :  0.59  105H :  0.58  273H :  0.56  200H :  0.55  396H :  0.55   14H :  0.55   48H :  0.54  429H :  0.53  296H :  0.53  676O :  0.53  162H :  0.53
  665H :  0.52  183H :  0.51  272H :  0.51  479H :  0.50  392H :  0.49  293H :  0.49  107H :  0.48  101H :  0.47  485H :  0.47  169O :  0.46   23H :  0.46  552H :  0.46
  555H :  0.46  294H :  0.46  648H :  0.46  743H :  0.46  269H :  0.45  327H :  0.45  680H :  0.45  297H :  0.45  168H :  0.45   57H :  0.45   43O :  0.44  377H :  0.44
  627H :  0.42  116H :  0.42  525H :  0.42  132H :  0.41    1O :  0.41  182H :  0.41  626H :  0.40  339H :  0.39  287H :  0.38  164H :  0.38  393H :  0.37  395H :  0.37
  336H :  0.36  573H :  0.36  557H :  0.36  470H :  0.36  488H :  0.35  645H :  0.35  139O :  0.34  491H :  0.34  402H :  0.34  299H :  0.34  300H :  0.34  227H :  0.33
   95H :  0.33  185H :  0.32  575H :  0.32  123H :  0.32  504H :  0.32  122H :  0.32  398H :  0.32  725H :  0.32  710H :  0.31  111H :  0.31  323H :  0.31  195H :  0.31
  494H :  0.31  372H :  0.31  264H :  0.30  384H :  0.30  326H :  0.30  240H :  0.30  197H :  0.29  720H :  0.29  375H :  0.29  362H :  0.29  440H :  0.29   65H :  0.29
  202O :  0.29  591H :  0.29  279H :  0.28  531H :  0.28  677H :  0.28  165H :  0.28   38H :  0.27  647H :  0.27  329H :  0.27  618H :  0.27   62H :  0.27  662H :  0.26
  687H :  0.26  341H :  0.26   84H :  0.26  615H :  0.26  356H :  0.25  734H :  0.25   69H :  0.25  401H :  0.25  518H :  0.25  367O :  0.25  561H :  0.24  579H :  0.24
  501H :  0.24  417H :  0.24  206H :  0.24    5H :  0.24  689H :  0.23  131H :  0.23  492H :  0.23  630H :  0.23  572H :  0.23  243H :  0.23  509H :  0.23  563H :  0.23
   63H :  0.22  666H :  0.22  741H :  0.22  158H :  0.22  333H :  0.21  342H :  0.21  251H :  0.21  263H :  0.21  524H :  0.21  248H :  0.21  266H :  0.21  378H :  0.20
  312H :  0.20  659H :  0.20  708H :  0.20  213H :  0.20  348H :  0.19  569H :  0.19   59H :  0.19  194H :  0.19  215H :  0.19  477H :  0.19  589O :  0.19  570H :  0.18
  414H :  0.18  426H :  0.18  639H :  0.18  657H :  0.18  434H :  0.18  159H :  0.18  755H :  0.17  587H :  0.17  683H :  0.17  192H :  0.17  516H :  0.17  239H :  0.17
  371H :  0.17  425H :  0.17  735H :  0.17  387H :  0.17   72H :  0.16   54H :  0.16  719H :  0.16  620H :  0.16  167H :  0.16   78H :  0.16  230H :  0.16  530H :  0.16
  404H :  0.15  749H :  0.15    9H :  0.15   53H :  0.15  147H :  0.15  422H :  0.15  723H :  0.15  233H :  0.14  522H :  0.14  174H :  0.14   35H :  0.14   21H :  0.14
  113H :  0.14  357H :  0.14  204H :  0.14  617H :  0.14  102H :  0.14  155H :  0.14  459H :  0.13  668H :  0.13  480H :  0.13  513H :  0.13  249H :  0.13  260H :  0.12
  543H :  0.12  411H :  0.12   44H :  0.12  534H :  0.12  359H :  0.12  545H :  0.12  276H :  0.12  506H :  0.12  549H :  0.12  581H :  0.12  126H :  0.11  245H :  0.11
  453H :  0.11  539H :  0.11  497H :  0.11  282H :  0.11  380H :  0.11  458H :  0.11  381H :  0.11  536H :  0.11  152H :  0.11   29H :  0.11  443H :  0.11  275H :  0.10
  728H :  0.10  650H :  0.10  603H :  0.10  231H :  0.10   81H :  0.10    8H :  0.10  717H :  0.10  695H :  0.10  609H :  0.10    6H :  0.10  261H :  0.10  629H :  0.09
  633H :  0.09  546H :  0.09  642H :  0.09   20H :  0.09  693H :  0.09  278H :  0.09  663H :  0.09  564H :  0.08  551H :  0.08  144H :  0.08  257H :  0.08  540H :  0.08
   89H :  0.08  353H :  0.08  500H :  0.08  738H :  0.08  476H :  0.08   90H :  0.08  726H :  0.08  507H :  0.07  716H :  0.07   71H :  0.07   18H :  0.07   87H :  0.07
  452H :  0.07
    3 LP   *******   0.00 -76.40281 -12.84477 -11.43528  622O : 20.02  187O : 19.65  214O : 17.79  481O : 16.60   70O : 14.77  508O : 14.37  490O : 14.03  241O : 12.85   49O : 12.57  658O : 12.43  295O : 11.71  619O : 11.47
  118O : 11.04  325O : 10.78   94O : 10.65  196O : 10.60  394O : 10.57  754O : 10.33  628O : 10.17  223O :  9.81  130O :  9.70  262O :  9.39  175O :  9.27  439O :  8.93
  451O :  8.93  292O :  8.84  112O :  8.74  685O :  8.72  505O :  8.70  136O :  8.66  724O :  8.54  307O :  8.53  670O :  8.52  133O :  8.36  697O :  8.06  217O :  7.97
  733O :  7.93  514O :  7.75  109O :  7.74  346O :  7.67   13O :  7.37  535O :  7.36  595O :  7.29   37O :  7.23  289O :  7.15  730O :  7.01  385O :  7.00  364O :  6.96
  445O :  6.76   79O :  6.64  388O :  6.63  634O :  6.55  745O :  6.40  370O :  6.32  397O :  6.25  526O :  6.14  190O :  6.11  679O :  6.06  265O :  6.01  643O :  6.00
  268O :  5.96  178O :  5.85   40O :  5.85  568O :  5.78  316O :  5.75   64O :  5.72  562O :  5.69  529O :  5.69  277O :  5.57  502O :  5.57  373O :  5.53  640O :  5.52
  610O :  5.51   67O :  5.33   31O :  5.29  637O :  5.19  355O :  5.11  409O :  5.03  739O :  4.95  469O :  4.92  406O :  4.91  106O :  4.86  709O :  4.75  652O :  4.70
  661O :  4.62  691O :  4.58  718O :  4.57  349O :  4.52  418O :  4.50   28O :  4.47   46O :  4.42   58O :  4.39  298O :  4.38   97O :  4.33   19O :  4.32  334O :  4.27
  649O :  4.19  646O :  4.17  580O :  4.15  736O :  4.15  655O :  4.10  493O :  4.09  538O :  4.09  484O :  3.99  454O :  3.99  517O :  3.98  205O :  3.96  391O :  3.90
  376O :  3.90  166O :  3.88  163O :  3.88  523O :  3.83  400O :  3.75  478O :  3.74  631O :  3.73  226O :  3.66  559O :  3.57   88O :  3.52  430O :  3.52  742O :  3.51
  382O :  3.46  487O :  3.40  565O :  3.40  466O :  3.35  271O :  3.33  250O :  3.28  550O :  3.28  208O :  3.26  121O :  3.22  460O :  3.19  541O :  3.14  229O :  3.14
  148O :  3.11  700O :  3.08  598O :  3.07  328O :  3.06  571O :  3.01  313O :  2.98  553O :  2.91  259O :  2.89  544O :  2.87  421O :  2.80  613O :  2.77  199O :  2.77
   85O :  2.76  100O :  2.70  403O :  2.69  310O :  2.69  352O :  2.67   61O :  2.67   52O :  2.66  715O :  2.66  412O :  2.63  688O :  2.63  343O :  2.62   10O :  2.60
  244O :  2.60  103O :  2.57  577O :  2.47  592O :  2.40   16O :  2.38  463O :  2.37  160O :  2.37  586O :  2.35  115O :  2.32  673O :  2.29   73O :  2.27  472O :  2.25
  253O :  2.25  337O :  2.22  181O :  2.19  238O :  2.17  127O :  2.12  379O :  2.03  157O :  2.00  340O :  1.99  751O :  1.96  184O :  1.92  727O :  1.88  232O :  1.84
  235O :  1.83  427O :  1.83  176H :  1.83  361O :  1.82  154O :  1.78  625O :  1.77   22O :  1.75  556O :  1.71  358O :  1.71  347H :  1.69  424O :  1.63  304O :  1.62
    4O :  1.61  616O :  1.58  706O :  1.58    7O :  1.48  475O :  1.48  331O :  1.43  124O :  1.42  601O :  1.41  703O :  1.39  511O :  1.38  399H :  1.37   76O :  1.35
  220O :  1.33  415O :  1.30  660H :  1.29  322O :  1.28  712O :  1.28  499O :  1.27  145O :  1.26  482H :  1.25   91O :  1.25   25O :  1.24   55O :  1.23  448O :  1.21
  496O :  1.21  274O :  1.20  682O :  1.17  309H :  1.16  597H :  1.15  291H :  1.12  694O :  1.09  554H :  1.08  256O :  1.08  621H :  1.07  286O :  1.06  374H :  1.03
  280O :  1.03  457O :  1.03  664O :  0.99  442O :  0.99  686H :  0.98  211O :  0.97  193O :  0.97  224H :  0.97  636H :  0.96  532O :  0.95   34O :  0.94  317H :  0.89
  191H :  0.88   68H :  0.88  520O :  0.88  172O :  0.88  225H :  0.87  301O :  0.86  247O :  0.85  671H :  0.84  314H :  0.83  419H :  0.83  330H :  0.83  319O :  0.83
  748O :  0.82  583O :  0.81  441H :  0.81   30H :  0.80  433O :  0.79  464H :  0.79  283O :  0.79  207H :  0.78  635H :  0.77   82O :  0.77  594H :  0.76  308H :  0.75
  667O :  0.71  604O :  0.71  746H :  0.70  547O :  0.68   60H :  0.67  110H :  0.65  711H :  0.65   17H :  0.63   32H :  0.63  574O :  0.63  135H :  0.62  638H :  0.60
  721O :  0.60   66H :  0.60  142O :  0.59   75H :  0.59  436O :  0.59  365H :  0.59  672H :  0.59  151O :  0.59  128H :  0.58   15H :  0.58  471H :  0.56  242H :  0.56
  607O :  0.56  180H :  0.55  105H :  0.55  273H :  0.52  200H :  0.52  396H :  0.51   14H :  0.51   48H :  0.51  429H :  0.50  296H :  0.50  676O :  0.50  162H :  0.50
  665H :  0.49  183H :  0.48  272H :  0.48  479H :  0.47  392H :  0.46  293H :  0.46  107H :  0.45  101H :  0.45  485H :  0.44  169O :  0.44   23H :  0.44  552H :  0.44
  555H :  0.43  294H :  0.43  648H :  0.43  743H :  0.43  269H :  0.43  327H :  0.42  680H :  0.42  297H :  0.42  168H :  0.42   57H :  0.42   43O :  0.41  377H :  0.41
  491H :  0.40  627H :  0.40  116H :  0.40  525H :  0.39  132H :  0.39    1O :  0.38  182H :  0.38  626H :  0.37  339H :  0.37  287H :  0.36  164H :  0.36  393H :  0.35
  395H :  0.35  336H :  0.34  573H :  0.34  557H :  0.34  470H :  0.34  488H :  0.33  645H :  0.33  139O :  0.32  402H :  0.32  299H :  0.32  227H :  0.32  300H :  0.32
   95H :  0.31  185H :  0.31  575H :  0.30  123H :  0.30  504H :  0.30  122H :  0.30  398H :  0.30  725H :  0.30  710H :  0.30  111H :  0.30  323H :  0.29  195H :  0.29
  494H :  0.29  372H :  0.29  264H :  0.29  384H :  0.28  326H :  0.28  492H :  0.28  240H :  0.28  197H :  0.28  720H :  0.28  375H :  0.28  362H :  0.28  440H :  0.27
  202O :  0.27   65H :  0.27  591H :  0.27  279H :  0.27  531H :  0.26  677H :  0.26   69H :  0.26  165H :  0.26   38H :  0.26  647H :  0.26  329H :  0.25  618H :  0.25
   62H :  0.25  662H :  0.25  687H :  0.25  341H :  0.24   84H :  0.24  615H :  0.24  356H :  0.24  734H :  0.24  401H :  0.23  518H :  0.23  367O :  0.23  561H :  0.23
  579H :  0.23  501H :  0.23  417H :  0.22  206H :  0.22    5H :  0.22  689H :  0.22  131H :  0.22  630H :  0.22  572H :  0.21  243H :  0.21  509H :  0.21  563H :  0.21
   63H :  0.21  666H :  0.21  741H :  0.20  158H :  0.20  333H :  0.20  342H :  0.20  251H :  0.20  263H :  0.20  524H :  0.20  248H :  0.20  266H :  0.20  378H :  0.19
  312H :  0.19  659H :  0.19  708H :  0.19  213H :  0.19  215H :  0.18  348H :  0.18  569H :  0.18   59H :  0.18  194H :  0.18  477H :  0.18  570H :  0.17  414H :  0.17
  426H :  0.17  639H :  0.17  657H :  0.17  434H :  0.17  159H :  0.17  589O :  0.17  755H :  0.16  587H :  0.16  683H :  0.16  192H :  0.16  239H :  0.16  371H :  0.16
  425H :  0.16  735H :  0.16  516H :  0.16  387H :  0.16   54H :  0.15  719H :  0.15  167H :  0.15  620H :  0.15   78H :  0.15  230H :  0.15  530H :  0.15  404H :  0.15
  749H :  0.14    9H :  0.14   53H :  0.14  147H :  0.14  422H :  0.14  723H :  0.14  233H :  0.14  522H :  0.14  174H :  0.13   35H :  0.13   21H :  0.13  113H :  0.13
  357H :  0.13  204H :  0.13  617H :  0.13  102H :  0.13  155H :  0.13  459H :  0.13  668H :  0.13  480H :  0.12  513H :  0.12  249H :  0.12  260H :  0.12  543H :  0.12
  411H :  0.12   44H :  0.12  545H :  0.12  359H :  0.12  534H :  0.12  276H :  0.12  506H :  0.12  549H :  0.12  581H :  0.11  126H :  0.11  245H :  0.11  453H :  0.11
  539H :  0.11  497H :  0.10  380H :  0.10  458H :  0.10  381H :  0.10  536H :  0.10  152H :  0.10   29H :  0.10  443H :  0.10  282H :  0.10  275H :  0.10  728H :  0.10
  650H :  0.10  603H :  0.10  231H :  0.09   81H :  0.09    8H :  0.09  717H :  0.09   72H :  0.09  695H :  0.09  609H :  0.09    6H :  0.09  261H :  0.09  633H :  0.09
  629H :  0.09  546H :  0.09  642H :  0.09   20H :  0.09  693H :  0.08  278H :  0.08  663H :  0.08  564H :  0.08  551H :  0.08  144H :  0.08  257H :  0.08  540H :  0.08
   89H :  0.08  353H :  0.08  500H :  0.07  738H :  0.07  476H :  0.07   90H :  0.07  726H :  0.07  507H :  0.07
    4 LP   *******   0.00-107.32193  16.98900  -2.06482  622O : 19.86  187O : 19.49  481O : 18.62  214O : 17.77  508O : 14.25  490O : 13.92  241O : 12.75   49O : 12.47  658O : 12.33   70O : 12.22  295O : 11.61  619O : 11.38
  118O : 10.95  325O : 10.68   94O : 10.56  394O : 10.49  754O : 10.24  196O : 10.21  628O : 10.09  223O :  9.89  130O :  9.62  262O :  9.31  175O :  9.15  439O :  8.86
  451O :  8.86  292O :  8.77  112O :  8.68  685O :  8.65  505O :  8.63  136O :  8.59  724O :  8.46  307O :  8.46  670O :  8.46  133O :  8.29  697O :  8.00  217O :  7.91
  733O :  7.87  514O :  7.69  109O :  7.67  346O :  7.55   13O :  7.31  535O :  7.30  595O :  7.23   37O :  7.17  289O :  7.09  730O :  6.95  385O :  6.94  364O :  6.91
  445O :  6.70   79O :  6.58  388O :  6.58  634O :  6.54  745O :  6.34  370O :  6.27  397O :  6.20  526O :  6.09  190O :  6.06  679O :  6.02  265O :  5.96  643O :  5.95
  268O :  5.91  178O :  5.83   40O :  5.80  568O :  5.73  316O :  5.71   64O :  5.67  562O :  5.65  529O :  5.64  277O :  5.52  502O :  5.52  373O :  5.48  640O :  5.48
  610O :  5.47   67O :  5.38   31O :  5.25  637O :  5.15  355O :  5.07  409O :  4.99  739O :  4.91  469O :  4.87  406O :  4.87  106O :  4.82  709O :  4.71  652O :  4.66
  661O :  4.58  691O :  4.55  718O :  4.54  349O :  4.49  418O :  4.46   28O :  4.43   46O :  4.39  298O :  4.35   58O :  4.35   97O :  4.29   19O :  4.28  334O :  4.23
  649O :  4.16  646O :  4.14  580O :  4.12  736O :  4.12  655O :  4.07  493O :  4.06  538O :  4.05  517O :  3.95  454O :  3.95  484O :  3.95  205O :  3.93  391O :  3.87
  376O :  3.87  166O :  3.85  163O :  3.85  523O :  3.80  400O :  3.72  478O :  3.71  631O :  3.70  226O :  3.62  559O :  3.55   88O :  3.49  430O :  3.49  742O :  3.48
  382O :  3.43  487O :  3.38  565O :  3.37  466O :  3.32  271O :  3.30  250O :  3.25  550O :  3.25  208O :  3.23  121O :  3.20  460O :  3.17  541O :  3.11  229O :  3.11
  148O :  3.09  700O :  3.06  598O :  3.05  328O :  3.04  571O :  2.99  313O :  2.95  553O :  2.89  259O :  2.87  544O :  2.84  421O :  2.78  613O :  2.75  199O :  2.75
   85O :  2.73  100O :  2.67  403O :  2.67  310O :  2.66  352O :  2.65   61O :  2.64   52O :  2.64  715O :  2.63  412O :  2.63  688O :  2.61  343O :  2.59   10O :  2.58
  244O :  2.58  103O :  2.55  577O :  2.48  592O :  2.38   16O :  2.36  463O :  2.35  160O :  2.35  586O :  2.34  115O :  2.30  673O :  2.27   73O :  2.25  472O :  2.23
  253O :  2.23  337O :  2.20  181O :  2.17  238O :  2.16  379O :  2.01  340O :  1.99  157O :  1.98  127O :  1.97  751O :  1.93  184O :  1.90  727O :  1.87  232O :  1.82
  235O :  1.82  427O :  1.82  361O :  1.81  176H :  1.78  154O :  1.77  625O :  1.76   22O :  1.74  358O :  1.69  556O :  1.69  347H :  1.64  424O :  1.61  304O :  1.60
    4O :  1.59  706O :  1.57  616O :  1.57    7O :  1.47  475O :  1.46  331O :  1.42  124O :  1.40  601O :  1.39  703O :  1.37  399H :  1.37  511O :  1.37   76O :  1.34
  220O :  1.32  415O :  1.29  660H :  1.28  322O :  1.27  712O :  1.27  499O :  1.26  145O :  1.25   91O :  1.24   25O :  1.23  448O :  1.20  496O :  1.20  274O :  1.19
   55O :  1.18  682O :  1.16  309H :  1.15  597H :  1.14  482H :  1.12  291H :  1.11  694O :  1.09  554H :  1.07  256O :  1.07  621H :  1.06  280O :  1.05  286O :  1.05
  374H :  1.02  457O :  1.02  664O :  0.98  442O :  0.98  686H :  0.97  224H :  0.97  193O :  0.96  636H :  0.96  211O :  0.96  532O :  0.94   34O :  0.93   68H :  0.90
  317H :  0.89  191H :  0.87  520O :  0.87  172O :  0.87  225H :  0.85  301O :  0.85  247O :  0.84  671H :  0.83  419H :  0.83  330H :  0.82  314H :  0.82  319O :  0.81
  748O :  0.81  583O :  0.80  441H :  0.80   30H :  0.80  433O :  0.79  464H :  0.78  207H :  0.77  283O :  0.76   82O :  0.76  635H :  0.76  594H :  0.75  308H :  0.74
  667O :  0.71  604O :  0.71  746H :  0.69  547O :  0.69   60H :  0.67  110H :  0.65  711H :  0.65   17H :  0.63   32H :  0.63  574O :  0.62  135H :  0.61  638H :  0.60
  721O :  0.60   66H :  0.60  128H :  0.59  142O :  0.59   75H :  0.59  436O :  0.59  365H :  0.58  672H :  0.58  151O :  0.58   15H :  0.57  471H :  0.56  242H :  0.55
  607O :  0.55  180H :  0.55  105H :  0.54  273H :  0.52  200H :  0.51  396H :  0.51   14H :  0.51   48H :  0.50  429H :  0.50  296H :  0.49  676O :  0.49  162H :  0.49
  665H :  0.49  183H :  0.48  272H :  0.48  479H :  0.46  392H :  0.46  293H :  0.46  107H :  0.44  101H :  0.44  485H :  0.44  169O :  0.43   23H :  0.43  552H :  0.43
  555H :  0.43  294H :  0.43  648H :  0.43  743H :  0.43  680H :  0.43  269H :  0.43  297H :  0.42  327H :  0.42   57H :  0.42  168H :  0.42   43O :  0.41  377H :  0.41
  491H :  0.40  627H :  0.39  116H :  0.39  525H :  0.39  132H :  0.38    1O :  0.38  182H :  0.38  626H :  0.37  339H :  0.37  287H :  0.36  164H :  0.36  557H :  0.35
  393H :  0.35  395H :  0.34  336H :  0.34  573H :  0.34  470H :  0.33  488H :  0.33  645H :  0.33  139O :  0.32  402H :  0.32  299H :  0.32  300H :  0.31  227H :  0.31
   95H :  0.31  185H :  0.30  575H :  0.30  123H :  0.30  398H :  0.30  504H :  0.30  122H :  0.30  725H :  0.30  710H :  0.29  111H :  0.29  323H :  0.29  195H :  0.29
  494H :  0.29  372H :  0.29  264H :  0.28  384H :  0.28  326H :  0.28  240H :  0.28  492H :  0.28  720H :  0.28  375H :  0.27  362H :  0.27  197H :  0.27  440H :  0.27
   65H :  0.27  591H :  0.27  202O :  0.27  279H :  0.26  531H :  0.26  677H :  0.26  165H :  0.26   38H :  0.26  647H :  0.26  329H :  0.25  618H :  0.25   62H :  0.25
  662H :  0.25  687H :  0.24  341H :  0.24   84H :  0.24  615H :  0.24  356H :  0.24  734H :  0.24   69H :  0.24  518H :  0.23  401H :  0.23  367O :  0.23  561H :  0.23
  579H :  0.22  501H :  0.22  417H :  0.22  206H :  0.22    5H :  0.22  689H :  0.22  131H :  0.22  630H :  0.21  572H :  0.21  243H :  0.21  509H :  0.21  563H :  0.21
   63H :  0.21  666H :  0.21  741H :  0.20  158H :  0.20  333H :  0.20  342H :  0.20  251H :  0.20  263H :  0.20  524H :  0.20  248H :  0.20  266H :  0.19  348H :  0.19
  378H :  0.19  312H :  0.19  659H :  0.19  708H :  0.19  213H :  0.18  569H :  0.18   59H :  0.18  194H :  0.18  215H :  0.18  477H :  0.18  570H :  0.17  426H :  0.17
  639H :  0.17  657H :  0.17  434H :  0.17  159H :  0.16  589O :  0.16  239H :  0.16  755H :  0.16  587H :  0.16  683H :  0.16  192H :  0.16  371H :  0.16  425H :  0.16
  414H :  0.16  735H :  0.16  516H :  0.16  387H :  0.16   72H :  0.15   54H :  0.15  719H :  0.15   78H :  0.15  167H :  0.15  620H :  0.15  230H :  0.15  530H :  0.15
  404H :  0.14  749H :  0.14    9H :  0.14   53H :  0.14  147H :  0.14  422H :  0.14  723H :  0.14  233H :  0.14  522H :  0.14  174H :  0.13   35H :  0.13   21H :  0.13
  113H :  0.13  357H :  0.13  204H :  0.13  617H :  0.13  102H :  0.13  155H :  0.13  459H :  0.13  668H :  0.12  480H :  0.12  513H :  0.12  249H :  0.12  260H :  0.12
  543H :  0.12  534H :  0.12   44H :  0.12  411H :  0.12  359H :  0.12  545H :  0.12  276H :  0.12  506H :  0.11  581H :  0.11  549H :  0.11  126H :  0.11  245H :  0.11
  453H :  0.11  539H :  0.10  497H :  0.10  282H :  0.10  380H :  0.10  458H :  0.10  381H :  0.10  536H :  0.10  152H :  0.10   29H :  0.10  443H :  0.10  275H :  0.10
  728H :  0.10  650H :  0.10  603H :  0.10  231H :  0.09   81H :  0.09    8H :  0.09  717H :  0.09  695H :  0.09  609H :  0.09    6H :  0.09  261H :  0.09  633H :  0.09
  629H :  0.09  546H :  0.09  642H :  0.09   20H :  0.09  693H :  0.08  278H :  0.08  663H :  0.08  564H :  0.08  551H :  0.08  144H :  0.08  257H :  0.08  540H :  0.08
   89H :  0.08  353H :  0.07  500H :  0.07  738H :  0.07  476H :  0.07   90H :  0.07  726H :  0.07
    5 LP   *******   0.00  23.56471  -0.41131   2.26249  622O : 21.08  187O : 19.19  214O : 17.49  481O : 16.21  508O : 14.03  490O : 13.70  241O : 12.55   49O : 12.27  658O : 12.13   70O : 12.03  295O : 11.43  619O : 11.20
  118O : 10.78  325O : 10.52   94O : 10.40  196O : 10.34  394O : 10.32  754O : 10.08  628O :  9.93  223O :  9.57  130O :  9.47  262O :  9.15  175O :  9.01  439O :  8.72
  451O :  8.72  292O :  8.63  112O :  8.55  685O :  8.52  505O :  8.49  136O :  8.46  307O :  8.33  670O :  8.32  724O :  8.30  133O :  8.16  697O :  7.87  217O :  7.78
  733O :  7.74  514O :  7.57  109O :  7.55  346O :  7.48   13O :  7.20  535O :  7.19  595O :  7.12   37O :  7.06  289O :  6.98  385O :  6.83  364O :  6.80  730O :  6.67
  445O :  6.60   79O :  6.48  388O :  6.48  634O :  6.40  745O :  6.24  370O :  6.17  397O :  6.10  526O :  6.00  190O :  5.97  679O :  5.92  265O :  5.86  643O :  5.86
  268O :  5.82  178O :  5.72   40O :  5.71  568O :  5.64  316O :  5.62   64O :  5.58  562O :  5.56  529O :  5.55  277O :  5.44  502O :  5.44  373O :  5.40  640O :  5.39
  610O :  5.38   67O :  5.29   31O :  5.17  637O :  5.07  355O :  4.99  409O :  4.91  739O :  4.84  469O :  4.80  406O :  4.79  106O :  4.74  709O :  4.64  652O :  4.59
  661O :  4.51  691O :  4.48  718O :  4.47  349O :  4.42  418O :  4.39   28O :  4.36   46O :  4.32  298O :  4.29   58O :  4.28   97O :  4.22   19O :  4.21  334O :  4.16
  649O :  4.09  646O :  4.07  736O :  4.06  580O :  4.05  493O :  3.99  538O :  3.99  484O :  3.89  454O :  3.89  517O :  3.89  205O :  3.87  391O :  3.81  376O :  3.81
  166O :  3.79  163O :  3.79  523O :  3.74  400O :  3.66  478O :  3.65  631O :  3.65  226O :  3.56  559O :  3.49  655O :  3.48   88O :  3.44  430O :  3.43  742O :  3.43
  382O :  3.38  487O :  3.32  565O :  3.32  466O :  3.27  271O :  3.25  250O :  3.20  550O :  3.20  208O :  3.18  121O :  3.15  460O :  3.12  541O :  3.07  229O :  3.06
  148O :  3.05  700O :  3.01  598O :  3.00  328O :  2.99  571O :  2.94  313O :  2.91  553O :  2.84  259O :  2.83  544O :  2.80  421O :  2.74  199O :  2.71  613O :  2.69
   85O :  2.69  100O :  2.63  403O :  2.63  310O :  2.62  352O :  2.60   61O :  2.60   52O :  2.60  715O :  2.59  412O :  2.57  688O :  2.57  343O :  2.55   10O :  2.54
  244O :  2.54  103O :  2.51  577O :  2.44  592O :  2.35   16O :  2.32  463O :  2.32  160O :  2.31  586O :  2.30  115O :  2.26  673O :  2.24   73O :  2.21  472O :  2.20
  253O :  2.19  337O :  2.17  181O :  2.14  238O :  2.12  379O :  1.98  340O :  1.96  157O :  1.95  127O :  1.94  751O :  1.90  184O :  1.87  727O :  1.84  232O :  1.80
  235O :  1.79  427O :  1.79  361O :  1.78  176H :  1.75  154O :  1.74  625O :  1.73   22O :  1.72  556O :  1.67  358O :  1.67  347H :  1.65  424O :  1.59  304O :  1.58
    4O :  1.57  616O :  1.55  706O :  1.55    7O :  1.44  475O :  1.44  331O :  1.39  124O :  1.38  601O :  1.37  703O :  1.35  511O :  1.35  399H :  1.33   76O :  1.30
  220O :  1.30  415O :  1.27  660H :  1.26  322O :  1.25  712O :  1.25  499O :  1.24  145O :  1.23  482H :  1.22   91O :  1.22   25O :  1.21  448O :  1.19  496O :  1.18
  274O :  1.17   55O :  1.17  682O :  1.14  309H :  1.13  597H :  1.12  291H :  1.09  694O :  1.07  554H :  1.05  256O :  1.05  621H :  1.04  280O :  1.03  286O :  1.03
  374H :  1.01  457O :  1.01  664O :  0.97  686H :  0.96  442O :  0.95  211O :  0.94  224H :  0.94  193O :  0.94  636H :  0.93  532O :  0.93   34O :  0.92   68H :  0.89
  317H :  0.87  191H :  0.86  520O :  0.86  172O :  0.86  225H :  0.85  301O :  0.84  247O :  0.83  671H :  0.82  314H :  0.81  419H :  0.81  330H :  0.81  319O :  0.80
  748O :  0.80  583O :  0.79  441H :  0.79   30H :  0.78  433O :  0.78  464H :  0.77  283O :  0.77  207H :  0.76  635H :  0.75   82O :  0.75  594H :  0.74  308H :  0.73
  667O :  0.70  604O :  0.69  746H :  0.68  547O :  0.66   60H :  0.66  110H :  0.64  711H :  0.64   17H :  0.62   32H :  0.62  574O :  0.61  135H :  0.60  721O :  0.59
  638H :  0.59   66H :  0.59  128H :  0.58  142O :  0.58   75H :  0.58  436O :  0.58  365H :  0.58  672H :  0.57  151O :  0.57   15H :  0.56  471H :  0.55  242H :  0.55
  607O :  0.54  180H :  0.54  105H :  0.53  273H :  0.51  200H :  0.51   14H :  0.50  396H :  0.50   48H :  0.49  429H :  0.49  296H :  0.49  162H :  0.48  676O :  0.48
  665H :  0.48  183H :  0.47  272H :  0.47  479H :  0.46  392H :  0.45  293H :  0.45  107H :  0.44  101H :  0.44  485H :  0.43  169O :  0.43   23H :  0.43  552H :  0.42
  555H :  0.42  294H :  0.42  648H :  0.42  743H :  0.42  269H :  0.42  327H :  0.41  680H :  0.41  297H :  0.41   57H :  0.41  168H :  0.41   43O :  0.40  377H :  0.40
  491H :  0.39  627H :  0.39  116H :  0.39  525H :  0.38  132H :  0.38    1O :  0.38  182H :  0.37  626H :  0.36  339H :  0.36  287H :  0.35  164H :  0.35  393H :  0.34
  395H :  0.34  336H :  0.34  573H :  0.33  557H :  0.33  470H :  0.33  488H :  0.32  645H :  0.32  139O :  0.32  402H :  0.31  299H :  0.31  300H :  0.31  227H :  0.31
   95H :  0.30  185H :  0.30  575H :  0.30  123H :  0.30  504H :  0.29  122H :  0.29  398H :  0.29  710H :  0.29  111H :  0.29  323H :  0.29  725H :  0.29  195H :  0.28
  494H :  0.28  372H :  0.28  264H :  0.28  384H :  0.28  326H :  0.28  492H :  0.27  240H :  0.27  197H :  0.27  720H :  0.27  375H :  0.27  362H :  0.27  440H :  0.27
   65H :  0.26  591H :  0.26  202O :  0.26  279H :  0.26  531H :  0.26  677H :  0.26  165H :  0.25   38H :  0.25  647H :  0.25  329H :  0.25  618H :  0.24   62H :  0.24
  662H :  0.24  687H :  0.24  341H :  0.24   84H :  0.24  615H :  0.23  356H :  0.23  734H :  0.23   69H :  0.23  401H :  0.23  518H :  0.23  367O :  0.23  561H :  0.22
  579H :  0.22  501H :  0.22  417H :  0.22  206H :  0.22    5H :  0.22  689H :  0.21  131H :  0.21  630H :  0.21  572H :  0.21  243H :  0.21  509H :  0.21  563H :  0.21
   63H :  0.20  666H :  0.20  741H :  0.20  158H :  0.20  333H :  0.20  342H :  0.20  251H :  0.20  263H :  0.20  524H :  0.19  248H :  0.19  266H :  0.19  378H :  0.19
  312H :  0.18  659H :  0.18  708H :  0.18  213H :  0.18  348H :  0.18  569H :  0.18   59H :  0.18  194H :  0.18  215H :  0.17  477H :  0.17  570H :  0.17  414H :  0.17
  426H :  0.17  639H :  0.17  434H :  0.16  159H :  0.16  589O :  0.16  755H :  0.16  587H :  0.16  683H :  0.16  192H :  0.16  239H :  0.16  371H :  0.16  425H :  0.16
  735H :  0.16  516H :  0.15  387H :  0.15   72H :  0.15   54H :  0.15  719H :  0.15  620H :  0.15  167H :  0.15   78H :  0.15  230H :  0.14  530H :  0.14  404H :  0.14
  749H :  0.14    9H :  0.14  723H :  0.14   53H :  0.13  147H :  0.13  422H :  0.13  233H :  0.13  522H :  0.13  174H :  0.13   35H :  0.13   21H :  0.13  113H :  0.13
  357H :  0.13  204H :  0.13  617H :  0.13  102H :  0.12  155H :  0.12  459H :  0.12  668H :  0.12  480H :  0.12  513H :  0.12  249H :  0.12  260H :  0.11  543H :  0.11
  411H :  0.11   44H :  0.11  359H :  0.11  534H :  0.11  545H :  0.11  276H :  0.11  549H :  0.11  506H :  0.11  581H :  0.11  126H :  0.11  245H :  0.10  453H :  0.10
  539H :  0.10  497H :  0.10  282H :  0.10  380H :  0.10  458H :  0.10  381H :  0.10  536H :  0.10  152H :  0.10   29H :  0.10  275H :  0.10  443H :  0.10  728H :  0.09
  650H :  0.09  603H :  0.09  231H :  0.09   81H :  0.09    8H :  0.09  717H :  0.09  695H :  0.09  609H :  0.09    6H :  0.09  261H :  0.09  633H :  0.09  629H :  0.09
  546H :  0.09  642H :  0.09   20H :  0.09  693H :  0.08  278H :  0.08  663H :  0.08  564H :  0.08  551H :  0.08  144H :  0.08  257H :  0.08  540H :  0.07   89H :  0.07
  353H :  0.07  500H :  0.07  738H :  0.07  476H :  0.07   90H :  0.07
    6 LP   *******   0.00 -24.18083  38.80267 -27.19687  622O : 18.55  187O : 18.21  214O : 16.60  481O : 15.38  658O : 14.51  508O : 13.32  490O : 13.00  241O : 11.91   49O : 11.65   70O : 11.42  295O : 10.85  619O : 10.63
  118O : 10.24  325O :  9.98   94O :  9.87  196O :  9.82  394O :  9.80  754O :  9.57  628O :  9.43  223O :  9.09  130O :  8.99  262O :  8.70  175O :  8.55  439O :  8.28
  451O :  8.28  292O :  8.19  112O :  8.11  685O :  8.08  505O :  8.06  136O :  8.01  724O :  7.91  670O :  7.90  307O :  7.90  133O :  7.74  697O :  7.45  217O :  7.39
  733O :  7.34  514O :  7.18  109O :  7.17  346O :  7.10   13O :  6.83  535O :  6.82  595O :  6.76   37O :  6.70  289O :  6.64  730O :  6.50  385O :  6.49  364O :  6.45
  445O :  6.26   79O :  6.15  388O :  6.15  634O :  6.07  745O :  5.93  370O :  5.86  397O :  5.79  526O :  5.69  190O :  5.66  679O :  5.62  265O :  5.57  643O :  5.55
  268O :  5.53  178O :  5.42   40O :  5.42  568O :  5.36  316O :  5.33   64O :  5.30  562O :  5.27  529O :  5.27  277O :  5.16  502O :  5.16  373O :  5.12  640O :  5.12
  610O :  5.11   67O :  5.02   31O :  4.91  637O :  4.81  355O :  4.74  409O :  4.66  739O :  4.59  469O :  4.55  406O :  4.55  106O :  4.50  709O :  4.40  652O :  4.36
  661O :  4.27  691O :  4.25  718O :  4.24  349O :  4.20  418O :  4.17   28O :  4.14   46O :  4.10   97O :  4.08  298O :  4.07   58O :  4.06   19O :  4.00  334O :  3.95
  649O :  3.88  646O :  3.86  580O :  3.85  736O :  3.85  655O :  3.80  493O :  3.79  538O :  3.79  484O :  3.69  454O :  3.69  517O :  3.69  205O :  3.67  376O :  3.63
  391O :  3.62  166O :  3.60  163O :  3.59  523O :  3.55  400O :  3.48  478O :  3.47  631O :  3.46  226O :  3.38  559O :  3.31   88O :  3.26  430O :  3.26  742O :  3.25
  382O :  3.20  487O :  3.15  565O :  3.15  466O :  3.10  271O :  3.08  250O :  3.04  550O :  3.04  208O :  3.02  121O :  2.99  460O :  2.96  541O :  2.91  229O :  2.91
  148O :  2.90  700O :  2.85  598O :  2.85  328O :  2.84  571O :  2.79  313O :  2.76  553O :  2.70  259O :  2.69  544O :  2.65  421O :  2.60  613O :  2.57  199O :  2.56
   85O :  2.55  100O :  2.50  403O :  2.49  310O :  2.49  352O :  2.47   61O :  2.47   52O :  2.47  715O :  2.46  412O :  2.44  688O :  2.44  343O :  2.42   10O :  2.41
  244O :  2.41  103O :  2.38  577O :  2.32  592O :  2.23   16O :  2.20  463O :  2.20  160O :  2.19  586O :  2.18  673O :  2.16  115O :  2.15   73O :  2.10  472O :  2.09
  253O :  2.08  337O :  2.06  181O :  2.03  238O :  2.01  379O :  1.88  157O :  1.86  340O :  1.86  127O :  1.84  751O :  1.80  184O :  1.78  727O :  1.75  232O :  1.71
  235O :  1.70  427O :  1.70  361O :  1.69  176H :  1.66  154O :  1.65  625O :  1.64   22O :  1.63  358O :  1.59  556O :  1.59  347H :  1.57  424O :  1.54  304O :  1.50
    4O :  1.49  616O :  1.47  706O :  1.47    7O :  1.37  475O :  1.37  331O :  1.32  601O :  1.30  124O :  1.30  703O :  1.28  511O :  1.28  399H :  1.27   76O :  1.24
  220O :  1.23  415O :  1.21  322O :  1.19  712O :  1.18  499O :  1.18  145O :  1.17  482H :  1.16   91O :  1.16   25O :  1.15  448O :  1.13  496O :  1.12  274O :  1.11
   55O :  1.11  660H :  1.08  682O :  1.08  309H :  1.07  597H :  1.07  291H :  1.04  694O :  1.01  554H :  1.00  256O :  1.00  621H :  0.99  280O :  0.98  286O :  0.98
  374H :  0.96  457O :  0.95  664O :  0.92  442O :  0.91  686H :  0.91  211O :  0.90  224H :  0.89  193O :  0.89  636H :  0.89  532O :  0.88   34O :  0.87   68H :  0.84
  317H :  0.83  191H :  0.82  520O :  0.82  172O :  0.81  225H :  0.80  301O :  0.80  247O :  0.78  671H :  0.78  314H :  0.77  419H :  0.77  330H :  0.77  319O :  0.76
  748O :  0.76  583O :  0.75  441H :  0.75   30H :  0.74  433O :  0.74  464H :  0.73  283O :  0.73  207H :  0.72  635H :  0.71   82O :  0.71  594H :  0.70  308H :  0.69
  667O :  0.66  604O :  0.66  746H :  0.65  547O :  0.63   60H :  0.62  110H :  0.61  711H :  0.61   17H :  0.59   32H :  0.58  574O :  0.58  135H :  0.57  638H :  0.56
  721O :  0.56   66H :  0.56  128H :  0.55  142O :  0.55   75H :  0.55  436O :  0.55  365H :  0.55  672H :  0.55  151O :  0.54   15H :  0.54  471H :  0.52  242H :  0.52
  607O :  0.52  180H :  0.51  105H :  0.50  273H :  0.49  200H :  0.48   14H :  0.48  396H :  0.48   48H :  0.47  429H :  0.47  296H :  0.46  676O :  0.46  162H :  0.46
  665H :  0.45  183H :  0.45  272H :  0.45  479H :  0.43  392H :  0.43  293H :  0.43  107H :  0.42  101H :  0.41  485H :  0.41  169O :  0.41   23H :  0.41  552H :  0.40
  555H :  0.40  294H :  0.40  648H :  0.40  743H :  0.40  269H :  0.40  327H :  0.39  680H :  0.39  297H :  0.39  168H :  0.39   57H :  0.39   43O :  0.38  377H :  0.38
  491H :  0.37  627H :  0.37  116H :  0.37  525H :  0.36  132H :  0.36    1O :  0.36  182H :  0.35  626H :  0.35  339H :  0.34  287H :  0.33  164H :  0.33  393H :  0.32
  395H :  0.32  336H :  0.32  573H :  0.32  557H :  0.31  470H :  0.31  488H :  0.31  139O :  0.30  402H :  0.30  299H :  0.30  645H :  0.30  300H :  0.29  227H :  0.29
   95H :  0.29  185H :  0.28  575H :  0.28  123H :  0.28  504H :  0.28  122H :  0.28  398H :  0.28  725H :  0.28  710H :  0.27  111H :  0.27  323H :  0.27  195H :  0.27
  494H :  0.27  372H :  0.27  264H :  0.26  384H :  0.26  326H :  0.26  492H :  0.26  240H :  0.26  720H :  0.26  197H :  0.26  375H :  0.26  362H :  0.26  440H :  0.25
   65H :  0.25  591H :  0.25  202O :  0.25  279H :  0.25  531H :  0.25  677H :  0.24  165H :  0.24   38H :  0.24  647H :  0.24  329H :  0.24  618H :  0.23   62H :  0.23
  662H :  0.23  687H :  0.23  341H :  0.23   84H :  0.22  615H :  0.22  356H :  0.22  734H :  0.22   69H :  0.22  401H :  0.22  518H :  0.22  367O :  0.21  561H :  0.21
  579H :  0.21  501H :  0.21  417H :  0.21  206H :  0.21    5H :  0.21  689H :  0.20  131H :  0.20  630H :  0.20  572H :  0.20  243H :  0.20  509H :  0.20  563H :  0.20
   63H :  0.19  666H :  0.19  158H :  0.19  741H :  0.19  333H :  0.19  342H :  0.19  263H :  0.19  524H :  0.19  251H :  0.18  266H :  0.18  248H :  0.18  378H :  0.18
  426H :  0.18  312H :  0.18  708H :  0.17  213H :  0.17  348H :  0.17  569H :  0.17   59H :  0.17  194H :  0.17  215H :  0.17  477H :  0.16  570H :  0.16  414H :  0.16
  639H :  0.16  657H :  0.16  434H :  0.16  159H :  0.15  589O :  0.15  755H :  0.15  587H :  0.15  683H :  0.15  192H :  0.15  239H :  0.15  371H :  0.15  735H :  0.15
  516H :  0.15  387H :  0.15   72H :  0.14  425H :  0.14   54H :  0.14  719H :  0.14  167H :  0.14  620H :  0.14   78H :  0.14  230H :  0.14  530H :  0.14  404H :  0.13
  749H :  0.13    9H :  0.13   53H :  0.13  659H :  0.13  147H :  0.13  723H :  0.13  233H :  0.13  522H :  0.13  422H :  0.13  174H :  0.12   35H :  0.12   21H :  0.12
  113H :  0.12  357H :  0.12  204H :  0.12  617H :  0.12  102H :  0.12  155H :  0.12  459H :  0.12  668H :  0.12  480H :  0.11  513H :  0.11  359H :  0.11  249H :  0.11
  260H :  0.11  543H :  0.11  411H :  0.11   44H :  0.11  534H :  0.11  545H :  0.11  276H :  0.11  506H :  0.11  549H :  0.11  581H :  0.11  126H :  0.10  245H :  0.10
  453H :  0.10  539H :  0.10  497H :  0.10  282H :  0.10  380H :  0.10  458H :  0.09  381H :  0.09  536H :  0.09  152H :  0.09   29H :  0.09  443H :  0.09  275H :  0.09
  728H :  0.09  650H :  0.09  603H :  0.09  231H :  0.09   81H :  0.09    8H :  0.09  717H :  0.09  695H :  0.09  609H :  0.08    6H :  0.08  261H :  0.08  633H :  0.08
  629H :  0.08  546H :  0.08  642H :  0.08   20H :  0.08  693H :  0.08  278H :  0.07  663H :  0.07  564H :  0.07  551H :  0.07  144H :  0.07  257H :  0.07  540H :  0.07
   89H :  0.07
    7 LP   *******   0.00 -87.14560  32.17536 -31.64757  622O : 18.20  187O : 17.86  214O : 16.29  241O : 15.17  481O : 15.09  508O : 13.07  490O : 12.76   49O : 11.43  658O : 11.30   70O : 11.20  295O : 10.65  619O : 10.43
  118O : 10.04  325O :  9.80   94O :  9.69  196O :  9.63  394O :  9.61  754O :  9.39  628O :  9.25  223O :  8.91  130O :  8.82  262O :  8.54  175O :  8.39  439O :  8.12
  451O :  8.12  292O :  8.04  112O :  7.96  685O :  7.93  505O :  7.91  136O :  7.88  670O :  7.76  724O :  7.76  307O :  7.76  133O :  7.60  697O :  7.33  217O :  7.25
  733O :  7.05  514O :  7.05  109O :  7.03  346O :  6.97   13O :  6.70  535O :  6.69  595O :  6.63   37O :  6.58  289O :  6.50  730O :  6.38  385O :  6.35  364O :  6.33
  445O :  6.14   79O :  6.03  388O :  6.03  634O :  5.96  745O :  5.82  370O :  5.75  397O :  5.68  526O :  5.59  190O :  5.56  679O :  5.51  265O :  5.46  643O :  5.46
  268O :  5.42  178O :  5.32   40O :  5.32  568O :  5.26  316O :  5.23   64O :  5.20  562O :  5.18  529O :  5.17  277O :  5.06  373O :  5.03  640O :  5.02  610O :  5.01
   67O :  4.93  502O :  4.88   31O :  4.81  637O :  4.72  355O :  4.65  409O :  4.59  739O :  4.50  469O :  4.47  406O :  4.46  106O :  4.42  709O :  4.32  652O :  4.28
  661O :  4.20  691O :  4.17  718O :  4.16  349O :  4.12  418O :  4.08   28O :  4.06   46O :  4.02  298O :  3.99   58O :  3.99   97O :  3.93   19O :  3.92  334O :  3.88
  649O :  3.81  646O :  3.79  580O :  3.78  736O :  3.78  655O :  3.73  493O :  3.72  538O :  3.72  484O :  3.62  454O :  3.62  517O :  3.62  205O :  3.60  391O :  3.55
  376O :  3.54  166O :  3.53  163O :  3.53  523O :  3.48  400O :  3.41  478O :  3.40  631O :  3.40  226O :  3.32  559O :  3.25   88O :  3.20  430O :  3.20  742O :  3.19
  382O :  3.14  487O :  3.09  565O :  3.09  466O :  3.04  271O :  3.02  250O :  2.98  550O :  2.98  208O :  2.96  121O :  2.93  460O :  2.90  541O :  2.86  229O :  2.85
  148O :  2.85  700O :  2.80  598O :  2.79  328O :  2.79  571O :  2.74  313O :  2.71  553O :  2.65  259O :  2.63  544O :  2.60  421O :  2.55  613O :  2.52  199O :  2.52
   85O :  2.51  100O :  2.45  403O :  2.45  310O :  2.44   61O :  2.43  352O :  2.43   52O :  2.42  715O :  2.41  412O :  2.40  688O :  2.39  343O :  2.37   10O :  2.37
  244O :  2.36  103O :  2.34  577O :  2.27  592O :  2.18   16O :  2.16  463O :  2.16  160O :  2.15  586O :  2.14  115O :  2.10  673O :  2.08   73O :  2.06  472O :  2.05
  253O :  2.04  337O :  2.02  181O :  1.99  238O :  1.97  379O :  1.85  340O :  1.82  157O :  1.82  127O :  1.81  751O :  1.77  184O :  1.74  727O :  1.71  232O :  1.67
  235O :  1.67  427O :  1.66  361O :  1.66  176H :  1.63  154O :  1.62  625O :  1.61   22O :  1.60  556O :  1.56  358O :  1.55  347H :  1.54  424O :  1.48  304O :  1.47
    4O :  1.46  616O :  1.44  706O :  1.44    7O :  1.34  475O :  1.34  331O :  1.30  124O :  1.29  601O :  1.28  511O :  1.25  703O :  1.25  399H :  1.24   76O :  1.22
  220O :  1.21  415O :  1.18  712O :  1.17  660H :  1.17  322O :  1.17  499O :  1.16  145O :  1.15  482H :  1.14   91O :  1.14   25O :  1.13  448O :  1.10  496O :  1.10
  274O :  1.09   55O :  1.09  682O :  1.06  309H :  1.05  597H :  1.05  291H :  1.02  694O :  1.00  554H :  0.98  256O :  0.98  621H :  0.97  280O :  0.96  286O :  0.96
  374H :  0.94  457O :  0.94  664O :  0.90  442O :  0.90  686H :  0.89  224H :  0.88  211O :  0.88  193O :  0.88  636H :  0.87  532O :  0.86   34O :  0.85   68H :  0.83
  317H :  0.81  191H :  0.80  520O :  0.80  172O :  0.80  225H :  0.79  301O :  0.78  247O :  0.77  671H :  0.76  314H :  0.76  419H :  0.76  330H :  0.75  319O :  0.75
  748O :  0.75  583O :  0.74  441H :  0.74   30H :  0.73  433O :  0.72  464H :  0.71  283O :  0.71  207H :  0.71  635H :  0.70   82O :  0.70  594H :  0.69  308H :  0.68
  667O :  0.65  604O :  0.65  746H :  0.63  547O :  0.62   60H :  0.61  110H :  0.60  711H :  0.59   17H :  0.57   32H :  0.57  574O :  0.57  135H :  0.56  638H :  0.55
  721O :  0.55   66H :  0.55  128H :  0.54  142O :  0.54   75H :  0.54  436O :  0.54  365H :  0.54  672H :  0.54  151O :  0.53   15H :  0.53  471H :  0.51  607O :  0.51
  180H :  0.50  105H :  0.50  273H :  0.48  200H :  0.47  396H :  0.47   14H :  0.47   48H :  0.46  429H :  0.46  296H :  0.45  676O :  0.45  162H :  0.45  665H :  0.45
  183H :  0.44  272H :  0.44  242H :  0.43  479H :  0.43  392H :  0.42  293H :  0.42  107H :  0.41  101H :  0.41  485H :  0.40  169O :  0.40   23H :  0.40  552H :  0.40
  555H :  0.39  294H :  0.39  648H :  0.39  743H :  0.39  269H :  0.39  327H :  0.39  297H :  0.39  680H :  0.39  168H :  0.39   57H :  0.39   43O :  0.37  377H :  0.37
  491H :  0.36  627H :  0.36  116H :  0.36  525H :  0.36  132H :  0.35    1O :  0.35  182H :  0.35  626H :  0.34  339H :  0.33  287H :  0.33  164H :  0.33  393H :  0.32
  395H :  0.31  336H :  0.31  573H :  0.31  557H :  0.31  470H :  0.31  488H :  0.30  645H :  0.30  139O :  0.30  402H :  0.29  299H :  0.29  300H :  0.29  227H :  0.29
   95H :  0.28  185H :  0.28  575H :  0.28  504H :  0.28  123H :  0.27  122H :  0.27  398H :  0.27  725H :  0.27  710H :  0.27  111H :  0.27  323H :  0.27  195H :  0.26
  494H :  0.26  372H :  0.26  264H :  0.26  384H :  0.26  326H :  0.26  492H :  0.26  240H :  0.25  720H :  0.25  197H :  0.25  375H :  0.25  362H :  0.25  440H :  0.25
   65H :  0.25  591H :  0.25  202O :  0.25  279H :  0.24  531H :  0.24  677H :  0.24  165H :  0.24   38H :  0.23  647H :  0.23  329H :  0.23  618H :  0.23   62H :  0.23
  662H :  0.23  687H :  0.22  341H :  0.22   84H :  0.22  615H :  0.22  734H :  0.22  356H :  0.22   69H :  0.22  401H :  0.21  518H :  0.21  367O :  0.21  561H :  0.21
  579H :  0.21  501H :  0.21  417H :  0.20  206H :  0.20    5H :  0.20  689H :  0.20  131H :  0.20  630H :  0.20  572H :  0.19  509H :  0.19  563H :  0.19   63H :  0.19
  666H :  0.19  741H :  0.19  158H :  0.18  333H :  0.18  342H :  0.18  251H :  0.18  263H :  0.18  524H :  0.18  248H :  0.18  266H :  0.18  378H :  0.17  312H :  0.17
  659H :  0.17  708H :  0.17  213H :  0.17  348H :  0.17  569H :  0.17   59H :  0.16  194H :  0.16  215H :  0.16  477H :  0.16  570H :  0.16  414H :  0.16  426H :  0.15
  639H :  0.15  657H :  0.15  434H :  0.15  159H :  0.15  589O :  0.15  755H :  0.15  587H :  0.15  683H :  0.15  192H :  0.15  239H :  0.15  371H :  0.15  425H :  0.15
  243H :  0.15  516H :  0.14  387H :  0.14   72H :  0.14   54H :  0.14  719H :  0.14  620H :  0.14  167H :  0.14   78H :  0.14  230H :  0.13  530H :  0.13  404H :  0.13
  749H :  0.13  735H :  0.13    9H :  0.13   53H :  0.13  147H :  0.12  422H :  0.12  723H :  0.12  233H :  0.12  522H :  0.12  174H :  0.12   35H :  0.12   21H :  0.12
  113H :  0.12  357H :  0.12  204H :  0.12  617H :  0.12  102H :  0.12  155H :  0.12  459H :  0.11  668H :  0.11  513H :  0.11  480H :  0.11  249H :  0.11  411H :  0.11
  260H :  0.11  543H :  0.11  534H :  0.11   44H :  0.11  359H :  0.11  545H :  0.11  276H :  0.11  506H :  0.11  549H :  0.10  581H :  0.10  126H :  0.10  245H :  0.10
  453H :  0.10  539H :  0.10  497H :  0.09  282H :  0.09  380H :  0.09  458H :  0.09  381H :  0.09  536H :  0.09  152H :  0.09   29H :  0.09  443H :  0.09  275H :  0.09
  728H :  0.09  650H :  0.09  603H :  0.09  231H :  0.09   81H :  0.09    8H :  0.09  717H :  0.09  695H :  0.08  609H :  0.08    6H :  0.08  261H :  0.08  633H :  0.08
  629H :  0.08  546H :  0.08  642H :  0.08   20H :  0.08  693H :  0.08  278H :  0.07  663H :  0.07  551H :  0.07  564H :  0.07  144H :  0.07  257H :  0.07
    8 LP   *******   0.00 -11.58611   5.67865 -10.92550  187O : 19.56  622O : 17.41  214O : 15.59  481O : 14.44  508O : 12.50  490O : 12.21  241O : 11.13   49O : 10.93  658O : 10.81   70O : 10.71  295O : 10.18  619O :  9.98
  118O :  9.61  325O :  9.37   94O :  9.27  196O :  9.22  394O :  9.20  754O :  8.98  628O :  8.85  130O :  8.52  223O :  8.51  262O :  8.17  175O :  8.03  439O :  7.77
  451O :  7.77  292O :  7.69  112O :  7.61  685O :  7.59  505O :  7.57  136O :  7.54  724O :  7.42  307O :  7.42  670O :  7.41  133O :  7.27  697O :  7.01  217O :  6.94
  733O :  6.92  514O :  6.74  109O :  6.73  346O :  6.67   13O :  6.41  535O :  6.40  595O :  6.34   37O :  6.29  289O :  6.22  730O :  6.10  385O :  6.09  364O :  6.06
  445O :  5.88   79O :  5.77  388O :  5.77  634O :  5.70  745O :  5.56  370O :  5.50  397O :  5.44  526O :  5.34  190O :  5.32  679O :  5.27  265O :  5.23  643O :  5.22
  268O :  5.19  178O :  5.09   40O :  5.08  568O :  5.03  316O :  5.00   64O :  4.97  562O :  4.96  529O :  4.95  277O :  4.85  502O :  4.84  373O :  4.81  640O :  4.80
  610O :  4.80   67O :  4.72   31O :  4.60  637O :  4.51  355O :  4.45  409O :  4.38  739O :  4.31  469O :  4.28  406O :  4.27  106O :  4.23  709O :  4.13  652O :  4.09
  661O :  4.02  691O :  3.99  718O :  3.98  349O :  3.94  418O :  3.91   28O :  3.89   46O :  3.85  298O :  3.82   58O :  3.82   97O :  3.76   19O :  3.75  334O :  3.69
  649O :  3.64  646O :  3.63  580O :  3.61  736O :  3.61  655O :  3.57  493O :  3.56  538O :  3.56  484O :  3.47  454O :  3.47  517O :  3.47  205O :  3.45  391O :  3.39
  376O :  3.39  166O :  3.38  163O :  3.37  523O :  3.33  400O :  3.26  478O :  3.25  631O :  3.25  226O :  3.17  559O :  3.11   88O :  3.06  430O :  3.06  742O :  3.05
  382O :  3.01  487O :  2.96  565O :  2.96  466O :  2.91  271O :  2.89  250O :  2.85  550O :  2.85  208O :  2.83  121O :  2.80  460O :  2.78  541O :  2.73  229O :  2.73
  148O :  2.72  700O :  2.68  598O :  2.67  328O :  2.66  571O :  2.62  313O :  2.59  553O :  2.53  259O :  2.52  544O :  2.49  421O :  2.44  613O :  2.41  199O :  2.41
   85O :  2.40  100O :  2.34  403O :  2.34  310O :  2.34   61O :  2.32  352O :  2.32   52O :  2.32  715O :  2.31  412O :  2.29  688O :  2.29  343O :  2.27   10O :  2.27
  244O :  2.26  103O :  2.24  577O :  2.17  592O :  2.09   16O :  2.07  463O :  2.06  160O :  2.06  586O :  2.05  115O :  2.02  673O :  1.99   73O :  1.97  472O :  1.96
  253O :  1.95  337O :  1.93  181O :  1.90  238O :  1.89  379O :  1.77  340O :  1.74  157O :  1.74  127O :  1.73  751O :  1.69  184O :  1.67  727O :  1.64  232O :  1.60
  235O :  1.59  427O :  1.59  361O :  1.59  176H :  1.56  154O :  1.55  625O :  1.54   22O :  1.53  556O :  1.49  358O :  1.49  347H :  1.47  424O :  1.42  304O :  1.41
    4O :  1.40  706O :  1.38  616O :  1.38    7O :  1.29  475O :  1.28  331O :  1.24  124O :  1.23  601O :  1.22  703O :  1.21  511O :  1.20  399H :  1.19   76O :  1.16
  220O :  1.16  415O :  1.13  660H :  1.12  322O :  1.12  712O :  1.11  499O :  1.11  145O :  1.10  482H :  1.09   91O :  1.09   25O :  1.08  448O :  1.06  496O :  1.05
  274O :  1.05   55O :  1.04  682O :  1.02  309H :  1.01  597H :  1.00  291H :  0.97  694O :  0.95  554H :  0.94  256O :  0.94  621H :  0.93  280O :  0.92  286O :  0.92
  374H :  0.90  457O :  0.90  664O :  0.86  442O :  0.86  686H :  0.85  211O :  0.84  193O :  0.84  224H :  0.84  636H :  0.83  532O :  0.82   34O :  0.82   68H :  0.79
  317H :  0.78  191H :  0.77  520O :  0.77  172O :  0.76  225H :  0.75  301O :  0.75  247O :  0.74  671H :  0.73  314H :  0.73  419H :  0.73  330H :  0.72  319O :  0.72
  748O :  0.71  583O :  0.71  441H :  0.70   30H :  0.70  433O :  0.69  464H :  0.68  283O :  0.68  207H :  0.68  635H :  0.67   82O :  0.67  594H :  0.66  308H :  0.65
  667O :  0.62  604O :  0.62  746H :  0.61  547O :  0.59   60H :  0.59  110H :  0.57  711H :  0.57   17H :  0.55   32H :  0.55  574O :  0.54  135H :  0.54  638H :  0.53
  721O :  0.52   66H :  0.52  128H :  0.52  142O :  0.52   75H :  0.52  436O :  0.51  365H :  0.51  672H :  0.51  151O :  0.51   15H :  0.50  471H :  0.49  607O :  0.48
  180H :  0.48  105H :  0.47  273H :  0.46  200H :  0.45  396H :  0.45   14H :  0.45  242H :  0.45   48H :  0.44  429H :  0.44  296H :  0.43  676O :  0.43  162H :  0.43
  665H :  0.43  183H :  0.42  272H :  0.42  479H :  0.41  392H :  0.40  293H :  0.40  107H :  0.39  101H :  0.39  485H :  0.38  169O :  0.38   23H :  0.38  552H :  0.38
  555H :  0.38  294H :  0.38  648H :  0.38  743H :  0.37  269H :  0.37  327H :  0.37  680H :  0.37  297H :  0.37  168H :  0.37   57H :  0.37   43O :  0.36  377H :  0.36
  491H :  0.35  627H :  0.35  116H :  0.34  525H :  0.34  132H :  0.34    1O :  0.34  182H :  0.33  626H :  0.32  339H :  0.32  287H :  0.31  164H :  0.31  393H :  0.30
  395H :  0.30  573H :  0.30  336H :  0.30  557H :  0.30  470H :  0.29  488H :  0.29  645H :  0.29  139O :  0.28  402H :  0.28  299H :  0.28  300H :  0.28  227H :  0.27
   95H :  0.27  185H :  0.27  575H :  0.26  123H :  0.26  504H :  0.26  122H :  0.26  398H :  0.26  725H :  0.26  710H :  0.26  111H :  0.26  323H :  0.26  195H :  0.25
  494H :  0.25  372H :  0.25  264H :  0.25  384H :  0.25  326H :  0.25  492H :  0.24  240H :  0.24  720H :  0.24  197H :  0.24  375H :  0.24  362H :  0.24  735H :  0.24
  440H :  0.24   65H :  0.24  591H :  0.23  202O :  0.23  279H :  0.23  531H :  0.23  677H :  0.23  165H :  0.23   38H :  0.22  647H :  0.22  329H :  0.22  618H :  0.22
   62H :  0.22  662H :  0.22  687H :  0.21  341H :  0.21   84H :  0.21  734H :  0.21  615H :  0.21   69H :  0.21  401H :  0.20  518H :  0.20  367O :  0.20  356H :  0.20
  561H :  0.20  131H :  0.20  579H :  0.20  501H :  0.20  417H :  0.20  206H :  0.20    5H :  0.19  689H :  0.19  630H :  0.19  572H :  0.19  509H :  0.19  563H :  0.18
   63H :  0.18  666H :  0.18  741H :  0.18  158H :  0.18  333H :  0.18  342H :  0.17  251H :  0.17  263H :  0.17  524H :  0.17  248H :  0.17  266H :  0.17  243H :  0.17
  378H :  0.17  312H :  0.16  659H :  0.16  708H :  0.16  213H :  0.16  348H :  0.16  569H :  0.16   59H :  0.16  194H :  0.16  215H :  0.16  477H :  0.15  570H :  0.15
  414H :  0.15  426H :  0.15  639H :  0.15  657H :  0.15  434H :  0.15  159H :  0.14  589O :  0.14  755H :  0.14  587H :  0.14  683H :  0.14  192H :  0.14  239H :  0.14
  371H :  0.14  425H :  0.14  516H :  0.14  387H :  0.14   72H :  0.13   54H :  0.13  719H :  0.13  167H :  0.13  620H :  0.13   78H :  0.13  230H :  0.13  530H :  0.13
  404H :  0.13  749H :  0.13    9H :  0.12   53H :  0.12  147H :  0.12  422H :  0.12  723H :  0.12  233H :  0.12  522H :  0.12  174H :  0.12   35H :  0.12   21H :  0.12
  113H :  0.11  357H :  0.11  204H :  0.11  617H :  0.11  102H :  0.11  155H :  0.11  459H :  0.11  513H :  0.11  668H :  0.11  480H :  0.11  249H :  0.10  260H :  0.10
  411H :  0.10  543H :  0.10   44H :  0.10  359H :  0.10  534H :  0.10  545H :  0.10  276H :  0.10  506H :  0.10  549H :  0.10  581H :  0.10  126H :  0.09  245H :  0.09
  453H :  0.09  539H :  0.09  497H :  0.09  282H :  0.09  380H :  0.09  458H :  0.09  381H :  0.09  536H :  0.09  152H :  0.09   29H :  0.09  443H :  0.09  275H :  0.09
  728H :  0.08  650H :  0.08  603H :  0.08  231H :  0.08   81H :  0.08    8H :  0.08  717H :  0.08  695H :  0.08  609H :  0.08    6H :  0.08  261H :  0.08  633H :  0.08
  546H :  0.08  629H :  0.08  642H :  0.08   20H :  0.08  693H :  0.07  278H :  0.07
    9 LP   *******   0.00  -9.76449   6.65603 -13.09360  187O : 17.62  622O : 15.98  214O : 14.30  481O : 13.25  508O : 11.47  490O : 11.20  241O : 10.31   49O : 10.03  658O :  9.92   70O :  9.83  295O :  9.35  619O :  9.16
  118O :  8.82  325O :  8.60   94O :  8.50  196O :  8.46  394O :  8.44  754O :  8.24  628O :  8.12  223O :  7.81  130O :  7.65  262O :  7.49  175O :  7.36  439O :  7.13
  451O :  7.13  292O :  7.06  112O :  6.99  685O :  6.96  505O :  6.95  136O :  6.91  724O :  6.81  307O :  6.81  670O :  6.81  133O :  6.67  697O :  6.43  217O :  6.36
  733O :  6.30  514O :  6.19  109O :  6.18  346O :  6.12   13O :  5.88  535O :  5.88  595O :  5.82   37O :  5.77  289O :  5.71  730O :  5.60  385O :  5.59  364O :  5.56
  445O :  5.39   79O :  5.30  388O :  5.29  634O :  5.23  745O :  5.10  370O :  5.05  397O :  4.99  526O :  4.90  190O :  4.88  679O :  4.84  265O :  4.79  643O :  4.79
  268O :  4.76  178O :  4.67   40O :  4.67  568O :  4.61  316O :  4.59   64O :  4.56  529O :  4.54  562O :  4.54  502O :  4.45  277O :  4.45  373O :  4.41  640O :  4.41
  610O :  4.40   67O :  4.33   31O :  4.23  637O :  4.14  355O :  4.08  409O :  4.02  739O :  3.95  469O :  3.92  406O :  3.92  106O :  3.88  709O :  3.79  652O :  3.75
  661O :  3.69  691O :  3.66  718O :  3.65  349O :  3.62  418O :  3.59   28O :  3.57   46O :  3.53  298O :  3.50   58O :  3.50   97O :  3.45   19O :  3.44  334O :  3.42
  649O :  3.35  646O :  3.33  580O :  3.32  736O :  3.32  655O :  3.28  493O :  3.26  538O :  3.26  454O :  3.18  484O :  3.18  517O :  3.18  205O :  3.16  391O :  3.11
  376O :  3.11  166O :  3.10  163O :  3.09  523O :  3.05  400O :  3.00  478O :  2.99  631O :  2.98  226O :  2.91  559O :  2.85   88O :  2.81  430O :  2.81  742O :  2.80
  382O :  2.76  487O :  2.72  565O :  2.71  466O :  2.67  271O :  2.65  250O :  2.62  550O :  2.62  208O :  2.60  121O :  2.57  460O :  2.55  541O :  2.51  229O :  2.50
  148O :  2.50  700O :  2.46  598O :  2.45  328O :  2.44  571O :  2.40  313O :  2.38  553O :  2.32  259O :  2.31  544O :  2.29  421O :  2.24  613O :  2.21  199O :  2.21
   85O :  2.20  100O :  2.15  403O :  2.15  310O :  2.14  352O :  2.13   52O :  2.13   61O :  2.12  715O :  2.12  412O :  2.10  688O :  2.10  343O :  2.08   10O :  2.08
  244O :  2.07  103O :  2.05  577O :  2.00  592O :  1.92   16O :  1.90  463O :  1.89  160O :  1.89  586O :  1.88  115O :  1.86  673O :  1.83   73O :  1.81  472O :  1.80
  253O :  1.79  337O :  1.77  181O :  1.75  238O :  1.73  379O :  1.62  340O :  1.60  157O :  1.60  127O :  1.59  751O :  1.55  184O :  1.54  727O :  1.50  232O :  1.47
  235O :  1.46  427O :  1.46  361O :  1.46  176H :  1.43  154O :  1.42  625O :  1.42   22O :  1.40  556O :  1.37  358O :  1.36  347H :  1.35  424O :  1.30  304O :  1.29
    4O :  1.28  706O :  1.26  616O :  1.26    7O :  1.18  475O :  1.18  331O :  1.14  124O :  1.13  601O :  1.12  703O :  1.11  511O :  1.10  399H :  1.09   76O :  1.07
  220O :  1.06  415O :  1.04  660H :  1.03  322O :  1.02  712O :  1.02  499O :  1.02  145O :  1.01  482H :  1.00   91O :  1.00   25O :  0.99  448O :  0.97  496O :  0.97
  274O :  0.96   55O :  0.95  682O :  0.93  309H :  0.93  597H :  0.92  291H :  0.89  694O :  0.87  554H :  0.86  256O :  0.86  621H :  0.85  280O :  0.85  286O :  0.85
  374H :  0.82  457O :  0.82  664O :  0.79  442O :  0.79  686H :  0.78  224H :  0.77  211O :  0.77  193O :  0.77  636H :  0.76  532O :  0.76   34O :  0.75   68H :  0.73
  317H :  0.71  191H :  0.70  520O :  0.70  172O :  0.70  225H :  0.69  301O :  0.68  247O :  0.68  671H :  0.67  314H :  0.67  419H :  0.67  330H :  0.66  319O :  0.66
  748O :  0.65  583O :  0.65  441H :  0.65   30H :  0.64  433O :  0.63  464H :  0.63  283O :  0.63  207H :  0.62  635H :  0.61   82O :  0.61  594H :  0.61  308H :  0.60
  667O :  0.57  604O :  0.57  746H :  0.56  547O :  0.54   60H :  0.54  110H :  0.52  711H :  0.52   17H :  0.50   32H :  0.50  574O :  0.50  135H :  0.49  242H :  0.49
  638H :  0.48  721O :  0.48   66H :  0.48  128H :  0.48  142O :  0.47   75H :  0.47  436O :  0.47  365H :  0.47  672H :  0.47  151O :  0.47   15H :  0.46  471H :  0.45
  607O :  0.44  180H :  0.44  105H :  0.44  273H :  0.42  200H :  0.41  396H :  0.41   14H :  0.41   48H :  0.40  429H :  0.40  296H :  0.40  676O :  0.40  162H :  0.40
  665H :  0.39  183H :  0.39  272H :  0.38  479H :  0.37  392H :  0.37  293H :  0.37  107H :  0.36  101H :  0.36  485H :  0.35  169O :  0.35   23H :  0.35  552H :  0.35
[...]
   369   1 h    0.879 --   367 o    0.822
   370   8 o    1.830 --   372 h    0.865   371 h    0.836
   371   1 h    0.892 --   370 o    0.836
   372   1 h    0.902 --   370 o    0.865
   373   8 o    1.840 --   374 h    0.872   375 h    0.845
   374   1 h    0.899 --   373 o    0.872
   375   1 h    0.886 --   373 o    0.845
   376   8 o    1.853 --   377 h    0.823   378 h    0.812
   377   1 h    0.879 --   376 o    0.823
   378   1 h    0.884 --   376 o    0.812
   379   8 o    1.864 --   381 h    0.902   380 h    0.785
   380   1 h    0.875 --   379 o    0.785
   381   1 h    0.911 --   379 o    0.902
   382   8 o    1.865 --   383 h    0.863   384 h    0.843
   383   1 h    0.899 --   382 o    0.863
   384   1 h    0.890 --   382 o    0.843
   385   8 o    1.845 --   387 h    0.851   386 h    0.841
   386   1 h    0.893 --   385 o    0.841
   387   1 h    0.892 --   385 o    0.851
   388   8 o    1.869 --   390 h    0.828   389 h    0.819
   389   1 h    0.888 --   388 o    0.819
   390   1 h    0.886 --   388 o    0.828
   391   8 o    1.867 --   393 h    0.896   392 h    0.824
   392   1 h    0.877 --   391 o    0.824
   393   1 h    0.907 --   391 o    0.896
   394   8 o    1.866 --   395 h    0.824   396 h    0.819
   395   1 h    0.878 --   394 o    0.824
   396   1 h    0.881 --   394 o    0.819
   397   8 o    1.868 --   399 h    0.825   398 h    0.783
   398   1 h    0.872 --   397 o    0.783
   399   1 h    0.887 --   397 o    0.825
   400   8 o    1.861 --   401 h    0.870   402 h    0.796
   401   1 h    0.896 --   400 o    0.870
   402   1 h    0.877 --   400 o    0.796
   403   8 o    1.855 --   404 h    0.844   405 h    0.819
   404   1 h    0.886 --   403 o    0.844
   405   1 h    0.875 --   403 o    0.819
   406   8 o    1.859 --   408 h    0.848   407 h    0.780
   407   1 h    0.872 --   406 o    0.780
   408   1 h    0.884 --   406 o    0.848
   409   8 o    1.853 --   411 h    0.877   410 h    0.816
   410   1 h    0.884 --   409 o    0.816
   411   1 h    0.901 --   409 o    0.877
   412   8 o    1.858 --   413 h    0.824   414 h    0.818
   413   1 h    0.882 --   412 o    0.824
   414   1 h    0.877 --   412 o    0.818
   415   8 o    1.848 --   416 h    0.890   417 h    0.795
   416   1 h    0.904 --   415 o    0.890
   417   1 h    0.870 --   415 o    0.795
   418   8 o    1.860 --   419 h    0.859   420 h    0.812
   419   1 h    0.894 --   418 o    0.859
   420   1 h    0.885 --   418 o    0.812
   421   8 o    1.856 --   423 h    0.907   422 h    0.807
   422   1 h    0.879 --   421 o    0.807
   423   1 h    0.914 --   421 o    0.907
   424   8 o    1.848 --   426 h    0.819   425 h    0.814
   425   1 h    0.885 --   424 o    0.814
   426   1 h    0.890 --   424 o    0.819
   427   8 o    1.858 --   429 h    0.841   428 h    0.808
   428   1 h    0.876 --   427 o    0.808
   429   1 h    0.895 --   427 o    0.841
   430   8 o    1.862 --   431 h    0.820   432 h    0.804
   431   1 h    0.879 --   430 o    0.820
   432   1 h    0.876 --   430 o    0.804
   433   8 o    1.842 --   435 h    0.835   434 h    0.823
   434   1 h    0.884 --   433 o    0.823
   435   1 h    0.893 --   433 o    0.835
   436   8 o    1.876 --   438 h    0.842   437 h    0.823
   437   1 h    0.882 --   436 o    0.823
   438   1 h    0.887 --   436 o    0.842
   439   8 o    1.862 --   441 h    0.825   440 h    0.821
   440   1 h    0.880 --   439 o    0.821
   441   1 h    0.880 --   439 o    0.825
   442   8 o    1.838 --   444 h    0.852   443 h    0.817
   443   1 h    0.887 --   442 o    0.817
   444   1 h    0.893 --   442 o    0.852
   445   8 o    1.837 --   447 h    0.877   446 h    0.811
   446   1 h    0.887 --   445 o    0.811
   447   1 h    0.900 --   445 o    0.877
   448   8 o    1.841 --   450 h    0.834   449 h    0.795
   449   1 h    0.875 --   448 o    0.795
   450   1 h    0.895 --   448 o    0.834
   451   8 o    1.846 --   453 h    0.862   452 h    0.817
   452   1 h    0.886 --   451 o    0.817
   453   1 h    0.896 --   451 o    0.862
   454   8 o    1.865 --   456 h    0.873   455 h    0.803
   455   1 h    0.873 --   454 o    0.803
   456   1 h    0.896 --   454 o    0.873
   457   8 o    1.857 --   458 h    0.854   459 h    0.841
   458   1 h    0.896 --   457 o    0.854
   459   1 h    0.895 --   457 o    0.841
   460   8 o    1.874 --   462 h    0.880   461 h    0.836
   461   1 h    0.884 --   460 o    0.836
   462   1 h    0.898 --   460 o    0.880
   463   8 o    1.857 --   465 h    0.880   464 h    0.803
   464   1 h    0.872 --   463 o    0.803
   465   1 h    0.899 --   463 o    0.880
   466   8 o    1.812 --   467 h    0.889   468 h    0.803
   467   1 h    0.908 --   466 o    0.889
   468   1 h    0.878 --   466 o    0.803
   469   8 o    1.847 --   471 h    0.916   470 h    0.771
   470   1 h    0.874 --   469 o    0.771
   471   1 h    0.920 --   469 o    0.916
   472   8 o    1.846 --   473 h    0.903   474 h    0.801
   473   1 h    0.912 --   472 o    0.903
   474   1 h    0.879 --   472 o    0.801
   475   8 o    1.832 --   476 h    0.856   477 h    0.829
   476   1 h    0.892 --   475 o    0.856
   477   1 h    0.889 --   475 o    0.829
   478   8 o    1.813 --   479 h    0.881   480 h    0.837
   479   1 h    0.900 --   478 o    0.881
   480   1 h    0.892 --   478 o    0.837
   481   8 o    1.835 --   482 h    0.847   483 h    0.826
   482   1 h    0.897 --   481 o    0.847
   483   1 h    0.886 --   481 o    0.826
   484   8 o    1.845 --   485 h    0.846   486 h    0.822
   485   1 h    0.896 --   484 o    0.846
   486   1 h    0.884 --   484 o    0.822
   487   8 o    1.839 --   488 h    0.906   489 h    0.819
   488   1 h    0.912 --   487 o    0.906
   489   1 h    0.878 --   487 o    0.819
   490   8 o    1.834 --   491 h    0.865   492 h    0.858
   491   1 h    0.896 --   490 o    0.865
   492   1 h    0.894 --   490 o    0.858
   493   8 o    1.865 --   495 h    0.794   494 h    0.780
   494   1 h    0.872 --   493 o    0.780
   495   1 h    0.878 --   493 o    0.794
   496   8 o    1.858 --   498 h    0.834   497 h    0.821
   497   1 h    0.887 --   496 o    0.821
   498   1 h    0.885 --   496 o    0.834
   499   8 o    1.877 --   500 h    0.832   501 h    0.813
   500   1 h    0.891 --   499 o    0.832
   501   1 h    0.886 --   499 o    0.813
   502   8 o    1.838 --   503 h    0.830   504 h    0.827
   503   1 h    0.892 --   502 o    0.830
   504   1 h    0.891 --   502 o    0.827
   505   8 o    1.846 --   507 h    0.842   506 h    0.811
   506   1 h    0.878 --   505 o    0.811
   507   1 h    0.893 --   505 o    0.842
   508   8 o    1.837 --   509 h    0.839   510 h    0.802
   509   1 h    0.895 --   508 o    0.839
   510   1 h    0.877 --   508 o    0.802
   511   8 o    1.857 --   513 h    0.806   512 h    0.801
   512   1 h    0.876 --   511 o    0.801
   513   1 h    0.883 --   511 o    0.806
   514   8 o    1.849 --   516 h    0.850   515 h    0.833
   515   1 h    0.887 --   514 o    0.833
   516   1 h    0.893 --   514 o    0.850
   517   8 o    1.848 --   518 h    0.848   519 h    0.823
   518   1 h    0.887 --   517 o    0.848
   519   1 h    0.889 --   517 o    0.823
   520   8 o    1.855 --   522 h    0.819   521 h    0.808
   521   1 h    0.889 --   520 o    0.808
   522   1 h    0.878 --   520 o    0.819
   523   8 o    1.856 --   525 h    0.815   524 h    0.801
   524   1 h    0.887 --   523 o    0.801
   525   1 h    0.887 --   523 o    0.815
   526   8 o    1.857 --   527 h    0.868   528 h    0.863
   527   1 h    0.894 --   526 o    0.868
   528   1 h    0.896 --   526 o    0.863
   529   8 o    1.863 --   530 h    0.850   531 h    0.845
   530   1 h    0.895 --   529 o    0.850
   531   1 h    0.891 --   529 o    0.845
   532   8 o    1.849 --   534 h    0.902   533 h    0.806
   533   1 h    0.883 --   532 o    0.806
   534   1 h    0.907 --   532 o    0.902
   535   8 o    1.856 --   536 h    0.879   537 h    0.857
   536   1 h    0.898 --   535 o    0.879
   537   1 h    0.891 --   535 o    0.857
   538   8 o    1.827 --   539 h    0.849   540 h    0.816
   539   1 h    0.895 --   538 o    0.849
   540   1 h    0.885 --   538 o    0.816
   541   8 o    1.830 --   542 h    0.918   543 h    0.814
   542   1 h    0.923 --   541 o    0.918
   543   1 h    0.876 --   541 o    0.814
   544   8 o    1.834 --   546 h    0.870   545 h    0.805
   545   1 h    0.889 --   544 o    0.805
   546   1 h    0.900 --   544 o    0.870
   547   8 o    1.868 --   549 h    0.869   548 h    0.850
   548   1 h    0.889 --   547 o    0.850
   549   1 h    0.895 --   547 o    0.869
   550   8 o    1.846 --   551 h    0.878   552 h    0.838
   551   1 h    0.899 --   550 o    0.878
   552   1 h    0.893 --   550 o    0.838
   553   8 o    1.831 --   554 h    0.870   555 h    0.840
   554   1 h    0.899 --   553 o    0.870
   555   1 h    0.889 --   553 o    0.840
   556   8 o    1.892 --   558 h    0.835   557 h    0.819
   557   1 h    0.881 --   556 o    0.819
   558   1 h    0.889 --   556 o    0.835
   559   8 o    1.847 --   560 h    0.873   561 h    0.855
   560   1 h    0.900 --   559 o    0.873
   561   1 h    0.891 --   559 o    0.855
   562   8 o    1.828 --   563 h    0.830   564 h    0.807
   563   1 h    0.895 --   562 o    0.830
   564   1 h    0.890 --   562 o    0.807
   565   8 o    1.858 --   566 h    0.823   567 h    0.793
   566   1 h    0.887 --   565 o    0.823
   567   1 h    0.873 --   565 o    0.793
   568   8 o    1.849 --   569 h    0.860   570 h    0.782
   569   1 h    0.896 --   568 o    0.860
   570   1 h    0.879 --   568 o    0.782
   571   8 o    1.838 --   572 h    0.845   573 h    0.825
   572   1 h    0.895 --   571 o    0.845
   573   1 h    0.880 --   571 o    0.825
   574   8 o    1.865 --   576 h    0.833   575 h    0.827
   575   1 h    0.881 --   574 o    0.827
   576   1 h    0.878 --   574 o    0.833
   577   8 o    1.861 --   579 h    0.847   578 h    0.787
   578   1 h    0.870 --   577 o    0.787
   579   1 h    0.886 --   577 o    0.847
   580   8 o    1.833 --   581 h    0.875   582 h    0.865
   581   1 h    0.901 --   580 o    0.875
   582   1 h    0.900 --   580 o    0.865
   583   8 o    1.834 --   585 h    0.809   584 h    0.800
   584   1 h    0.883 --   583 o    0.800
   585   1 h    0.880 --   583 o    0.809
   586   8 o    1.847 --   588 h    0.837   587 h    0.835
   587   1 h    0.892 --   586 o    0.835
   588   1 h    0.894 --   586 o    0.837
   589   8 o    1.839 --   590 h    0.892   591 h    0.791
   590   1 h    0.906 --   589 o    0.892
   591   1 h    0.877 --   589 o    0.791
   592   8 o    1.873 --   594 h    0.856   593 h    0.839
   593   1 h    0.888 --   592 o    0.839
   594   1 h    0.890 --   592 o    0.856
   595   8 o    1.823 --   596 h    0.883   597 h    0.868
   596   1 h    0.899 --   595 o    0.883
   597   1 h    0.893 --   595 o    0.868
   598   8 o    1.849 --   600 h    0.883   599 h    0.815
   599   1 h    0.872 --   598 o    0.815
   600   1 h    0.902 --   598 o    0.883
   601   8 o    1.867 --   602 h    0.818   603 h    0.804
   602   1 h    0.883 --   601 o    0.818
   603   1 h    0.876 --   601 o    0.804
   604   8 o    1.882 --   605 h    0.831   606 h    0.814
   605   1 h    0.886 --   604 o    0.831
   606   1 h    0.875 --   604 o    0.814
   607   8 o    1.855 --   609 h    0.838   608 h    0.834
   608   1 h    0.892 --   607 o    0.834
   609   1 h    0.888 --   607 o    0.838
   610   8 o    1.845 --   611 h    0.855   612 h    0.819
   611   1 h    0.895 --   610 o    0.855
   612   1 h    0.882 --   610 o    0.819
   613   8 o    1.875 --   615 h    0.913   614 h    0.796
   614   1 h    0.874 --   613 o    0.796
   615   1 h    0.917 --   613 o    0.913
   616   8 o    1.841 --   618 h    0.883   617 h    0.833
   617   1 h    0.885 --   616 o    0.833
   618   1 h    0.904 --   616 o    0.883
   619   8 o    1.854 --   620 h    0.821   621 h    0.807
   620   1 h    0.881 --   619 o    0.821
   621   1 h    0.874 --   619 o    0.807
   622   8 o    1.869 --   624 h    0.878   623 h    0.830
   623   1 h    0.891 --   622 o    0.830
   624   1 h    0.900 --   622 o    0.878
   625   8 o    1.830 --   626 h    0.907   627 h    0.785
   626   1 h    0.916 --   625 o    0.907
   627   1 h    0.876 --   625 o    0.785
   628   8 o    1.858 --   629 h    0.876   630 h    0.838
   629   1 h    0.897 --   628 o    0.876
   630   1 h    0.891 --   628 o    0.838
   631   8 o    1.896 --   632 h    0.820   633 h    0.819
   632   1 h    0.882 --   631 o    0.820
   633   1 h    0.879 --   631 o    0.819
   634   8 o    1.835 --   636 h    0.838   635 h    0.792
   635   1 h    0.880 --   634 o    0.792
   636   1 h    0.890 --   634 o    0.838
   637   8 o    1.849 --   639 h    0.851   638 h    0.838
   638   1 h    0.891 --   637 o    0.838
   639   1 h    0.888 --   637 o    0.851
   640   8 o    1.845 --   641 h    0.880   642 h    0.770
   641   1 h    0.898 --   640 o    0.880
   642   1 h    0.871 --   640 o    0.770
   643   8 o    1.875 --   644 h    0.818   645 h    0.794
   644   1 h    0.874 --   643 o    0.818
   645   1 h    0.876 --   643 o    0.794
   646   8 o    1.843 --   647 h    0.899   648 h    0.781
   647   1 h    0.913 --   646 o    0.899
   648   1 h    0.869 --   646 o    0.781
   649   8 o    1.866 --   651 h    0.828   650 h    0.820
   650   1 h    0.883 --   649 o    0.820
   651   1 h    0.887 --   649 o    0.828
   652   8 o    1.879 --   653 h    0.831   654 h    0.792
   653   1 h    0.879 --   652 o    0.831
   654   1 h    0.874 --   652 o    0.792
   655   8 o    1.890 --   656 h    0.850   657 h    0.803
   656   1 h    0.889 --   655 o    0.850
   657   1 h    0.885 --   655 o    0.803
   658   8 o    1.846 --   659 h    0.867   660 h    0.834
   659   1 h    0.895 --   658 o    0.867
   660   1 h    0.889 --   658 o    0.834
   661   8 o    1.846 --   662 h    0.869   663 h    0.844
   662   1 h    0.897 --   661 o    0.869
   663   1 h    0.892 --   661 o    0.844
   664   8 o    1.853 --   666 h    0.850   665 h    0.833
   665   1 h    0.892 --   664 o    0.833
   666   1 h    0.891 --   664 o    0.850
   667   8 o    1.824 --   669 h    0.880   668 h    0.867
   668   1 h    0.900 --   667 o    0.867
   669   1 h    0.901 --   667 o    0.880
   670   8 o    1.846 --   672 h    0.855   671 h    0.814
   671   1 h    0.887 --   670 o    0.814
   672   1 h    0.893 --   670 o    0.855
   673   8 o    1.822 --   675 h    0.834   674 h    0.779
   674   1 h    0.879 --   673 o    0.779
   675   1 h    0.891 --   673 o    0.834
   676   8 o    1.851 --   678 h    0.835   677 h    0.771
   677   1 h    0.873 --   676 o    0.771
   678   1 h    0.884 --   676 o    0.835
   679   8 o    1.851 --   681 h    0.792   680 h    0.781
   680   1 h    0.878 --   679 o    0.781
   681   1 h    0.871 --   679 o    0.792
   682   8 o    1.866 --   684 h    0.892   683 h    0.859
   683   1 h    0.887 --   682 o    0.859
   684   1 h    0.901 --   682 o    0.892
   685   8 o    1.872 --   687 h    0.831   686 h    0.805
   686   1 h    0.875 --   685 o    0.805
   687   1 h    0.884 --   685 o    0.831
   688   8 o    1.835 --   690 h    0.826   689 h    0.819
   689   1 h    0.888 --   688 o    0.819
   690   1 h    0.880 --   688 o    0.826
   691   8 o    1.848 --   692 h    0.869   693 h    0.809
   692   1 h    0.897 --   691 o    0.869
   693   1 h    0.875 --   691 o    0.809
   694   8 o    1.847 --   696 h    0.812   695 h    0.803
   695   1 h    0.872 --   694 o    0.803
   696   1 h    0.876 --   694 o    0.812
   697   8 o    1.826 --   699 h    0.871   698 h    0.839
   698   1 h    0.890 --   697 o    0.839
   699   1 h    0.900 --   697 o    0.871
   700   8 o    1.824 --   702 h    0.867   701 h    0.862
   701   1 h    0.901 --   700 o    0.862
   702   1 h    0.898 --   700 o    0.867
   703   8 o    1.845 --   704 h    0.870   705 h    0.859
   704   1 h    0.891 --   703 o    0.870
   705   1 h    0.894 --   703 o    0.859
   706   8 o    1.875 --   707 h    0.822   708 h    0.800
   707   1 h    0.884 --   706 o    0.822
   708   1 h    0.874 --   706 o    0.800
   709   8 o    1.838 --   711 h    0.908   710 h    0.824
   710   1 h    0.884 --   709 o    0.824
   711   1 h    0.915 --   709 o    0.908
   712   8 o    1.846 --   713 h    0.855   714 h    0.809
   713   1 h    0.896 --   712 o    0.855
   714   1 h    0.880 --   712 o    0.809
   715   8 o    1.898 --   717 h    0.814   716 h    0.810
   716   1 h    0.875 --   715 o    0.810
   717   1 h    0.877 --   715 o    0.814
   718   8 o    1.883 --   719 h    0.844   720 h    0.811
   719   1 h    0.891 --   718 o    0.844
   720   1 h    0.887 --   718 o    0.811
   721   8 o    1.850 --   722 h    0.852   723 h    0.847
   722   1 h    0.889 --   721 o    0.852
   723   1 h    0.893 --   721 o    0.847
   724   8 o    1.828 --   726 h    0.817   725 h    0.816
   725   1 h    0.887 --   724 o    0.816
   726   1 h    0.885 --   724 o    0.817
   727   8 o    1.847 --   729 h    0.874   728 h    0.800
   728   1 h    0.873 --   727 o    0.800
   729   1 h    0.900 --   727 o    0.874
   730   8 o    1.848 --   732 h    0.861   731 h    0.854
   731   1 h    0.890 --   730 o    0.854
   732   1 h    0.894 --   730 o    0.861
   733   8 o    1.843 --   735 h    0.853   734 h    0.822
   734   1 h    0.882 --   733 o    0.822
   735   1 h    0.896 --   733 o    0.853
   736   8 o    1.857 --   737 h    0.819   738 h    0.804
   737   1 h    0.884 --   736 o    0.819
   738   1 h    0.888 --   736 o    0.804
   739   8 o    1.849 --   740 h    0.893   741 h    0.845
   740   1 h    0.904 --   739 o    0.893
   741   1 h    0.886 --   739 o    0.845
   742   8 o    1.803 --   743 h    0.864   744 h    0.833
   743   1 h    0.897 --   742 o    0.864
   744   1 h    0.895 --   742 o    0.833
   745   8 o    1.851 --   747 h    0.894   746 h    0.828
   746   1 h    0.883 --   745 o    0.828
   747   1 h    0.904 --   745 o    0.894
   748   8 o    1.854 --   750 h    0.864   749 h    0.850
   749   1 h    0.895 --   748 o    0.850
   750   1 h    0.888 --   748 o    0.864
   751   8 o    1.806 --   753 h    0.862   752 h    0.802
   752   1 h    0.883 --   751 o    0.802
   753   1 h    0.886 --   751 o    0.862
   754   8 o    1.847 --   756 h    0.869   755 h    0.828
   755   1 h    0.883 --   754 o    0.828
   756   1 h    0.893 --   754 o    0.869
 ---------------------------------------------------------------------------

Topologies differ in total number of bonds
Writing topology from bond orders to xtbtopo.mol

molecular dipole:
                 x           y           z       tot (Debye)
 q only:       -0.093      -0.038       1.086
   full:        0.181      -0.002       1.362       3.493
molecular quadrupole (traceless):
                xx          xy          yy          xz          yz          zz
 q only:       16.394      47.884      41.758      32.837     -12.739     -58.152
  q+dip:       21.353      75.090      54.535      53.726     -18.712     -75.887
   full:       21.551      76.853      54.704      52.199     -19.967     -76.255


           -------------------------------------------------
          | TOTAL ENERGY            -1283.330362586170 Eh   |
          | GRADIENT NORM               0.050594664838 Eh/α |
          | HOMO-LUMO GAP               8.066443560703 eV   |
           -------------------------------------------------

------------------------------------------------------------------------
 * finished run on 2022/11/24 at 09:29:05.344     
------------------------------------------------------------------------
 total:
 * wall-time:     0 d,  0 h,  0 min, 55.269 sec
 *  cpu-time:     0 d,  0 h,  1 min, 10.166 sec
 * ratio c/w:     1.270 speedup
 SCF:
 * wall-time:     0 d,  0 h,  0 min, 54.235 sec
 *  cpu-time:     0 d,  0 h,  1 min,  8.446 sec
 * ratio c/w:     1.262 speedup

