      -----------------------------------------------------------      
     |                   =====================                   |     
     |                           x T B                           |     
     |                   =====================                   |     
     |                         S. Grimme                         |     
     |          Mulliken Center for Theoretical Chemistry        |     
     |                    University of Bonn                     |     
      -----------------------------------------------------------      

   * xtb version 6.5.1 (579679a) compiled by 'ehlert@majestix' on 2022-07-11

   xtb is free software: you can redistribute it and/or modify it under
   the terms of the GNU Lesser General Public License as published by
   the Free Software Foundation, either version 3 of the License, or
   (at your option) any later version.
   
   xtb is distributed in the hope that it will be useful,
   but WITHOUT ANY WARRANTY; without even the implied warranty of
   MERCHANTABILITY or FITNESS FOR A PARTICULAR PURPOSE.  See the
   GNU Lesser General Public License for more details.
   
   Cite this work as:
   * C. Bannwarth, E. Caldeweyher, S. Ehlert, A. Hansen, P. Pracht,
     J. Seibert, S. Spicher, S. Grimme, WIREs Comput. Mol. Sci., 2020, 11,
     e01493. DOI: 10.1002/wcms.1493
   
   for GFN2-xTB:
   * C. Bannwarth, S. Ehlert and S. Grimme., J. Chem. Theory Comput., 2019,
     15, 1652-1671. DOI: 10.1021/acs.jctc.8b01176
   for GFN1-xTB:
   * S. Grimme, C. Bannwarth, P. Shushkov, J. Chem. Theory Comput., 2017,
     13, 1989-2009. DOI: 10.1021/acs.jctc.7b00118
   for GFN0-xTB:
   * P. Pracht, E. Caldeweyher, S. Ehlert, S. Grimme, ChemRxiv, 2019, preprint.
     DOI: 10.26434/chemrxiv.8326202.v1
   for GFN-FF:
   * S. Spicher and S. Grimme, Angew. Chem. Int. Ed., 2020, 59, 15665-15673.
     DOI: 10.1002/anie.202004239
   
   for ALPB and GBSA implicit solvation:
   * S. Ehlert, M. Stahn, S. Spicher, S. Grimme, J. Chem. Theory Comput.,
     2021, 17, 4250-4261. DOI: 10.1021/acs.jctc.1c00471
   
   for DFT-D4:
   * E. Caldeweyher, C. Bannwarth and S. Grimme, J. Chem. Phys., 2017,
     147, 034112. DOI: 10.1063/1.4993215
   * E. Caldeweyher, S. Ehlert, A. Hansen, H. Neugebauer, S. Spicher,
     C. Bannwarth and S. Grimme, J. Chem. Phys., 2019, 150, 154122.
     DOI: 10.1063/1.5090222
   * E. Caldeweyher, J.-M. Mewes, S. Ehlert and S. Grimme, Phys. Chem. Chem. Phys.
     2020, 22, 8499-8512. DOI: 10.1039/D0CP00502A
   
   for sTDA-xTB:
   * S. Grimme and C. Bannwarth, J. Chem. Phys., 2016, 145, 054103.
     DOI: 10.1063/1.4959605
   
   in the mass-spec context:
   * V. Asgeirsson, C. Bauer and S. Grimme, Chem. Sci., 2017, 8, 4879.
     DOI: 10.1039/c7sc00601b
   * J. Koopman and S. Grimme, ACS Omega 2019, 4, 12, 15120-15133.
     DOI: 10.1021/acsomega.9b02011
   
   for metadynamics refer to:
   * S. Grimme, J. Chem. Theory Comput., 2019, 155, 2847-2862
     DOI: 10.1021/acs.jctc.9b00143
   
   for SPH calculations refer to:
   * S. Spicher and S. Grimme, J. Chem. Theory Comput., 2021, 17, 1701-1714
     DOI: 10.1021/acs.jctc.0c01306
   
   with help from (in alphabetical order)
   P. Atkinson, C. Bannwarth, F. Bohle, G. Brandenburg, E. Caldeweyher
   M. Checinski, S. Dohm, S. Ehlert, S. Ehrlich, I. Gerasimov, C. Hölzer
   A. Katbashev, J. Koopman, C. Lavigne, S. Lehtola, F. März, M. Müller,
   F. Musil, H. Neugebauer, J. Pisarek, C. Plett, P. Pracht, F. Pultar,
   J. Seibert, P. Shushkov, S. Spicher, M. Stahn, M. Steiner, T. Strunk,
   J. Stückrath, T. Rose, and J. Unsleber
   
 * started run on 2022/11/24 at 09:27:46.527     

           -------------------------------------------------
          |                Calculation Setup                |
           -------------------------------------------------

          program call               : xtb xtbopt.coord --gfn2 --sp --gbsa water
          hostname                   : cn0341
          coordinate file            : xtbopt.coord
          omp threads                :                     2

   ID    Z sym.   atoms
    1    8 o      1, 4, 7, 10, 13, 16, 19, 22, 25, 28, 31, 34, 37, 40, 43,
                  46, 49, 52, 55, 58, 61, 64, 67, 70, 73, 76, 79, 82, 85, 88,
                  91, 94, 97, 100, 103, 106, 109, 112, 115, 118, 121, 124,
                  127, 130, 133, 136, 139, 142, 145, 148, 151, 154, 157, 160,
                  163, 166, 169, 172, 175, 178, 181, 184, 187, 190, 193, 196,
                  199, 202, 205, 208, 211, 214, 217, 220, 223, 226, 229, 232,
                  235, 238, 241, 244, 247, 250, 253, 256, 259, 262, 265, 268,
                  271, 274, 277, 280, 283, 286, 289, 292, 295, 298, 301, 304,
                  307, 310, 313, 316, 319, 322, 325, 328, 331, 334, 337, 340,
                  343, 346, 349, 352, 355, 358, 361, 364, 367, 370, 373, 376,
                  379, 382, 385, 388, 391, 394, 397, 400, 403, 406, 409, 412,
                  415, 418, 421, 424, 427, 430, 433, 436, 439, 442, 445, 448,
                  451, 454, 457, 460, 463, 466, 469, 472, 475, 478, 481, 484,
                  487, 490, 493, 496, 499, 502, 505, 508, 511, 514, 517, 520,
                  523, 526, 529, 532, 535, 538, 541, 544, 547, 550, 553, 556,
                  559, 562, 565, 568, 571, 574, 577, 580, 583, 586, 589, 592,
                  595, 598, 601, 604, 607, 610, 613, 616, 619, 622, 625, 628,
                  631, 634, 637, 640, 643, 646, 649, 652, 655, 658, 661, 664,
                  667, 670, 673, 676, 679, 682, 685, 688, 691, 694, 697, 700,
                  703, 706, 709, 712, 715, 718, 721, 724, 727, 730, 733, 736,
                  739, 742, 745, 748, 751, 754
    2    1 h      2, 3, 5, 6, 8, 9, 11, 12, 14, 15, 17, 18, 20, 21, 23, 24,
                  26, 27, 29, 30, 32, 33, 35, 36, 38, 39, 41, 42, 44, 45, 47,
                  48, 50, 51, 53, 54, 56, 57, 59, 60, 62, 63, 65, 66, 68, 69,
                  71, 72, 74, 75, 77, 78, 80, 81, 83, 84, 86, 87, 89, 90, 92,
                  93, 95, 96, 98, 99, 101, 102, 104, 105, 107, 108, 110, 111,
                  113, 114, 116, 117, 119, 120, 122, 123, 125, 126, 128, 129,
                  131, 132, 134, 135, 137, 138, 140, 141, 143, 144, 146, 147,
                  149, 150, 152, 153, 155, 156, 158, 159, 161, 162, 164, 165,
                  167, 168, 170, 171, 173, 174, 176, 177, 179, 180, 182, 183,
                  185, 186, 188, 189, 191, 192, 194, 195, 197, 198, 200, 201,
                  203, 204, 206, 207, 209, 210, 212, 213, 215, 216, 218, 219,
                  221, 222, 224, 225, 227, 228, 230, 231, 233, 234, 236, 237,
                  239, 240, 242, 243, 245, 246, 248, 249, 251, 252, 254, 255,
                  257, 258, 260, 261, 263, 264, 266, 267, 269, 270, 272, 273,
                  275, 276, 278, 279, 281, 282, 284, 285, 287, 288, 290, 291,
                  293, 294, 296, 297, 299, 300, 302, 303, 305, 306, 308, 309,
                  311, 312, 314, 315, 317, 318, 320, 321, 323, 324, 326, 327,
                  329, 330, 332, 333, 335, 336, 338, 339, 341, 342, 344, 345,
                  347, 348, 350, 351, 353, 354, 356, 357, 359, 360, 362, 363,
                  365, 366, 368, 369, 371, 372, 374, 375, 377, 378, 380, 381,
                  383, 384, 386, 387, 389, 390, 392, 393, 395, 396, 398, 399,
                  401, 402, 404, 405, 407, 408, 410, 411, 413, 414, 416, 417,
                  419, 420, 422, 423, 425, 426, 428, 429, 431, 432, 434, 435,
                  437, 438, 440, 441, 443, 444, 446, 447, 449, 450, 452, 453,
                  455, 456, 458, 459, 461, 462, 464, 465, 467, 468, 470, 471,
                  473, 474, 476, 477, 479, 480, 482, 483, 485, 486, 488, 489,
                  491, 492, 494, 495, 497, 498, 500, 501, 503, 504, 506, 507,
                  509, 510, 512, 513, 515, 516, 518, 519, 521, 522, 524, 525,
                  527, 528, 530, 531, 533, 534, 536, 537, 539, 540, 542, 543,
                  545, 546, 548, 549, 551, 552, 554, 555, 557, 558, 560, 561,
                  563, 564, 566, 567, 569, 570, 572, 573, 575, 576, 578, 579,
                  581, 582, 584, 585, 587, 588, 590, 591, 593, 594, 596, 597,
                  599, 600, 602, 603, 605, 606, 608, 609, 611, 612, 614, 615,
                  617, 618, 620, 621, 623, 624, 626, 627, 629, 630, 632, 633,
                  635, 636, 638, 639, 641, 642, 644, 645, 647, 648, 650, 651,
                  653, 654, 656, 657, 659, 660, 662, 663, 665, 666, 668, 669,
                  671, 672, 674, 675, 677, 678, 680, 681, 683, 684, 686, 687,
                  689, 690, 692, 693, 695, 696, 698, 699, 701, 702, 704, 705,
                  707, 708, 710, 711, 713, 714, 716, 717, 719, 720, 722, 723,
                  725, 726, 728, 729, 731, 732, 734, 735, 737, 738, 740, 741,
                  743, 744, 746, 747, 749, 750, 752, 753, 755, 756

molecular fragmentation (1/2 indicates fragments):
111222222222222222222222222222222222222222222222222222222222222222222222
222222222222222222222222222222222222222222222222222222222222222222222222
222222222222222222222222222222222222222222222222222222222222222222222222
222222222222222222222222222222222222222222222222222222222222222222222222
222222222222222222222222222222222222222222222222222222222222222222222222
222222222222222222222222222222222222222222222222222222222222222222222222
222222222222222222222222222222222222222222222222222222222222222222222222
222222222222222222222222222222222222222222222222222222222222222222222222
222222222222222222222222222222222222222222222222222222222222222222222222
222222222222222222222222222222222222222222222222222222222222222222222222
222222222222222222222222222222222222
# atoms in fragment 1/2:     3   753
 fragment masses (1/2) :       18.02     4521.84
CMA distance (Bohr)    :  16.060
constraining FC (au)   :  0.0500

           -------------------------------------------------
          |                 G F N 2 - x T B                 |
           -------------------------------------------------

        Reference                      10.1021/acs.jctc.8b01176
      * Hamiltonian:
        H0-scaling (s, p, d)           1.850000    2.230000    2.230000
        zeta-weighting                 0.500000
      * Dispersion:
        s8                             2.700000
        a1                             0.520000
        a2                             5.000000
        s9                             5.000000
      * Repulsion:
        kExp                           1.500000    1.000000
        rExp                           1.000000
      * Coulomb:
        alpha                          2.000000
        third order                    shell-resolved
        anisotropic                    true
        a3                             3.000000
        a5                             4.000000
        cn-shift                       1.200000
        cn-exp                         4.000000
        max-rad                        5.000000

      * Solvation model:               GBSA
        Solvent                        water
        Parameter file                 internal GFN2-xTB/GBSA
        Dielectric constant                8.0200E+01
        Reference state                gsolv [1 M gas/solution]
        Free energy shift                  1.8574E-03 Eh       1.1656E+00 kcal/mol
        Temperature                        2.9815E+02 K
        Density                            1.0000E+00 kg/L
        Solvent mass                       1.8000E+01 g/mol
        Interaction kernel             Still
        Born radius scaling (c1)           1.5524E+00
        Born radii integrator          GBOBC
        Born offset                        2.4628E-02 a0       4.6540E-02 AA
        H-bond correction              true
        Ion screening                  false
        Surface tension                    1.0000E-05 Eh       1.5569E+01 dyn/cm
        Grid points                               230 per atom

          ...................................................
          :                      SETUP                      :
          :.................................................:
          :  # basis functions                1512          :
          :  # atomic orbitals                1512          :
          :  # shells                         1008          :
          :  # electrons                      2016          :
          :  max. iterations                   250          :
          :  Hamiltonian                  GFN2-xTB          :
          :  restarted?                      false          :
          :  GBSA solvation                   true          :
          :  PC potential                    false          :
          :  electronic temp.          300.0000000     K    :
          :  accuracy                    1.0000000          :
          :  -> integral cutoff          0.2500000E+02      :
          :  -> integral neglect         0.1000000E-07      :
          :  -> SCF convergence          0.1000000E-05 Eh   :
          :  -> wf. convergence          0.1000000E-03 e    :
          :  Broyden damping             0.4000000          :
          ...................................................

 iter      E             dE          RMSdq      gap      omega  full diag
   1  -1291.2503823 -0.129125E+04  0.409E+00    8.37       0.0  T
   2  -1291.3349515 -0.845692E-01  0.242E+00    8.15       1.0  T
   3  -1291.3706866 -0.357351E-01  0.225E-01    7.64       1.0  T
   4  -1291.3762113 -0.552471E-02  0.484E-02    7.77       1.0  T
   5  -1291.3763701 -0.158721E-03  0.309E-02    7.73       1.0  T
   6  -1291.3764204 -0.503328E-04  0.393E-03    7.72       1.0  T
   7  -1291.3764222 -0.181005E-05  0.944E-04    7.72       3.9  T
   8  -1291.3764223 -0.113724E-06  0.466E-04    7.72       7.8  T
   9  -1291.3764223 -0.372256E-07  0.137E-04    7.72      26.6  T

   *** convergence criteria satisfied after 9 iterations ***

         #    Occupation            Energy/Eh            Energy/eV
      -------------------------------------------------------------
         1        2.0000           -0.6551722             -17.8281
       ...           ...                  ...                  ...
      1002        2.0000           -0.3544865              -9.6461
      1003        2.0000           -0.3517053              -9.5704
      1004        2.0000           -0.3514060              -9.5622
      1005        2.0000           -0.3484885              -9.4829
      1006        2.0000           -0.3474255              -9.4539
      1007        2.0000           -0.3470080              -9.4426
      1008        2.0000           -0.3419158              -9.3040 (HOMO)
      1009                         -0.0582373              -1.5847 (LUMO)
      1010                         -0.0511311              -1.3913
      1011                         -0.0414480              -1.1279
      1012                         -0.0371802              -1.0117
      1013                         -0.0330773              -0.9001
       ...                                ...                  ...
      1512                          0.5023538              13.6697
      -------------------------------------------------------------
                  HL-Gap            0.2836785 Eh            7.7193 eV
             Fermi-level           -0.2000765 Eh           -5.4444 eV

 SCC (total)                   0 d,  0 h,  0 min, 21.490 sec
 SCC setup                      ...        0 min,  0.117 sec (  0.546%)
 Dispersion                     ...        0 min,  0.109 sec (  0.509%)
 classical contributions        ...        0 min,  0.023 sec (  0.108%)
 integral evaluation            ...        0 min,  0.615 sec (  2.863%)
 iterations                     ...        0 min,  8.172 sec ( 38.028%)
 molecular gradient             ...        0 min, 12.384 sec ( 57.628%)
 printout                       ...        0 min,  0.068 sec (  0.317%)

         :::::::::::::::::::::::::::::::::::::::::::::::::::::
         ::                     SUMMARY                     ::
         :::::::::::::::::::::::::::::::::::::::::::::::::::::
         :: total energy           -1283.591003793316 Eh    ::
         :: total w/o Gsasa/hb     -1283.371407216689 Eh    ::
         :: gradient norm              0.104664936351 Eh/a0 ::
         :: HOMO-LUMO gap              7.719284817985 eV    ::
         ::.................................................::
         :: SCC energy             -1291.376422348557 Eh    ::
         :: -> isotropic ES            7.360583202315 Eh    ::
         :: -> anisotropic ES         -1.651848052630 Eh    ::
         :: -> anisotropic XC         -0.119137954701 Eh    ::
         :: -> dispersion             -0.797191991826 Eh    ::
         :: -> Gsolv                  -0.282399854872 Eh    ::
         ::    -> Gelec               -0.062803278246 Eh    ::
         ::    -> Gsasa                0.008477649850 Eh    ::
         ::    -> Ghb                 -0.229931669603 Eh    ::
         ::    -> Gshift               0.001857443127 Eh    ::
         :: repulsion energy           7.627960707669 Eh    ::
         :: add. restraining           0.000000000000 Eh    ::
         :: total charge              -0.000000000000 e     ::
         :::::::::::::::::::::::::::::::::::::::::::::::::::::

           -------------------------------------------------
          |                Property Printout                |
           -------------------------------------------------

    * Orbital Energies and Occupations

         #    Occupation            Energy/Eh            Energy/eV
      -------------------------------------------------------------
         1        2.0000           -0.6551722             -17.8281
       ...           ...                  ...                  ...
       996        2.0000           -0.3616202              -9.8402
       997        2.0000           -0.3601446              -9.8000
       998        2.0000           -0.3594727              -9.7818
       999        2.0000           -0.3593045              -9.7772
      1000        2.0000           -0.3586548              -9.7595
      1001        2.0000           -0.3572790              -9.7221
      1002        2.0000           -0.3544865              -9.6461
      1003        2.0000           -0.3517053              -9.5704
      1004        2.0000           -0.3514060              -9.5622
      1005        2.0000           -0.3484885              -9.4829
      1006        2.0000           -0.3474255              -9.4539
      1007        2.0000           -0.3470080              -9.4426
      1008        2.0000           -0.3419158              -9.3040 (HOMO)
      1009                         -0.0582373              -1.5847 (LUMO)
      1010                         -0.0511311              -1.3913
      1011                         -0.0414480              -1.1279
      1012                         -0.0371802              -1.0117
      1013                         -0.0330773              -0.9001
      1014                         -0.0273362              -0.7439
      1015                         -0.0234978              -0.6394
      1016                         -0.0144920              -0.3943
      1017                         -0.0110746              -0.3014
      1018                         -0.0090507              -0.2463
      1019                         -0.0069279              -0.1885
       ...                                ...                  ...
      1512                          0.5023538              13.6697
      -------------------------------------------------------------
                  HL-Gap            0.2836785 Eh            7.7193 eV
             Fermi-level           -0.2000765 Eh           -5.4444 eV

     #   Z          covCN         q      C6AA      α(0)
     1   8 o        1.605    -0.687    27.366     7.060
     2   1 h        0.802     0.339     0.616     1.233
     3   1 h        0.804     0.337     0.620     1.236
     4   8 o        1.607    -0.689    27.408     7.066
     5   1 h        0.803     0.355     0.578     1.194
     6   1 h        0.804     0.347     0.595     1.211
     7   8 o        1.606    -0.713    28.051     7.148
     8   1 h        0.803     0.348     0.594     1.211
     9   1 h        0.804     0.341     0.610     1.226
    10   8 o        1.606    -0.712    28.045     7.147
    11   1 h        0.803     0.337     0.619     1.236
    12   1 h        0.803     0.342     0.606     1.223
    13   8 o        1.608    -0.681    27.222     7.042
    14   1 h        0.803     0.364     0.558     1.173
    15   1 h        0.804     0.343     0.606     1.222
    16   8 o        1.608    -0.686    27.353     7.059
    17   1 h        0.804     0.344     0.602     1.219
    18   1 h        0.805     0.343     0.606     1.222
    19   8 o        1.607    -0.692    27.504     7.078
    20   1 h        0.804     0.350     0.589     1.206
    21   1 h        0.804     0.339     0.614     1.231
    22   8 o        1.607    -0.698    27.656     7.098
    23   1 h        0.803     0.362     0.561     1.176
    24   1 h        0.804     0.344     0.603     1.220
    25   8 o        1.608    -0.684    27.288     7.050
    26   1 h        0.804     0.342     0.608     1.225
    27   1 h        0.804     0.314     0.679     1.294
    28   8 o        1.607    -0.691    27.483     7.075
    29   1 h        0.803     0.351     0.587     1.203
    30   1 h        0.804     0.353     0.582     1.199
    31   8 o        1.607    -0.692    27.498     7.077
    32   1 h        0.804     0.348     0.594     1.211
    33   1 h        0.803     0.325     0.650     1.267
    34   8 o        1.608    -0.680    27.190     7.038
    35   1 h        0.804     0.356     0.575     1.191
    36   1 h        0.804     0.340     0.611     1.228
    37   8 o        1.606    -0.707    27.907     7.130
    38   1 h        0.803     0.359     0.568     1.184
    39   1 h        0.804     0.327     0.645     1.262
    40   8 o        1.609    -0.702    27.774     7.113
    41   1 h        0.804     0.354     0.579     1.195
    42   1 h        0.804     0.340     0.612     1.229
    43   8 o        1.607    -0.683    27.273     7.048
    44   1 h        0.803     0.349     0.590     1.207
    45   1 h        0.803     0.353     0.582     1.198
    46   8 o        1.604    -0.705    27.840     7.121
    47   1 h        0.802     0.356     0.574     1.190
    48   1 h        0.803     0.357     0.571     1.187
    49   8 o        1.609    -0.682    27.242     7.044
    50   1 h        0.804     0.348     0.593     1.210
    51   1 h        0.805     0.351     0.586     1.203
    52   8 o        1.607    -0.685    27.321     7.055
    53   1 h        0.803     0.345     0.600     1.217
    54   1 h        0.804     0.342     0.608     1.225
    55   8 o        1.608    -0.675    27.044     7.019
    56   1 h        0.803     0.352     0.584     1.200
    57   1 h        0.804     0.343     0.605     1.222
    58   8 o        1.610    -0.666    26.815     6.989
    59   1 h        0.804     0.345     0.599     1.216
    60   1 h        0.805     0.341     0.610     1.227
    61   8 o        1.605    -0.669    26.895     6.999
    62   1 h        0.803     0.372     0.540     1.154
    63   1 h        0.805     0.319     0.666     1.282
    64   8 o        1.607    -0.698    27.660     7.098
    65   1 h        0.804     0.337     0.619     1.236
    66   1 h        0.804     0.358     0.569     1.185
    67   8 o        1.604    -0.651    26.432     6.939
    68   1 h        0.805     0.343     0.605     1.222
    69   1 h        0.799     0.339     0.615     1.232
    70   8 o        1.608    -0.687    27.379     7.062
    71   1 h        0.805     0.336     0.622     1.239
    72   1 h        0.804     0.336     0.621     1.238
    73   8 o        1.607    -0.696    27.592     7.089
    74   1 h        0.803     0.347     0.595     1.212
    75   1 h        0.804     0.346     0.598     1.215
    76   8 o        1.607    -0.702    27.758     7.111
    77   1 h        0.803     0.348     0.593     1.210
    78   1 h        0.804     0.346     0.598     1.215
    79   8 o        1.608    -0.690    27.458     7.072
    80   1 h        0.804     0.325     0.651     1.267
    81   1 h        0.804     0.333     0.629     1.246
    82   8 o        1.607    -0.702    27.773     7.113
    83   1 h        0.802     0.371     0.542     1.156
    84   1 h        0.805     0.343     0.606     1.222
    85   8 o        1.608    -0.668    26.872     6.996
    86   1 h        0.804     0.325     0.650     1.266
    87   1 h        0.804     0.344     0.602     1.218
    88   8 o        1.608    -0.670    26.933     7.004
    89   1 h        0.804     0.329     0.639     1.256
    90   1 h        0.804     0.353     0.581     1.197
    91   8 o        1.607    -0.688    27.392     7.064
    92   1 h        0.803     0.342     0.607     1.224
    93   1 h        0.804     0.329     0.640     1.257
    94   8 o        1.608    -0.691    27.471     7.074
    95   1 h        0.805     0.341     0.609     1.225
    96   1 h        0.803     0.363     0.558     1.174
    97   8 o        1.609    -0.665    26.809     6.988
    98   1 h        0.805     0.324     0.653     1.269
    99   1 h        0.804     0.332     0.632     1.249
   100   8 o        1.606    -0.691    27.475     7.074
   101   1 h        0.803     0.334     0.627     1.244
   102   1 h        0.803     0.333     0.629     1.246
   103   8 o        1.607    -0.698    27.645     7.096
   104   1 h        0.803     0.351     0.587     1.203
   105   1 h        0.803     0.348     0.592     1.209
   106   8 o        1.608    -0.660    26.674     6.971
   107   1 h        0.803     0.358     0.570     1.186
   108   1 h        0.805     0.327     0.644     1.261
   109   8 o        1.608    -0.692    27.499     7.077
   110   1 h        0.804     0.356     0.575     1.191
   111   1 h        0.804     0.340     0.611     1.228
   112   8 o        1.610    -0.676    27.075     7.023
   113   1 h        0.805     0.335     0.624     1.241
   114   1 h        0.805     0.342     0.608     1.225
   115   8 o        1.608    -0.681    27.208     7.040
   116   1 h        0.804     0.342     0.606     1.223
   117   1 h        0.804     0.345     0.601     1.218
   118   8 o        1.606    -0.695    27.587     7.089
   119   1 h        0.803     0.343     0.606     1.223
   120   1 h        0.803     0.349     0.591     1.208
   121   8 o        1.609    -0.660    26.676     6.971
   122   1 h        0.805     0.327     0.645     1.261
   123   1 h        0.804     0.339     0.616     1.233
   124   8 o        1.607    -0.704    27.822     7.119
   125   1 h        0.803     0.349     0.591     1.208
   126   1 h        0.804     0.358     0.571     1.187
   127   8 o        1.607    -0.686    27.347     7.058
   128   1 h        0.803     0.348     0.592     1.209
   129   1 h        0.804     0.336     0.623     1.240
   130   8 o        1.608    -0.680    27.193     7.038
   131   1 h        0.804     0.331     0.634     1.251
   132   1 h        0.804     0.361     0.563     1.179
   133   8 o        1.608    -0.688    27.384     7.063
   134   1 h        0.804     0.329     0.640     1.257
   135   1 h        0.804     0.331     0.635     1.252
   136   8 o        1.610    -0.672    26.984     7.011
   137   1 h        0.804     0.352     0.585     1.201
   138   1 h        0.803     0.318     0.671     1.286
   139   8 o        1.606    -0.698    27.671     7.099
   140   1 h        0.804     0.353     0.581     1.197
   141   1 h        0.803     0.356     0.574     1.190
   142   8 o        1.606    -0.676    27.092     7.025
   143   1 h        0.804     0.329     0.639     1.256
   144   1 h        0.803     0.332     0.633     1.250
   145   8 o        1.608    -0.678    27.120     7.029
   146   1 h        0.804     0.350     0.588     1.204
   147   1 h        0.804     0.322     0.657     1.273
   148   8 o        1.607    -0.702    27.770     7.112
   149   1 h        0.804     0.349     0.590     1.207
   150   1 h        0.803     0.348     0.593     1.210
   151   8 o        1.607    -0.674    27.039     7.018
   152   1 h        0.803     0.337     0.621     1.238
   153   1 h        0.804     0.336     0.623     1.240
   154   8 o        1.606    -0.679    27.150     7.032
   155   1 h        0.802     0.364     0.556     1.172
   156   1 h        0.804     0.332     0.632     1.249
   157   8 o        1.608    -0.676    27.081     7.024
   158   1 h        0.805     0.324     0.654     1.270
   159   1 h        0.803     0.338     0.618     1.235
   160   8 o        1.607    -0.690    27.439     7.070
   161   1 h        0.803     0.346     0.599     1.215
   162   1 h        0.804     0.344     0.602     1.219
   163   8 o        1.608    -0.709    27.956     7.136
   164   1 h        0.803     0.357     0.572     1.188
   165   1 h        0.805     0.323     0.657     1.273
   166   8 o        1.605    -0.677    27.107     7.027
   167   1 h        0.803     0.330     0.636     1.253
   168   1 h        0.802     0.331     0.636     1.253
   169   8 o        1.607    -0.705    27.839     7.121
   170   1 h        0.803     0.346     0.597     1.213
   171   1 h        0.804     0.316     0.676     1.291
   172   8 o        1.605    -0.699    27.691     7.102
   173   1 h        0.802     0.342     0.608     1.225
   174   1 h        0.803     0.357     0.572     1.188
   175   8 o        1.606    -0.685    27.328     7.055
   176   1 h        0.802     0.353     0.582     1.199
   177   1 h        0.805     0.320     0.665     1.281
   178   8 o        1.609    -0.674    27.023     7.016
   179   1 h        0.804     0.359     0.567     1.183
   180   1 h        0.804     0.329     0.640     1.257
   181   8 o        1.607    -0.678    27.132     7.030
   182   1 h        0.802     0.374     0.535     1.149
   183   1 h        0.805     0.336     0.621     1.238
   184   8 o        1.609    -0.662    26.721     6.977
   185   1 h        0.805     0.354     0.580     1.196
   186   1 h        0.804     0.327     0.644     1.261
   187   8 o        1.610    -0.662    26.716     6.976
   188   1 h        0.805     0.354     0.579     1.195
   189   1 h        0.805     0.317     0.673     1.288
   190   8 o        1.608    -0.645    26.296     6.921
   191   1 h        0.803     0.345     0.599     1.216
   192   1 h        0.806     0.307     0.699     1.313
   193   8 o        1.609    -0.665    26.803     6.987
   194   1 h        0.804     0.358     0.571     1.187
   195   1 h        0.804     0.316     0.675     1.290
   196   8 o        1.608    -0.680    27.182     7.037
   197   1 h        0.805     0.348     0.594     1.210
   198   1 h        0.802     0.359     0.569     1.185
   199   8 o        1.608    -0.678    27.122     7.029
   200   1 h        0.805     0.354     0.579     1.196
   201   1 h        0.804     0.338     0.618     1.235
   202   8 o        1.606    -0.702    27.771     7.112
   203   1 h        0.804     0.353     0.580     1.197
   204   1 h        0.802     0.358     0.570     1.186
   205   8 o        1.608    -0.670    26.922     7.003
   206   1 h        0.803     0.364     0.558     1.173
   207   1 h        0.805     0.323     0.656     1.272
   208   8 o        1.608    -0.683    27.258     7.046
   209   1 h        0.802     0.364     0.558     1.173
   210   1 h        0.805     0.311     0.690     1.304
   211   8 o        1.608    -0.675    27.045     7.019
   212   1 h        0.804     0.350     0.587     1.204
   213   1 h        0.805     0.330     0.636     1.253
   214   8 o        1.608    -0.709    27.947     7.135
   215   1 h        0.803     0.345     0.600     1.217
   216   1 h        0.804     0.362     0.561     1.177
   217   8 o        1.609    -0.669    26.905     7.001
   218   1 h        0.804     0.347     0.596     1.212
   219   1 h        0.805     0.352     0.583     1.199
   220   8 o        1.607    -0.695    27.574     7.087
   221   1 h        0.803     0.354     0.578     1.195
   222   1 h        0.803     0.360     0.566     1.182
   223   8 o        1.607    -0.691    27.461     7.073
   224   1 h        0.804     0.354     0.578     1.194
   225   1 h        0.804     0.347     0.595     1.212
   226   8 o        1.607    -0.692    27.507     7.078
   227   1 h        0.803     0.351     0.586     1.203
   228   1 h        0.803     0.362     0.561     1.177
   229   8 o        1.608    -0.686    27.330     7.056
   230   1 h        0.804     0.348     0.593     1.210
   231   1 h        0.804     0.357     0.573     1.189
   232   8 o        1.608    -0.665    26.806     6.988
   233   1 h        0.803     0.359     0.568     1.184
   234   1 h        0.805     0.307     0.701     1.315
   235   8 o        1.608    -0.688    27.397     7.064
   236   1 h        0.803     0.361     0.563     1.179
   237   1 h        0.805     0.341     0.609     1.226
   238   8 o        1.609    -0.677    27.118     7.028
   239   1 h        0.805     0.334     0.627     1.244
   240   1 h        0.804     0.346     0.599     1.216
   241   8 o        1.607    -0.676    27.086     7.024
   242   1 h        0.805     0.313     0.682     1.298
   243   1 h        0.802     0.369     0.547     1.161
   244   8 o        1.609    -0.657    26.591     6.960
   245   1 h        0.803     0.350     0.588     1.204
   246   1 h        0.806     0.316     0.674     1.290
   247   8 o        1.610    -0.678    27.128     7.030
   248   1 h        0.805     0.345     0.600     1.216
   249   1 h        0.805     0.333     0.629     1.246
   250   8 o        1.608    -0.698    27.658     7.098
   251   1 h        0.802     0.361     0.564     1.180
   252   1 h        0.805     0.313     0.682     1.297
   253   8 o        1.608    -0.684    27.278     7.049
   254   1 h        0.804     0.361     0.562     1.178
   255   1 h        0.804     0.338     0.616     1.233
   256   8 o        1.607    -0.694    27.561     7.085
   257   1 h        0.803     0.363     0.558     1.173
   258   1 h        0.803     0.343     0.604     1.221
   259   8 o        1.608    -0.668    26.871     6.996
   260   1 h        0.803     0.354     0.578     1.195
   261   1 h        0.805     0.313     0.684     1.299
   262   8 o        1.607    -0.666    26.824     6.990
   263   1 h        0.805     0.315     0.678     1.294
   264   1 h        0.802     0.358     0.570     1.186
   265   8 o        1.609    -0.672    26.983     7.011
   266   1 h        0.805     0.334     0.626     1.243
   267   1 h        0.804     0.343     0.604     1.221
   268   8 o        1.608    -0.680    27.177     7.036
   269   1 h        0.804     0.333     0.630     1.247
   270   1 h        0.804     0.329     0.639     1.256
   271   8 o        1.609    -0.688    27.393     7.064
   272   1 h        0.805     0.346     0.597     1.213
   273   1 h        0.804     0.339     0.615     1.232
   274   8 o        1.607    -0.680    27.176     7.036
   275   1 h        0.804     0.319     0.666     1.282
   276   1 h        0.803     0.350     0.588     1.205
   277   8 o        1.607    -0.704    27.807     7.117
   278   1 h        0.803     0.346     0.598     1.215
   279   1 h        0.803     0.352     0.583     1.200
   280   8 o        1.609    -0.659    26.649     6.967
   281   1 h        0.805     0.337     0.620     1.237
   282   1 h        0.803     0.322     0.659     1.276
   283   8 o        1.605    -0.708    27.933     7.133
   284   1 h        0.803     0.356     0.575     1.191
   285   1 h        0.803     0.349     0.591     1.208
   286   8 o        1.607    -0.687    27.365     7.060
   287   1 h        0.803     0.356     0.575     1.191
   288   1 h        0.804     0.340     0.613     1.230
   289   8 o        1.608    -0.659    26.639     6.966
   290   1 h        0.804     0.327     0.644     1.261
   291   1 h        0.804     0.341     0.609     1.226
   292   8 o        1.608    -0.677    27.113     7.028
   293   1 h        0.804     0.337     0.620     1.237
   294   1 h        0.804     0.337     0.619     1.236
   295   8 o        1.608    -0.691    27.476     7.075
   296   1 h        0.805     0.334     0.626     1.243
   297   1 h        0.803     0.367     0.550     1.165
   298   8 o        1.607    -0.690    27.445     7.070
   299   1 h        0.804     0.347     0.595     1.212
   300   1 h        0.803     0.365     0.555     1.171
   301   8 o        1.608    -0.667    26.842     6.992
   302   1 h        0.804     0.343     0.604     1.221
   303   1 h        0.804     0.331     0.635     1.252
   304   8 o        1.608    -0.670    26.929     7.004
   305   1 h        0.803     0.342     0.608     1.225
   306   1 h        0.805     0.332     0.633     1.249
   307   8 o        1.610    -0.672    26.983     7.011
   308   1 h        0.805     0.325     0.649     1.266
   309   1 h        0.804     0.352     0.583     1.200
   310   8 o        1.608    -0.676    27.076     7.023
   311   1 h        0.805     0.317     0.671     1.287
   312   1 h        0.803     0.346     0.597     1.214
   313   8 o        1.606    -0.661    26.691     6.973
   314   1 h        0.801     0.354     0.578     1.195
   315   1 h        0.806     0.306     0.703     1.316
   316   8 o        1.608    -0.674    27.016     7.015
   317   1 h        0.803     0.355     0.577     1.194
   318   1 h        0.805     0.312     0.685     1.300
   319   8 o        1.608    -0.665    26.792     6.986
   320   1 h        0.804     0.332     0.632     1.249
   321   1 h        0.804     0.335     0.625     1.242
   322   8 o        1.606    -0.705    27.842     7.121
   323   1 h        0.802     0.332     0.634     1.251
   324   1 h        0.804     0.362     0.560     1.176
   325   8 o        1.609    -0.678    27.138     7.031
   326   1 h        0.804     0.342     0.608     1.224
   327   1 h        0.805     0.330     0.636     1.253
   328   8 o        1.608    -0.692    27.486     7.076
   329   1 h        0.803     0.352     0.583     1.199
   330   1 h        0.806     0.320     0.664     1.279
   331   8 o        1.609    -0.686    27.337     7.057
   332   1 h        0.804     0.349     0.590     1.206
   333   1 h        0.804     0.332     0.632     1.249
   334   8 o        1.609    -0.672    26.983     7.011
   335   1 h        0.804     0.357     0.573     1.189
   336   1 h        0.805     0.325     0.651     1.268
   337   8 o        1.608    -0.682    27.245     7.045
   338   1 h        0.804     0.335     0.624     1.241
   339   1 h        0.803     0.372     0.539     1.154
   340   8 o        1.608    -0.669    26.907     7.001
   341   1 h        0.805     0.330     0.637     1.254
   342   1 h        0.803     0.332     0.633     1.250
   343   8 o        1.608    -0.664    26.765     6.982
   344   1 h        0.804     0.345     0.601     1.217
   345   1 h        0.804     0.327     0.646     1.262
   346   8 o        1.609    -0.695    27.589     7.089
   347   1 h        0.805     0.318     0.670     1.286
   348   1 h        0.804     0.358     0.570     1.186
   349   8 o        1.607    -0.662    26.716     6.976
   350   1 h        0.805     0.321     0.660     1.276
   351   1 h        0.802     0.345     0.599     1.216
   352   8 o        1.606    -0.694    27.561     7.085
   353   1 h        0.802     0.359     0.568     1.184
   354   1 h        0.804     0.322     0.660     1.276
   355   8 o        1.608    -0.671    26.958     7.007
   356   1 h        0.806     0.313     0.684     1.299
   357   1 h        0.803     0.351     0.585     1.202
   358   8 o        1.608    -0.681    27.198     7.039
   359   1 h        0.804     0.341     0.610     1.227
   360   1 h        0.803     0.348     0.594     1.211
   361   8 o        1.606    -0.687    27.362     7.060
   362   1 h        0.802     0.345     0.601     1.218
   363   1 h        0.805     0.326     0.648     1.265
   364   8 o        1.610    -0.690    27.433     7.069
   365   1 h        0.805     0.343     0.604     1.220
   366   1 h        0.803     0.355     0.578     1.194
   367   8 o        1.608    -0.692    27.512     7.079
   368   1 h        0.805     0.330     0.638     1.254
   369   1 h        0.803     0.362     0.560     1.176
   370   8 o        1.608    -0.682    27.246     7.045
   371   1 h        0.804     0.339     0.614     1.231
   372   1 h        0.804     0.322     0.659     1.275
   373   8 o        1.610    -0.674    27.023     7.016
   374   1 h        0.805     0.326     0.647     1.264
   375   1 h        0.804     0.350     0.587     1.204
   376   8 o        1.611    -0.691    27.460     7.073
   377   1 h        0.804     0.359     0.568     1.184
   378   1 h        0.804     0.334     0.627     1.243
   379   8 o        1.606    -0.653    26.487     6.946
   380   1 h        0.802     0.350     0.589     1.206
   381   1 h        0.806     0.310     0.692     1.307
   382   8 o        1.609    -0.686    27.333     7.056
   383   1 h        0.804     0.335     0.625     1.242
   384   1 h        0.804     0.348     0.594     1.211
   385   8 o        1.608    -0.689    27.411     7.066
   386   1 h        0.804     0.339     0.616     1.232
   387   1 h        0.804     0.341     0.610     1.227
   388   8 o        1.607    -0.675    27.059     7.021
   389   1 h        0.803     0.333     0.630     1.247
   390   1 h        0.803     0.340     0.613     1.230
   391   8 o        1.609    -0.654    26.514     6.950
   392   1 h        0.804     0.361     0.563     1.179
   393   1 h        0.805     0.313     0.684     1.299
   394   8 o        1.607    -0.674    27.034     7.017
   395   1 h        0.804     0.353     0.581     1.197
   396   1 h        0.803     0.338     0.617     1.234
   397   8 o        1.607    -0.689    27.422     7.068
   398   1 h        0.802     0.362     0.562     1.178
   399   1 h        0.804     0.330     0.639     1.255
   400   8 o        1.606    -0.694    27.559     7.085
   401   1 h        0.805     0.325     0.650     1.267
   402   1 h        0.802     0.365     0.556     1.171
   403   8 o        1.607    -0.692    27.501     7.078
   404   1 h        0.804     0.340     0.611     1.228
   405   1 h        0.803     0.366     0.553     1.168
   406   8 o        1.607    -0.680    27.179     7.036
   407   1 h        0.803     0.362     0.561     1.177
   408   1 h        0.805     0.329     0.640     1.257
   409   8 o        1.607    -0.676    27.084     7.024
   410   1 h        0.802     0.348     0.593     1.209
   411   1 h        0.805     0.327     0.646     1.263
   412   8 o        1.608    -0.682    27.239     7.044
   413   1 h        0.804     0.339     0.614     1.231
   414   1 h        0.804     0.353     0.580     1.197
   415   8 o        1.608    -0.672    26.984     7.011
   416   1 h        0.806     0.311     0.689     1.304
   417   1 h        0.802     0.371     0.541     1.156
   418   8 o        1.608    -0.658    26.608     6.962
   419   1 h        0.805     0.328     0.642     1.259
   420   1 h        0.803     0.334     0.627     1.244
   421   8 o        1.608    -0.668    26.876     6.997
   422   1 h        0.802     0.353     0.583     1.199
   423   1 h        0.806     0.316     0.674     1.290
   424   8 o        1.606    -0.680    27.182     7.036
   425   1 h        0.803     0.335     0.626     1.243
   426   1 h        0.803     0.331     0.636     1.253
   427   8 o        1.607    -0.689    27.413     7.066
   428   1 h        0.803     0.365     0.555     1.171
   429   1 h        0.804     0.322     0.659     1.275
   430   8 o        1.607    -0.680    27.186     7.037
   431   1 h        0.804     0.342     0.607     1.224
   432   1 h        0.803     0.350     0.589     1.206
   433   8 o        1.606    -0.708    27.931     7.133
   434   1 h        0.803     0.357     0.573     1.189
   435   1 h        0.803     0.332     0.632     1.249
   436   8 o        1.608    -0.665    26.792     6.986
   437   1 h        0.804     0.347     0.595     1.212
   438   1 h        0.805     0.332     0.632     1.248
   439   8 o        1.609    -0.688    27.393     7.064
   440   1 h        0.804     0.350     0.589     1.206
   441   1 h        0.804     0.352     0.583     1.200
   442   8 o        1.608    -0.674    27.021     7.016
   443   1 h        0.803     0.333     0.629     1.246
   444   1 h        0.804     0.329     0.639     1.256
   445   8 o        1.607    -0.677    27.099     7.026
   446   1 h        0.802     0.338     0.616     1.233
   447   1 h        0.805     0.328     0.644     1.260
   448   8 o        1.605    -0.710    27.986     7.140
   449   1 h        0.802     0.365     0.555     1.170
   450   1 h        0.803     0.325     0.649     1.266
   451   8 o        1.607    -0.698    27.665     7.099
   452   1 h        0.803     0.354     0.579     1.195
   453   1 h        0.805     0.329     0.640     1.257
   454   8 o        1.607    -0.674    27.033     7.017
   455   1 h        0.802     0.370     0.544     1.159
   456   1 h        0.805     0.320     0.665     1.280
   457   8 o        1.608    -0.700    27.724     7.106
   458   1 h        0.804     0.344     0.602     1.219
   459   1 h        0.803     0.339     0.616     1.233
   460   8 o        1.609    -0.639    26.149     6.902
   461   1 h        0.804     0.343     0.605     1.222
   462   1 h        0.805     0.324     0.654     1.270
   463   8 o        1.607    -0.669    26.911     7.001
   464   1 h        0.802     0.368     0.548     1.163
   465   1 h        0.805     0.312     0.685     1.300
   466   8 o        1.608    -0.688    27.395     7.064
   467   1 h        0.805     0.312     0.686     1.301
   468   1 h        0.803     0.358     0.570     1.186
   469   8 o        1.605    -0.670    26.937     7.005
   470   1 h        0.801     0.351     0.587     1.204
   471   1 h        0.806     0.308     0.697     1.311
   472   8 o        1.607    -0.683    27.255     7.046
   473   1 h        0.806     0.317     0.673     1.288
   474   1 h        0.802     0.359     0.568     1.184
   475   8 o        1.608    -0.678    27.132     7.030
   476   1 h        0.804     0.333     0.630     1.247
   477   1 h        0.804     0.339     0.616     1.233
   478   8 o        1.608    -0.677    27.112     7.028
   479   1 h        0.805     0.325     0.652     1.268
   480   1 h        0.804     0.339     0.614     1.231
   481   8 o        1.609    -0.669    26.905     7.001
   482   1 h        0.805     0.313     0.683     1.299
   483   1 h        0.804     0.342     0.608     1.225
   484   8 o        1.607    -0.702    27.768     7.112
   485   1 h        0.804     0.331     0.634     1.251
   486   1 h        0.803     0.352     0.583     1.200
   487   8 o        1.609    -0.655    26.553     6.955
   488   1 h        0.806     0.303     0.711     1.324
   489   1 h        0.803     0.356     0.574     1.190
   490   8 o        1.609    -0.666    26.818     6.989
   491   1 h        0.805     0.331     0.634     1.251
   492   1 h        0.805     0.331     0.635     1.252
   493   8 o        1.604    -0.714    28.084     7.152
   494   1 h        0.802     0.351     0.587     1.204
   495   1 h        0.803     0.361     0.564     1.180
   496   8 o        1.608    -0.672    26.971     7.009
   497   1 h        0.804     0.331     0.636     1.252
   498   1 h        0.804     0.342     0.606     1.223
   499   8 o        1.607    -0.665    26.800     6.987
   500   1 h        0.804     0.333     0.631     1.247
   501   1 h        0.802     0.330     0.637     1.254
   502   8 o        1.607    -0.680    27.192     7.038
   503   1 h        0.803     0.328     0.642     1.258
   504   1 h        0.803     0.331     0.634     1.251
   505   8 o        1.607    -0.689    27.431     7.069
   506   1 h        0.803     0.362     0.561     1.176
   507   1 h        0.804     0.325     0.650     1.267
   508   8 o        1.606    -0.716    28.133     7.159
   509   1 h        0.804     0.329     0.640     1.257
   510   1 h        0.802     0.365     0.555     1.170
   511   8 o        1.606    -0.695    27.579     7.088
   512   1 h        0.803     0.350     0.588     1.204
   513   1 h        0.803     0.347     0.596     1.213
   514   8 o        1.608    -0.679    27.154     7.033
   515   1 h        0.804     0.343     0.604     1.221
   516   1 h        0.804     0.332     0.632     1.249
   517   8 o        1.608    -0.688    27.383     7.063
   518   1 h        0.805     0.356     0.574     1.190
   519   1 h        0.803     0.329     0.640     1.256
   520   8 o        1.606    -0.696    27.597     7.090
   521   1 h        0.803     0.328     0.644     1.260
   522   1 h        0.803     0.365     0.555     1.171
   523   8 o        1.604    -0.683    27.278     7.049
   524   1 h        0.802     0.334     0.628     1.245
   525   1 h        0.803     0.332     0.632     1.249
   526   8 o        1.609    -0.673    27.010     7.014
   527   1 h        0.805     0.343     0.605     1.222
   528   1 h        0.805     0.337     0.620     1.237
   529   8 o        1.608    -0.689    27.421     7.067
   530   1 h        0.804     0.332     0.632     1.248
   531   1 h        0.804     0.349     0.591     1.207
   532   8 o        1.608    -0.656    26.563     6.956
   533   1 h        0.803     0.345     0.601     1.218
   534   1 h        0.805     0.314     0.681     1.296
   535   8 o        1.610    -0.666    26.813     6.989
   536   1 h        0.805     0.335     0.625     1.242
   537   1 h        0.804     0.343     0.604     1.221
   538   8 o        1.607    -0.692    27.496     7.077
   539   1 h        0.804     0.326     0.649     1.265
   540   1 h        0.803     0.348     0.593     1.210
   541   8 o        1.608    -0.665    26.790     6.986
   542   1 h        0.806     0.307     0.699     1.313
   543   1 h        0.803     0.353     0.582     1.198
   544   8 o        1.607    -0.693    27.522     7.080
   545   1 h        0.802     0.341     0.611     1.228
   546   1 h        0.805     0.327     0.645     1.262
   547   8 o        1.609    -0.651    26.445     6.941
   548   1 h        0.804     0.342     0.608     1.225
   549   1 h        0.805     0.331     0.636     1.252
   550   8 o        1.608    -0.662    26.727     6.977
   551   1 h        0.805     0.325     0.649     1.266
   552   1 h        0.803     0.331     0.634     1.251
   553   8 o        1.608    -0.675    27.049     7.019
   554   1 h        0.805     0.327     0.645     1.261
   555   1 h        0.803     0.341     0.609     1.226
   556   8 o        1.608    -0.650    26.418     6.937
   557   1 h        0.803     0.342     0.609     1.225
   558   1 h        0.804     0.330     0.636     1.253
   559   8 o        1.609    -0.675    27.045     7.019
   560   1 h        0.805     0.338     0.617     1.234
   561   1 h        0.804     0.339     0.616     1.232
   562   8 o        1.605    -0.698    27.652     7.097
   563   1 h        0.803     0.328     0.643     1.260
   564   1 h        0.802     0.335     0.626     1.243
   565   8 o        1.606    -0.687    27.374     7.061
   566   1 h        0.804     0.329     0.639     1.256
   567   1 h        0.803     0.359     0.567     1.183
   568   8 o        1.605    -0.711    28.006     7.142
   569   1 h        0.804     0.326     0.647     1.264
   570   1 h        0.802     0.362     0.560     1.176
   571   8 o        1.607    -0.685    27.305     7.052
   572   1 h        0.804     0.326     0.648     1.265
   573   1 h        0.803     0.351     0.586     1.202
   574   8 o        1.609    -0.677    27.104     7.027
   575   1 h        0.804     0.344     0.603     1.219
   576   1 h        0.805     0.359     0.567     1.183
   577   8 o        1.607    -0.687    27.377     7.062
   578   1 h        0.803     0.370     0.544     1.159
   579   1 h        0.805     0.333     0.631     1.247
   580   8 o        1.609    -0.683    27.266     7.047
   581   1 h        0.805     0.335     0.626     1.243
   582   1 h        0.804     0.333     0.630     1.247
   583   8 o        1.606    -0.706    27.867     7.125
   584   1 h        0.803     0.345     0.601     1.217
   585   1 h        0.803     0.347     0.596     1.213
   586   8 o        1.608    -0.690    27.434     7.069
   587   1 h        0.803     0.336     0.623     1.240
   588   1 h        0.804     0.335     0.624     1.240
   589   8 o        1.607    -0.684    27.280     7.049
   590   1 h        0.806     0.316     0.676     1.291
   591   1 h        0.802     0.359     0.568     1.184
   592   8 o        1.610    -0.679    27.165     7.034
   593   1 h        0.804     0.344     0.603     1.220
   594   1 h        0.804     0.345     0.599     1.216
   595   8 o        1.610    -0.649    26.377     6.932
   596   1 h        0.805     0.322     0.659     1.275
   597   1 h        0.805     0.335     0.626     1.242
   598   8 o        1.608    -0.680    27.191     7.038
   599   1 h        0.803     0.371     0.542     1.156
   600   1 h        0.805     0.319     0.668     1.283
   601   8 o        1.607    -0.687    27.357     7.059
   602   1 h        0.804     0.334     0.627     1.244
   603   1 h        0.803     0.360     0.566     1.182
   604   8 o        1.608    -0.672    26.978     7.010
   605   1 h        0.804     0.334     0.626     1.243
   606   1 h        0.803     0.360     0.566     1.182
   607   8 o        1.608    -0.673    27.014     7.015
   608   1 h        0.803     0.329     0.640     1.256
   609   1 h        0.804     0.340     0.613     1.230
   610   8 o        1.608    -0.666    26.820     6.990
   611   1 h        0.805     0.325     0.650     1.267
   612   1 h        0.803     0.340     0.613     1.230
   613   8 o        1.607    -0.660    26.658     6.968
   614   1 h        0.802     0.358     0.570     1.186
   615   1 h        0.806     0.312     0.686     1.301
   616   8 o        1.608    -0.676    27.088     7.024
   617   1 h        0.803     0.349     0.590     1.207
   618   1 h        0.805     0.322     0.659     1.275
   619   8 o        1.607    -0.687    27.375     7.062
   620   1 h        0.804     0.337     0.619     1.236
   621   1 h        0.803     0.360     0.565     1.181
   622   8 o        1.608    -0.678    27.129     7.030
   623   1 h        0.803     0.340     0.613     1.230
   624   1 h        0.805     0.335     0.624     1.241
   625   8 o        1.606    -0.687    27.377     7.062
   626   1 h        0.806     0.301     0.717     1.330
   627   1 h        0.801     0.361     0.564     1.180
   628   8 o        1.609    -0.647    26.335     6.926
   629   1 h        0.805     0.318     0.669     1.285
   630   1 h        0.804     0.336     0.623     1.239
   631   8 o        1.607    -0.670    26.924     7.003
   632   1 h        0.803     0.342     0.607     1.224
   633   1 h        0.803     0.350     0.588     1.204
   634   8 o        1.606    -0.698    27.655     7.097
   635   1 h        0.802     0.354     0.580     1.197
   636   1 h        0.804     0.330     0.636     1.253
   637   8 o        1.608    -0.665    26.801     6.987
   638   1 h        0.804     0.329     0.639     1.256
   639   1 h        0.805     0.339     0.616     1.233
   640   8 o        1.604    -0.694    27.556     7.085
   641   1 h        0.805     0.315     0.678     1.293
   642   1 h        0.801     0.370     0.543     1.158
   643   8 o        1.605    -0.696    27.596     7.090
   644   1 h        0.803     0.365     0.555     1.171
   645   1 h        0.802     0.350     0.588     1.205
   646   8 o        1.606    -0.684    27.303     7.052
   647   1 h        0.806     0.305     0.707     1.321
   648   1 h        0.802     0.369     0.547     1.162
   649   8 o        1.606    -0.682    27.228     7.042
   650   1 h        0.803     0.346     0.599     1.216
   651   1 h        0.803     0.336     0.623     1.239
   652   8 o        1.606    -0.682    27.233     7.043
   653   1 h        0.804     0.343     0.604     1.221
   654   1 h        0.802     0.360     0.566     1.182
   655   8 o        1.606    -0.658    26.617     6.963
   656   1 h        0.805     0.337     0.620     1.236
   657   1 h        0.802     0.335     0.626     1.243
   658   8 o        1.608    -0.688    27.380     7.062
   659   1 h        0.805     0.338     0.616     1.233
   660   1 h        0.804     0.342     0.608     1.225
   661   8 o        1.609    -0.684    27.280     7.049
   662   1 h        0.805     0.335     0.624     1.241
   663   1 h        0.804     0.343     0.605     1.222
   664   8 o        1.609    -0.696    27.615     7.092
   665   1 h        0.804     0.339     0.615     1.232
   666   1 h        0.805     0.346     0.598     1.214
   667   8 o        1.609    -0.664    26.774     6.984
   668   1 h        0.804     0.329     0.639     1.256
   669   1 h        0.805     0.327     0.645     1.261
   670   8 o        1.607    -0.671    26.939     7.005
   671   1 h        0.802     0.336     0.621     1.238
   672   1 h        0.805     0.329     0.639     1.256
   673   8 o        1.605    -0.712    28.024     7.145
   674   1 h        0.804     0.352     0.584     1.201
   675   1 h        0.804     0.329     0.639     1.255
   676   8 o        1.605    -0.702    27.758     7.111
   677   1 h        0.803     0.355     0.576     1.192
   678   1 h        0.804     0.347     0.596     1.213
   679   8 o        1.604    -0.721    28.269     7.176
   680   1 h        0.803     0.349     0.590     1.206
   681   1 h        0.803     0.366     0.553     1.168
   682   8 o        1.610    -0.641    26.198     6.908
   683   1 h        0.804     0.341     0.609     1.226
   684   1 h        0.805     0.326     0.648     1.265
   685   8 o        1.607    -0.671    26.961     7.008
   686   1 h        0.803     0.355     0.576     1.193
   687   1 h        0.804     0.329     0.641     1.257
   688   8 o        1.607    -0.681    27.224     7.042
   689   1 h        0.803     0.328     0.643     1.260
   690   1 h        0.804     0.346     0.598     1.215
   691   8 o        1.608    -0.681    27.210     7.040
   692   1 h        0.805     0.323     0.657     1.273
   693   1 h        0.803     0.365     0.555     1.170
   694   8 o        1.607    -0.704    27.824     7.119
   695   1 h        0.804     0.364     0.556     1.171
   696   1 h        0.803     0.353     0.581     1.197
   697   8 o        1.609    -0.677    27.106     7.027
   698   1 h        0.804     0.339     0.614     1.231
   699   1 h        0.805     0.327     0.646     1.263
   700   8 o        1.609    -0.677    27.118     7.028
   701   1 h        0.805     0.331     0.635     1.251
   702   1 h        0.804     0.331     0.636     1.252
   703   8 o        1.609    -0.676    27.090     7.025
   704   1 h        0.805     0.347     0.594     1.211
   705   1 h        0.804     0.335     0.624     1.241
   706   8 o        1.607    -0.688    27.403     7.065
   707   1 h        0.803     0.335     0.625     1.242
   708   1 h        0.803     0.366     0.553     1.168
   709   8 o        1.609    -0.651    26.452     6.941
   710   1 h        0.803     0.342     0.606     1.223
   711   1 h        0.806     0.304     0.710     1.324
   712   8 o        1.607    -0.700    27.707     7.104
   713   1 h        0.804     0.326     0.648     1.265
   714   1 h        0.802     0.359     0.567     1.183
   715   8 o        1.612    -0.668    26.883     6.998
   716   1 h        0.804     0.353     0.582     1.199
   717   1 h        0.804     0.350     0.589     1.206
   718   8 o        1.606    -0.658    26.612     6.962
   719   1 h        0.804     0.326     0.649     1.265
   720   1 h        0.803     0.335     0.624     1.241
   721   8 o        1.608    -0.674    27.017     7.015
   722   1 h        0.804     0.342     0.606     1.223
   723   1 h        0.804     0.332     0.632     1.249
   724   8 o        1.607    -0.683    27.253     7.046
   725   1 h        0.803     0.329     0.639     1.256
   726   1 h        0.804     0.339     0.614     1.231
   727   8 o        1.607    -0.689    27.411     7.066
   728   1 h        0.802     0.367     0.550     1.165
   729   1 h        0.805     0.319     0.666     1.282
   730   8 o        1.608    -0.684    27.301     7.052
   731   1 h        0.804     0.346     0.597     1.214
   732   1 h        0.804     0.338     0.618     1.235
   733   8 o        1.607    -0.705    27.849     7.122
   734   1 h        0.803     0.358     0.570     1.186
   735   1 h        0.804     0.333     0.631     1.247
   736   8 o        1.605    -0.695    27.589     7.089
   737   1 h        0.803     0.352     0.584     1.201
   738   1 h        0.802     0.330     0.639     1.256
   739   8 o        1.610    -0.663    26.742     6.980
   740   1 h        0.805     0.324     0.654     1.270
   741   1 h        0.804     0.350     0.589     1.206
   742   8 o        1.608    -0.687    27.378     7.062
   743   1 h        0.805     0.330     0.636     1.253
   744   1 h        0.804     0.331     0.635     1.252
   745   8 o        1.609    -0.663    26.753     6.981
   746   1 h        0.803     0.348     0.594     1.211
   747   1 h        0.805     0.326     0.648     1.264
   748   8 o        1.609    -0.661    26.690     6.973
   749   1 h        0.804     0.330     0.638     1.255
   750   1 h        0.805     0.340     0.612     1.229
   751   8 o        1.608    -0.690    27.450     7.071
   752   1 h        0.804     0.341     0.609     1.226
   753   1 h        0.805     0.336     0.622     1.239
   754   8 o        1.611    -0.664    26.766     6.983
   755   1 h        0.804     0.344     0.603     1.220
   756   1 h        0.806     0.329     0.640     1.257

 Mol. C6AA /au·bohr⁶  :    2900923.680614
 Mol. C8AA /au·bohr⁸  :   52646083.448917
 Mol. α(0) /au        :       2393.535255


Wiberg/Mayer (AO) data.
largest (>0.10) Wiberg bond orders for each atom

 ---------------------------------------------------------------------------
     #   Z sym  total        # sym  WBO       # sym  WBO       # sym  WBO
 ---------------------------------------------------------------------------
     1   8 o    1.837 --     3 h    0.839     2 h    0.800
     2   1 h    0.885 --     1 o    0.800
     3   1 h    0.886 --     1 o    0.839
     4   8 o    1.875 --     6 h    0.820     5 h    0.805
     5   1 h    0.874 --     4 o    0.805
     6   1 h    0.879 --     4 o    0.820
     7   8 o    1.807 --     9 h    0.821     8 h    0.797
     8   1 h    0.879 --     7 o    0.797
     9   1 h    0.884 --     7 o    0.821
    10   8 o    1.819 --    12 h    0.814    11 h    0.812
    11   1 h    0.886 --    10 o    0.812
    12   1 h    0.883 --    10 o    0.814
    13   8 o    1.889 --    15 h    0.840    14 h    0.788
    14   1 h    0.868 --    13 o    0.788
    15   1 h    0.882 --    13 o    0.840
    16   8 o    1.845 --    18 h    0.836    17 h    0.814
    17   1 h    0.881 --    16 o    0.814
    18   1 h    0.883 --    16 o    0.836
    19   8 o    1.860 --    21 h    0.826    20 h    0.804
    20   1 h    0.878 --    19 o    0.804
    21   1 h    0.885 --    19 o    0.826
    22   8 o    1.867 --    24 h    0.813    23 h    0.787
    23   1 h    0.869 --    22 o    0.787
    24   1 h    0.882 --    22 o    0.813
    25   8 o    1.823 --    27 h    0.845    26 h    0.819
    26   1 h    0.883 --    25 o    0.819
    27   1 h    0.901 --    25 o    0.845
    28   8 o    1.858 --    30 h    0.820    29 h    0.813
    29   1 h    0.877 --    28 o    0.813
    30   1 h    0.876 --    28 o    0.820
    31   8 o    1.819 --    32 h    0.825    33 h    0.819
    32   1 h    0.879 --    31 o    0.825
    33   1 h    0.894 --    31 o    0.819
    34   8 o    1.849 --    36 h    0.838    35 h    0.821
    35   1 h    0.873 --    34 o    0.821
    36   1 h    0.884 --    34 o    0.838
    37   8 o    1.817 --    39 h    0.826    38 h    0.806
    38   1 h    0.871 --    37 o    0.806
    39   1 h    0.893 --    37 o    0.826
    40   8 o    1.818 --    42 h    0.821    41 h    0.802
    41   1 h    0.874 --    40 o    0.802
    42   1 h    0.884 --    40 o    0.821
    43   8 o    1.887 --    45 h    0.818    44 h    0.805
    44   1 h    0.878 --    43 o    0.805
    45   1 h    0.875 --    43 o    0.818
    46   8 o    1.880 --    47 h    0.789    48 h    0.786
    47   1 h    0.873 --    46 o    0.789
    48   1 h    0.872 --    46 o    0.786
    49   8 o    1.854 --    51 h    0.832    50 h    0.820
    50   1 h    0.879 --    49 o    0.820
    51   1 h    0.877 --    49 o    0.832
    52   8 o    1.845 --    54 h    0.833    53 h    0.805
    53   1 h    0.881 --    52 o    0.805
    54   1 h    0.883 --    52 o    0.833
    55   8 o    1.874 --    57 h    0.839    56 h    0.814
    56   1 h    0.876 --    55 o    0.814
    57   1 h    0.882 --    55 o    0.839
    58   8 o    1.854 --    60 h    0.856    59 h    0.828
    59   1 h    0.881 --    58 o    0.828
    60   1 h    0.884 --    58 o    0.856
    61   8 o    1.895 --    63 h    0.877    62 h    0.753
    62   1 h    0.862 --    61 o    0.753   715 o    0.100
    63   1 h    0.898 --    61 o    0.877
    64   8 o    1.854 --    65 h    0.816    66 h    0.810
    65   1 h    0.886 --    64 o    0.816
    66   1 h    0.871 --    64 o    0.810
    67   8 o    1.862 --    69 h    0.863    68 h    0.840
    68   1 h    0.882 --    67 o    0.840
    69   1 h    0.885 --    67 o    0.863
    70   8 o    1.819 --    71 h    0.837    72 h    0.831
    71   1 h    0.887 --    70 o    0.837
    72   1 h    0.887 --    70 o    0.831
    73   8 o    1.846 --    75 h    0.810    74 h    0.810
    74   1 h    0.879 --    73 o    0.810
    75   1 h    0.880 --    73 o    0.810
    76   8 o    1.844 --    78 h    0.814    77 h    0.803
    77   1 h    0.879 --    76 o    0.803
    78   1 h    0.880 --    76 o    0.814
    79   8 o    1.797 --    80 h    0.841    81 h    0.831
    80   1 h    0.894 --    79 o    0.841
    81   1 h    0.889 --    79 o    0.831
    82   8 o    1.850 --    84 h    0.846    83 h    0.757
    83   1 h    0.862 --    82 o    0.757
    84   1 h    0.883 --    82 o    0.846
    85   8 o    1.861 --    86 h    0.838    87 h    0.832
    86   1 h    0.894 --    85 o    0.838
    87   1 h    0.881 --    85 o    0.832
    88   8 o    1.879 --    89 h    0.835    90 h    0.808
    89   1 h    0.892 --    88 o    0.835
    90   1 h    0.875 --    88 o    0.808
    91   8 o    1.818 --    93 h    0.838    92 h    0.819
    92   1 h    0.883 --    91 o    0.819
    93   1 h    0.892 --    91 o    0.838
    94   8 o    1.846 --    95 h    0.842    96 h    0.802
    95   1 h    0.883 --    94 o    0.842
    96   1 h    0.868 --    94 o    0.802
    97   8 o    1.828 --    98 h    0.857    99 h    0.838
    98   1 h    0.895 --    97 o    0.857
    99   1 h    0.890 --    97 o    0.838
   100   8 o    1.817 --   102 h    0.832   101 h    0.817
   101   1 h    0.888 --   100 o    0.817
   102   1 h    0.889 --   100 o    0.832
   103   8 o    1.866 --   105 h    0.812   104 h    0.795
   104   1 h    0.877 --   103 o    0.795
   105   1 h    0.879 --   103 o    0.812
   106   8 o    1.881 --   108 h    0.862   107 h    0.806
   107   1 h    0.872 --   106 o    0.806
   108   1 h    0.893 --   106 o    0.862
   109   8 o    1.846 --   111 h    0.827   110 h    0.806
   110   1 h    0.873 --   109 o    0.806
   111   1 h    0.884 --   109 o    0.827
   112   8 o    1.819 --   113 h    0.848   114 h    0.837
   113   1 h    0.888 --   112 o    0.848
   114   1 h    0.883 --   112 o    0.837
   115   8 o    1.848 --   116 h    0.837   117 h    0.819
   116   1 h    0.883 --   115 o    0.837
   117   1 h    0.881 --   115 o    0.819
   118   8 o    1.867 --   119 h    0.823   120 h    0.795
   119   1 h    0.883 --   118 o    0.823
   120   1 h    0.878 --   118 o    0.795
   121   8 o    1.836 --   122 h    0.872   123 h    0.839
   122   1 h    0.893 --   121 o    0.872
   123   1 h    0.885 --   121 o    0.839
   124   8 o    1.836 --   126 h    0.817   125 h    0.799
   125   1 h    0.878 --   124 o    0.799
   126   1 h    0.872 --   124 o    0.817
   127   8 o    1.839 --   129 h    0.843   128 h    0.811
   128   1 h    0.879 --   127 o    0.811
   129   1 h    0.887 --   127 o    0.843
   130   8 o    1.853 --   131 h    0.830   132 h    0.820
   131   1 h    0.890 --   130 o    0.830
   132   1 h    0.870 --   130 o    0.820
   133   8 o    1.788 --   135 h    0.848   134 h    0.842
   134   1 h    0.892 --   133 o    0.842
   135   1 h    0.891 --   133 o    0.848
   136   8 o    1.854 --   138 h    0.833   137 h    0.824
   137   1 h    0.876 --   136 o    0.824
   138   1 h    0.899 --   136 o    0.833
   139   8 o    1.867 --   140 h    0.827   141 h    0.784
   140   1 h    0.875 --   139 o    0.827
   141   1 h    0.873 --   139 o    0.784
   142   8 o    1.854 --   143 h    0.834   144 h    0.808
   143   1 h    0.892 --   142 o    0.834
   144   1 h    0.890 --   142 o    0.808
   145   8 o    1.849 --   147 h    0.835   146 h    0.815
   146   1 h    0.877 --   145 o    0.815
   147   1 h    0.896 --   145 o    0.835
   148   8 o    1.831 --   149 h    0.836   150 h    0.798
   149   1 h    0.878 --   148 o    0.836
   150   1 h    0.879 --   148 o    0.798
   151   8 o    1.847 --   153 h    0.828   152 h    0.825
   152   1 h    0.887 --   151 o    0.825
   153   1 h    0.887 --   151 o    0.828
   154   8 o    1.882 --   156 h    0.855   155 h    0.780
   155   1 h    0.867 --   154 o    0.780
   156   1 h    0.890 --   154 o    0.855
   157   8 o    1.824 --   158 h    0.857   159 h    0.820
   158   1 h    0.895 --   157 o    0.857
   159   1 h    0.886 --   157 o    0.820
   160   8 o    1.860 --   162 h    0.816   161 h    0.811
   161   1 h    0.880 --   160 o    0.811
   162   1 h    0.881 --   160 o    0.816
   163   8 o    1.787 --   165 h    0.847   164 h    0.808
   164   1 h    0.872 --   163 o    0.808
   165   1 h    0.896 --   163 o    0.847
   166   8 o    1.863 --   167 h    0.830   168 h    0.808
   167   1 h    0.891 --   166 o    0.830
   168   1 h    0.891 --   166 o    0.808
   169   8 o    1.782 --   171 h    0.848   170 h    0.788
   170   1 h    0.880 --   169 o    0.788
   171   1 h    0.900 --   169 o    0.848
   172   8 o    1.862 --   174 h    0.803   173 h    0.802
   173   1 h    0.883 --   172 o    0.802
   174   1 h    0.872 --   172 o    0.803
   175   8 o    1.838 --   177 h    0.846   176 h    0.783
   176   1 h    0.876 --   175 o    0.783
   177   1 h    0.898 --   175 o    0.846
   178   8 o    1.857 --   180 h    0.854   179 h    0.817
   179   1 h    0.871 --   178 o    0.817
   180   1 h    0.892 --   178 o    0.854
   181   8 o    1.879 --   183 h    0.861   182 h    0.778
   182   1 h    0.860 --   181 o    0.778
   183   1 h    0.887 --   181 o    0.861
   184   8 o    1.862 --   185 h    0.839   186 h    0.835
   185   1 h    0.875 --   184 o    0.839
   186   1 h    0.893 --   184 o    0.835
   187   8 o    1.816 --   189 h    0.888   188 h    0.843
   188   1 h    0.875 --   187 o    0.843
   189   1 h    0.900 --   187 o    0.888
   190   8 o    1.856 --   192 h    0.896   191 h    0.818
   191   1 h    0.881 --   190 o    0.818
   192   1 h    0.905 --   190 o    0.896
   193   8 o    1.856 --   195 h    0.851   194 h    0.827
   194   1 h    0.872 --   193 o    0.827
   195   1 h    0.900 --   193 o    0.851
   196   8 o    1.870 --   197 h    0.844   198 h    0.793
   197   1 h    0.879 --   196 o    0.844
   198   1 h    0.871 --   196 o    0.793
   199   8 o    1.853 --   200 h    0.835   201 h    0.820
   200   1 h    0.875 --   199 o    0.835
   201   1 h    0.886 --   199 o    0.820
   202   8 o    1.850 --   203 h    0.818   204 h    0.789
   203   1 h    0.875 --   202 o    0.818
   204   1 h    0.872 --   202 o    0.789
   205   8 o    1.866 --   207 h    0.871   206 h    0.795
   206   1 h    0.868 --   205 o    0.795
   207   1 h    0.896 --   205 o    0.871
   208   8 o    1.823 --   210 h    0.888   209 h    0.787
   209   1 h    0.868 --   208 o    0.787
   210   1 h    0.903 --   208 o    0.888
   211   8 o    1.838 --   213 h    0.860   212 h    0.818
   212   1 h    0.877 --   211 o    0.818
   213   1 h    0.891 --   211 o    0.860
   214   8 o    1.826 --   215 h    0.808   216 h    0.803
   215   1 h    0.881 --   214 o    0.808
   216   1 h    0.869 --   214 o    0.803
   217   8 o    1.861 --   219 h    0.837   218 h    0.834
   218   1 h    0.880 --   217 o    0.834
   219   1 h    0.876 --   217 o    0.837
   220   8 o    1.897 --   222 h    0.802   221 h    0.786
   221   1 h    0.874 --   220 o    0.786
   222   1 h    0.871 --   220 o    0.802
   223   8 o    1.867 --   225 h    0.815   224 h    0.814
   224   1 h    0.874 --   223 o    0.814
   225   1 h    0.880 --   223 o    0.815
   226   8 o    1.899 --   227 h    0.806   228 h    0.789   642 h    0.102
   227   1 h    0.877 --   226 o    0.806
   228   1 h    0.869 --   226 o    0.789
   229   8 o    1.860 --   231 h    0.817   230 h    0.816
   230   1 h    0.879 --   229 o    0.816
   231   1 h    0.873 --   229 o    0.817
   232   8 o    1.845 --   234 h    0.883   233 h    0.784
   233   1 h    0.871 --   232 o    0.784
   234   1 h    0.906 --   232 o    0.883
   235   8 o    1.860 --   237 h    0.843   236 h    0.790
   236   1 h    0.870 --   235 o    0.790
   237   1 h    0.883 --   235 o    0.843
   238   8 o    1.840 --   239 h    0.850   240 h    0.825
   239   1 h    0.888 --   238 o    0.850
   240   1 h    0.881 --   238 o    0.825
   241   8 o    1.846 --   242 h    0.887   243 h    0.779
   242   1 h    0.902 --   241 o    0.887
   243   1 h    0.864 --   241 o    0.779
   244   8 o    1.828 --   246 h    0.892   245 h    0.826
   245   1 h    0.877 --   244 o    0.826
   246   1 h    0.900 --   244 o    0.892
   247   8 o    1.815 --   249 h    0.863   248 h    0.846
   248   1 h    0.881 --   247 o    0.846
   249   1 h    0.889 --   247 o    0.863
   250   8 o    1.796 --   252 h    0.896   251 h    0.785
   251   1 h    0.870 --   250 o    0.785
   252   1 h    0.902 --   250 o    0.896
   253   8 o    1.853 --   255 h    0.832   254 h    0.822
   254   1 h    0.869 --   253 o    0.822
   255   1 h    0.885 --   253 o    0.832
   256   8 o    1.875 --   258 h    0.803   257 h    0.797
   257   1 h    0.868 --   256 o    0.797
   258   1 h    0.882 --   256 o    0.803
   259   8 o    1.839 --   261 h    0.889   260 h    0.802
   260   1 h    0.874 --   259 o    0.802
   261   1 h    0.902 --   259 o    0.889
   262   8 o    1.845 --   263 h    0.890   264 h    0.796
   263   1 h    0.901 --   262 o    0.890
   264   1 h    0.872 --   262 o    0.796
   265   8 o    1.846 --   266 h    0.864   267 h    0.828
   266   1 h    0.888 --   265 o    0.864
   267   1 h    0.882 --   265 o    0.828
   268   8 o    1.828 --   270 h    0.844   269 h    0.830
   269   1 h    0.889 --   268 o    0.830
   270   1 h    0.891 --   268 o    0.844
   271   8 o    1.820 --   272 h    0.826   273 h    0.824
   272   1 h    0.880 --   271 o    0.826
   273   1 h    0.885 --   271 o    0.824
   274   8 o    1.849 --   275 h    0.841   276 h    0.811
   275   1 h    0.898 --   274 o    0.841
   276   1 h    0.877 --   274 o    0.811
   277   8 o    1.835 --   278 h    0.814   279 h    0.808
   278   1 h    0.880 --   277 o    0.814
   279   1 h    0.876 --   277 o    0.808
   280   8 o    1.859 --   281 h    0.844   282 h    0.840
   281   1 h    0.886 --   280 o    0.844
   282   1 h    0.896 --   280 o    0.840
   283   8 o    1.866 --   285 h    0.796   284 h    0.780
   284   1 h    0.873 --   283 o    0.780
   285   1 h    0.878 --   283 o    0.796
   286   8 o    1.863 --   288 h    0.841   287 h    0.783
   287   1 h    0.873 --   286 o    0.783
   288   1 h    0.885 --   286 o    0.841
   289   8 o    1.876 --   290 h    0.847   291 h    0.827
   290   1 h    0.893 --   289 o    0.847
   291   1 h    0.883 --   289 o    0.827
   292   8 o    1.830 --   294 h    0.854   293 h    0.845
   293   1 h    0.887 --   292 o    0.845
   294   1 h    0.886 --   292 o    0.854
   295   8 o    1.836 --   296 h    0.848   297 h    0.793
   296   1 h    0.888 --   295 o    0.848
   297   1 h    0.865 --   295 o    0.793
   298   8 o    1.861 --   299 h    0.837   300 h    0.800
   299   1 h    0.879 --   298 o    0.837
   300   1 h    0.867 --   298 o    0.800
   301   8 o    1.871 --   303 h    0.831   302 h    0.827
   302   1 h    0.882 --   301 o    0.827
   303   1 h    0.890 --   301 o    0.831
   304   8 o    1.839 --   306 h    0.864   305 h    0.822
   305   1 h    0.883 --   304 o    0.822
   306   1 h    0.890 --   304 o    0.864
   307   8 o    1.851 --   308 h    0.856   309 h    0.808
   308   1 h    0.894 --   307 o    0.856
   309   1 h    0.876 --   307 o    0.808
   310   8 o    1.807 --   311 h    0.886   312 h    0.818
   311   1 h    0.899 --   310 o    0.886
   312   1 h    0.880 --   310 o    0.818
   313   8 o    1.850 --   315 h    0.897   314 h    0.784
   314   1 h    0.874 --   313 o    0.784
   315   1 h    0.906 --   313 o    0.897
   316   8 o    1.814 --   318 h    0.880   317 h    0.808
   317   1 h    0.874 --   316 o    0.808
   318   1 h    0.902 --   316 o    0.880
   319   8 o    1.851 --   320 h    0.839   321 h    0.837
   320   1 h    0.890 --   319 o    0.839
   321   1 h    0.888 --   319 o    0.837
   322   8 o    1.825 --   323 h    0.819   324 h    0.815
   323   1 h    0.890 --   322 o    0.819
   324   1 h    0.869 --   322 o    0.815
   325   8 o    1.821 --   327 h    0.869   326 h    0.831
   326   1 h    0.883 --   325 o    0.831
   327   1 h    0.891 --   325 o    0.869
   328   8 o    1.796 --   330 h    0.889   329 h    0.809
   329   1 h    0.876 --   328 o    0.809
   330   1 h    0.898 --   328 o    0.889
   331   8 o    1.822 --   333 h    0.855   332 h    0.833
   332   1 h    0.878 --   331 o    0.833
   333   1 h    0.890 --   331 o    0.855
   334   8 o    1.826 --   336 h    0.879   335 h    0.824
   335   1 h    0.873 --   334 o    0.824
   336   1 h    0.895 --   334 o    0.879
   337   8 o    1.885 --   338 h    0.841   339 h    0.778
   338   1 h    0.888 --   337 o    0.841
   339   1 h    0.861 --   337 o    0.778
   340   8 o    1.843 --   341 h    0.855   342 h    0.830
   341   1 h    0.891 --   340 o    0.855
   342   1 h    0.890 --   340 o    0.830
   343   8 o    1.865 --   345 h    0.842   344 h    0.821
   344   1 h    0.881 --   343 o    0.821
   345   1 h    0.893 --   343 o    0.842
   346   8 o    1.811 --   347 h    0.851   348 h    0.798
   347   1 h    0.899 --   346 o    0.851
   348   1 h    0.872 --   346 o    0.798
   349   8 o    1.858 --   350 h    0.876   351 h    0.800
   350   1 h    0.897 --   349 o    0.876
   351   1 h    0.881 --   349 o    0.800
   352   8 o    1.838 --   354 h    0.850   353 h    0.781
   353   1 h    0.871 --   352 o    0.781
   354   1 h    0.897 --   352 o    0.850
   355   8 o    1.819 --   356 h    0.894   357 h    0.805
   356   1 h    0.902 --   355 o    0.894
   357   1 h    0.876 --   355 o    0.805
   358   8 o    1.861 --   359 h    0.827   360 h    0.806
   359   1 h    0.884 --   358 o    0.827
   360   1 h    0.879 --   358 o    0.806
   361   8 o    1.829 --   363 h    0.865   362 h    0.779
   362   1 h    0.881 --   361 o    0.779
   363   1 h    0.894 --   361 o    0.865
[...]
   370   8 o    1.812 --   372 h    0.859   371 h    0.827
   371   1 h    0.885 --   370 o    0.827
   372   1 h    0.896 --   370 o    0.859
   373   8 o    1.819 --   374 h    0.866   375 h    0.834
   374   1 h    0.894 --   373 o    0.866
   375   1 h    0.877 --   373 o    0.834
   376   8 o    1.853 --   378 h    0.820   377 h    0.813
   377   1 h    0.871 --   376 o    0.813
   378   1 h    0.888 --   376 o    0.820
   379   8 o    1.858 --   381 h    0.896   380 h    0.792
   380   1 h    0.877 --   379 o    0.792
   381   1 h    0.904 --   379 o    0.896
   382   8 o    1.834 --   383 h    0.851   384 h    0.829
   383   1 h    0.888 --   382 o    0.851
   384   1 h    0.879 --   382 o    0.829
   385   8 o    1.822 --   387 h    0.841   386 h    0.832
   386   1 h    0.885 --   385 o    0.832
   387   1 h    0.884 --   385 o    0.841
   388   8 o    1.863 --   390 h    0.827   389 h    0.823
   389   1 h    0.889 --   388 o    0.823
   390   1 h    0.884 --   388 o    0.827
   391   8 o    1.857 --   393 h    0.891   392 h    0.813
   392   1 h    0.870 --   391 o    0.813
   393   1 h    0.902 --   391 o    0.891
   394   8 o    1.872 --   396 h    0.828   395 h    0.820
   395   1 h    0.875 --   394 o    0.820
   396   1 h    0.886 --   394 o    0.828
   397   8 o    1.870 --   399 h    0.832   398 h    0.779
   398   1 h    0.869 --   397 o    0.779
   399   1 h    0.891 --   397 o    0.832
   400   8 o    1.845 --   401 h    0.868   402 h    0.780
   401   1 h    0.894 --   400 o    0.868
   402   1 h    0.867 --   400 o    0.780
   403   8 o    1.847 --   404 h    0.842   405 h    0.809
   404   1 h    0.884 --   403 o    0.842
   405   1 h    0.866 --   403 o    0.809
   406   8 o    1.864 --   408 h    0.857   407 h    0.777
   407   1 h    0.869 --   406 o    0.777
   408   1 h    0.892 --   406 o    0.857
   409   8 o    1.834 --   411 h    0.869   410 h    0.810
   410   1 h    0.879 --   409 o    0.810
   411   1 h    0.893 --   409 o    0.869
   412   8 o    1.862 --   413 h    0.829   414 h    0.815
   413   1 h    0.885 --   412 o    0.829
   414   1 h    0.875 --   412 o    0.815
   415   8 o    1.840 --   416 h    0.889   417 h    0.784
   416   1 h    0.903 --   415 o    0.889
   417   1 h    0.862 --   415 o    0.784
   418   8 o    1.861 --   419 h    0.858   420 h    0.819
   419   1 h    0.892 --   418 o    0.858
   420   1 h    0.888 --   418 o    0.819
   421   8 o    1.836 --   423 h    0.892   422 h    0.802
   422   1 h    0.876 --   421 o    0.802
   423   1 h    0.900 --   421 o    0.892
   424   8 o    1.852 --   426 h    0.822   425 h    0.820
   425   1 h    0.888 --   424 o    0.820
   426   1 h    0.891 --   424 o    0.822
   427   8 o    1.848 --   429 h    0.844   428 h    0.795
   428   1 h    0.867 --   427 o    0.795
   429   1 h    0.896 --   427 o    0.844
   430   8 o    1.870 --   431 h    0.827   432 h    0.807
   431   1 h    0.883 --   430 o    0.827
   432   1 h    0.878 --   430 o    0.807
   433   8 o    1.827 --   435 h    0.831   434 h    0.807
   434   1 h    0.873 --   433 o    0.807
   435   1 h    0.890 --   433 o    0.831
   436   8 o    1.879 --   438 h    0.846   437 h    0.820
   437   1 h    0.879 --   436 o    0.820
   438   1 h    0.890 --   436 o    0.846
   439   8 o    1.862 --   441 h    0.820   440 h    0.819
   440   1 h    0.878 --   439 o    0.819
   441   1 h    0.876 --   439 o    0.820
   442   8 o    1.833 --   444 h    0.851   443 h    0.820
   443   1 h    0.889 --   442 o    0.820
   444   1 h    0.892 --   442 o    0.851
   445   8 o    1.826 --   447 h    0.870   446 h    0.812
   446   1 h    0.885 --   445 o    0.812
   447   1 h    0.893 --   445 o    0.870
   448   8 o    1.828 --   450 h    0.834   449 h    0.783
   449   1 h    0.867 --   448 o    0.783
   450   1 h    0.894 --   448 o    0.834
   451   8 o    1.826 --   453 h    0.857   452 h    0.799
   452   1 h    0.874 --   451 o    0.799
   453   1 h    0.892 --   451 o    0.857
   454   8 o    1.856 --   456 h    0.876   455 h    0.788
   455   1 h    0.863 --   454 o    0.788
   456   1 h    0.898 --   454 o    0.876
   457   8 o    1.820 --   458 h    0.837   459 h    0.829
   458   1 h    0.882 --   457 o    0.837
   459   1 h    0.885 --   457 o    0.829
   460   8 o    1.870 --   462 h    0.877   461 h    0.836
   461   1 h    0.882 --   460 o    0.836
   462   1 h    0.895 --   460 o    0.877
   463   8 o    1.847 --   465 h    0.883   464 h    0.792
   464   1 h    0.864 --   463 o    0.792
   465   1 h    0.902 --   463 o    0.883
   466   8 o    1.799 --   467 h    0.884   468 h    0.796
   467   1 h    0.903 --   466 o    0.884
   468   1 h    0.872 --   466 o    0.796
   469   8 o    1.833 --   471 h    0.901   470 h    0.778
   470   1 h    0.877 --   469 o    0.778
   471   1 h    0.905 --   469 o    0.901
   472   8 o    1.821 --   473 h    0.890   474 h    0.789
   473   1 h    0.900 --   472 o    0.890
   474   1 h    0.871 --   472 o    0.789
   475   8 o    1.825 --   476 h    0.854   477 h    0.826
   476   1 h    0.889 --   475 o    0.854
   477   1 h    0.885 --   475 o    0.826
   478   8 o    1.798 --   479 h    0.875   480 h    0.830
   479   1 h    0.895 --   478 o    0.875
   480   1 h    0.885 --   478 o    0.830
   481   8 o    1.837 --   482 h    0.855   483 h    0.823
   482   1 h    0.902 --   481 o    0.855
   483   1 h    0.883 --   481 o    0.823
   484   8 o    1.818 --   485 h    0.839   486 h    0.810
   485   1 h    0.890 --   484 o    0.839
   486   1 h    0.876 --   484 o    0.810
   487   8 o    1.829 --   488 h    0.902   489 h    0.813
   488   1 h    0.908 --   487 o    0.902
   489   1 h    0.873 --   487 o    0.813
   490   8 o    1.818 --   491 h    0.858   492 h    0.854
   491   1 h    0.890 --   490 o    0.858
   492   1 h    0.890 --   490 o    0.854
   493   8 o    1.868 --   494 h    0.789   495 h    0.782
   494   1 h    0.877 --   493 o    0.789
   495   1 h    0.870 --   493 o    0.782
   496   8 o    1.861 --   498 h    0.832   497 h    0.829
   497   1 h    0.891 --   496 o    0.829
   498   1 h    0.883 --   496 o    0.832
   499   8 o    1.875 --   500 h    0.829   501 h    0.824
   500   1 h    0.889 --   499 o    0.829
   501   1 h    0.891 --   499 o    0.824
   502   8 o    1.834 --   503 h    0.831   504 h    0.827
   503   1 h    0.892 --   502 o    0.831
   504   1 h    0.890 --   502 o    0.827
   505   8 o    1.840 --   507 h    0.846   506 h    0.798
   506   1 h    0.869 --   505 o    0.798
   507   1 h    0.894 --   505 o    0.846
   508   8 o    1.818 --   509 h    0.835   510 h    0.787
   509   1 h    0.892 --   508 o    0.835
   510   1 h    0.867 --   508 o    0.787
   511   8 o    1.862 --   512 h    0.803   513 h    0.802
   512   1 h    0.877 --   511 o    0.803
   513   1 h    0.880 --   511 o    0.802
   514   8 o    1.834 --   516 h    0.847   515 h    0.827
   515   1 h    0.882 --   514 o    0.827
   516   1 h    0.890 --   514 o    0.847
   517   8 o    1.837 --   518 h    0.831   519 h    0.829
   518   1 h    0.873 --   517 o    0.831
   519   1 h    0.891 --   517 o    0.829
   520   8 o    1.852 --   521 h    0.817   522 h    0.805
   521   1 h    0.893 --   520 o    0.817
   522   1 h    0.867 --   520 o    0.805
   523   8 o    1.858 --   525 h    0.820   524 h    0.807
   524   1 h    0.889 --   523 o    0.807
   525   1 h    0.889 --   523 o    0.820
   526   8 o    1.829 --   527 h    0.855   528 h    0.853
   527   1 h    0.882 --   526 o    0.855
   528   1 h    0.887 --   526 o    0.853
   529   8 o    1.833 --   530 h    0.844   531 h    0.828
   530   1 h    0.890 --   529 o    0.844
   531   1 h    0.878 --   529 o    0.828
   532   8 o    1.840 --   534 h    0.896   533 h    0.806
   533   1 h    0.881 --   532 o    0.806
   534   1 h    0.902 --   532 o    0.896
   535   8 o    1.831 --   536 h    0.868   537 h    0.847
   536   1 h    0.888 --   535 o    0.868
   537   1 h    0.882 --   535 o    0.847
   538   8 o    1.815 --   539 h    0.848   540 h    0.809
   539   1 h    0.894 --   538 o    0.848
   540   1 h    0.879 --   538 o    0.809
   541   8 o    1.812 --   542 h    0.901   543 h    0.815
   542   1 h    0.905 --   541 o    0.901
   543   1 h    0.875 --   541 o    0.815
   544   8 o    1.813 --   546 h    0.862   545 h    0.798
   545   1 h    0.884 --   544 o    0.798
   546   1 h    0.893 --   544 o    0.862
   547   8 o    1.853 --   549 h    0.866   548 h    0.845
   548   1 h    0.883 --   547 o    0.845
   549   1 h    0.891 --   547 o    0.866
   550   8 o    1.833 --   551 h    0.873   552 h    0.836
   551   1 h    0.894 --   550 o    0.873
   552   1 h    0.890 --   550 o    0.836
   553   8 o    1.814 --   554 h    0.864   555 h    0.834
   554   1 h    0.893 --   553 o    0.864
   555   1 h    0.883 --   553 o    0.834
   556   8 o    1.898 --   558 h    0.839   557 h    0.824
   557   1 h    0.883 --   556 o    0.824
   558   1 h    0.891 --   556 o    0.839
   559   8 o    1.823 --   560 h    0.858   561 h    0.848
   560   1 h    0.886 --   559 o    0.858
   561   1 h    0.885 --   559 o    0.848
   562   8 o    1.817 --   563 h    0.828   564 h    0.807
   563   1 h    0.893 --   562 o    0.828
   564   1 h    0.888 --   562 o    0.807
   565   8 o    1.865 --   566 h    0.832   567 h    0.792
   566   1 h    0.891 --   565 o    0.832
   567   1 h    0.871 --   565 o    0.792
   568   8 o    1.829 --   569 h    0.857   570 h    0.765
   569   1 h    0.894 --   568 o    0.857
   570   1 h    0.869 --   568 o    0.765
   571   8 o    1.824 --   572 h    0.845   573 h    0.821
   572   1 h    0.894 --   571 o    0.845
   573   1 h    0.877 --   571 o    0.821
   574   8 o    1.863 --   575 h    0.829   576 h    0.826
   575   1 h    0.882 --   574 o    0.829
   576   1 h    0.871 --   574 o    0.826
   577   8 o    1.864 --   579 h    0.852   578 h    0.777
   578   1 h    0.863 --   577 o    0.777
   579   1 h    0.889 --   577 o    0.852
   580   8 o    1.802 --   581 h    0.860   582 h    0.853
   581   1 h    0.888 --   580 o    0.860
   582   1 h    0.889 --   580 o    0.853
   583   8 o    1.835 --   585 h    0.808   584 h    0.797
   584   1 h    0.881 --   583 o    0.797
   585   1 h    0.880 --   583 o    0.808
   586   8 o    1.826 --   588 h    0.830   587 h    0.829
   587   1 h    0.887 --   586 o    0.829
   588   1 h    0.887 --   586 o    0.830
   589   8 o    1.822 --   590 h    0.886   591 h    0.782
   590   1 h    0.900 --   589 o    0.886
   591   1 h    0.871 --   589 o    0.782
   592   8 o    1.848 --   594 h    0.845   593 h    0.832
   593   1 h    0.882 --   592 o    0.832
   594   1 h    0.881 --   592 o    0.845
   595   8 o    1.814 --   596 h    0.880   597 h    0.863
   596   1 h    0.896 --   595 o    0.880
   597   1 h    0.888 --   595 o    0.863
   598   8 o    1.832 --   600 h    0.879   599 h    0.801
   599   1 h    0.862 --   598 o    0.801
   600   1 h    0.898 --   598 o    0.879
   601   8 o    1.867 --   602 h    0.826   603 h    0.795
   602   1 h    0.888 --   601 o    0.826
   603   1 h    0.870 --   601 o    0.795
   604   8 o    1.886 --   605 h    0.835   606 h    0.809
   605   1 h    0.888 --   604 o    0.835
   606   1 h    0.871 --   604 o    0.809
   607   8 o    1.847 --   608 h    0.835   609 h    0.833
   608   1 h    0.892 --   607 o    0.835
   609   1 h    0.885 --   607 o    0.833
   610   8 o    1.846 --   611 h    0.855   612 h    0.823
   611   1 h    0.894 --   610 o    0.855
   612   1 h    0.885 --   610 o    0.823
   613   8 o    1.858 --   615 h    0.899   614 h    0.794
   614   1 h    0.872 --   613 o    0.794
   615   1 h    0.903 --   613 o    0.899
   616   8 o    1.821 --   618 h    0.875   617 h    0.824
   617   1 h    0.878 --   616 o    0.824
   618   1 h    0.896 --   616 o    0.875
   619   8 o    1.856 --   620 h    0.829   621 h    0.802
   620   1 h    0.886 --   619 o    0.829
   621   1 h    0.870 --   619 o    0.802
   622   8 o    1.839 --   624 h    0.865   623 h    0.823
   623   1 h    0.884 --   622 o    0.823
   624   1 h    0.888 --   622 o    0.865
   625   8 o    1.809 --   626 h    0.901   627 h    0.773
   626   1 h    0.909 --   625 o    0.901
   627   1 h    0.870 --   625 o    0.773
   628   8 o    1.851 --   629 h    0.878   630 h    0.834
   629   1 h    0.899 --   628 o    0.878
   630   1 h    0.887 --   628 o    0.834
   631   8 o    1.901 --   632 h    0.825   633 h    0.817
   632   1 h    0.883 --   631 o    0.825
   633   1 h    0.877 --   631 o    0.817
   634   8 o    1.826 --   636 h    0.839   635 h    0.786
   635   1 h    0.875 --   634 o    0.786
   636   1 h    0.891 --   634 o    0.839
   637   8 o    1.844 --   639 h    0.848   638 h    0.839
   638   1 h    0.891 --   637 o    0.839
   639   1 h    0.885 --   637 o    0.848
   640   8 o    1.836 --   641 h    0.883   642 h    0.756
   641   1 h    0.901 --   640 o    0.883
   642   1 h    0.863 --   640 o    0.756   226 o    0.102
   643   8 o    1.875 --   644 h    0.809   645 h    0.799
   644   1 h    0.867 --   643 o    0.809
   645   1 h    0.877 --   643 o    0.799
   646   8 o    1.824 --   647 h    0.893   648 h    0.770
   647   1 h    0.907 --   646 o    0.893
   648   1 h    0.864 --   646 o    0.770
   649   8 o    1.856 --   651 h    0.830   650 h    0.817
   650   1 h    0.881 --   649 o    0.817
   651   1 h    0.887 --   649 o    0.830
   652   8 o    1.884 --   653 h    0.836   654 h    0.788
   653   1 h    0.882 --   652 o    0.836
   654   1 h    0.871 --   652 o    0.788
   655   8 o    1.891 --   656 h    0.848   657 h    0.811
   656   1 h    0.886 --   655 o    0.848
   657   1 h    0.888 --   655 o    0.811
   658   8 o    1.824 --   659 h    0.857   660 h    0.826
   659   1 h    0.886 --   658 o    0.857
   660   1 h    0.883 --   658 o    0.826
   661   8 o    1.821 --   662 h    0.859   663 h    0.831
   662   1 h    0.888 --   661 o    0.859
   663   1 h    0.882 --   661 o    0.831
   664   8 o    1.832 --   666 h    0.835   665 h    0.823
   665   1 h    0.885 --   664 o    0.823
   666   1 h    0.880 --   664 o    0.835
   667   8 o    1.805 --   669 h    0.872   668 h    0.857
   668   1 h    0.892 --   667 o    0.857
   669   1 h    0.893 --   667 o    0.872
   670   8 o    1.844 --   672 h    0.854   671 h    0.816
   671   1 h    0.887 --   670 o    0.816
   672   1 h    0.891 --   670 o    0.854
   673   8 o    1.818 --   675 h    0.835   674 h    0.773
   674   1 h    0.876 --   673 o    0.773
   675   1 h    0.891 --   673 o    0.835
   676   8 o    1.854 --   678 h    0.832   677 h    0.775
   677   1 h    0.874 --   676 o    0.775
   678   1 h    0.880 --   676 o    0.832
   679   8 o    1.855 --   681 h    0.785   680 h    0.784
   680   1 h    0.878 --   679 o    0.784
   681   1 h    0.866 --   679 o    0.785
   682   8 o    1.850 --   684 h    0.885   683 h    0.856
   683   1 h    0.883 --   682 o    0.856
   684   1 h    0.894 --   682 o    0.885
   685   8 o    1.878 --   687 h    0.842   686 h    0.804
   686   1 h    0.874 --   685 o    0.804
   687   1 h    0.892 --   685 o    0.842
   688   8 o    1.841 --   690 h    0.827   689 h    0.826
   689   1 h    0.892 --   688 o    0.826
   690   1 h    0.880 --   688 o    0.827
   691   8 o    1.840 --   692 h    0.869   693 h    0.797
   692   1 h    0.896 --   691 o    0.869
   693   1 h    0.867 --   691 o    0.797
   694   8 o    1.847 --   696 h    0.813   695 h    0.797
   695   1 h    0.867 --   694 o    0.797
   696   1 h    0.875 --   694 o    0.813
   697   8 o    1.809 --   699 h    0.863   698 h    0.833
   698   1 h    0.885 --   697 o    0.833
   699   1 h    0.893 --   697 o    0.863
   700   8 o    1.803 --   702 h    0.859   701 h    0.850
   701   1 h    0.890 --   700 o    0.850
   702   1 h    0.891 --   700 o    0.859
   703   8 o    1.823 --   704 h    0.857   705 h    0.852
   704   1 h    0.879 --   703 o    0.857
   705   1 h    0.888 --   703 o    0.852
   706   8 o    1.878 --   707 h    0.829   708 h    0.789
   707   1 h    0.888 --   706 o    0.829
   708   1 h    0.866 --   706 o    0.789
   709   8 o    1.830 --   711 h    0.901   710 h    0.822
   710   1 h    0.883 --   709 o    0.822
   711   1 h    0.908 --   709 o    0.901
   712   8 o    1.827 --   713 h    0.852   714 h    0.795
   713   1 h    0.894 --   712 o    0.852
   714   1 h    0.871 --   712 o    0.795
   715   8 o    1.904 --   717 h    0.817   716 h    0.813    62 h    0.100
   716   1 h    0.876 --   715 o    0.813
   717   1 h    0.878 --   715 o    0.817
   718   8 o    1.885 --   719 h    0.850   720 h    0.814
   719   1 h    0.894 --   718 o    0.850
   720   1 h    0.887 --   718 o    0.814
   721   8 o    1.835 --   722 h    0.844   723 h    0.844
   722   1 h    0.883 --   721 o    0.844
   723   1 h    0.890 --   721 o    0.844
   724   8 o    1.834 --   725 h    0.823   726 h    0.818
   725   1 h    0.891 --   724 o    0.823
   726   1 h    0.885 --   724 o    0.818
   727   8 o    1.834 --   729 h    0.873   728 h    0.789
   728   1 h    0.865 --   727 o    0.789
   729   1 h    0.898 --   727 o    0.873
   730   8 o    1.826 --   732 h    0.852   731 h    0.842
   731   1 h    0.880 --   730 o    0.842
   732   1 h    0.886 --   730 o    0.852
   733   8 o    1.820 --   735 h    0.845   734 h    0.809
   734   1 h    0.872 --   733 o    0.809
   735   1 h    0.889 --   733 o    0.845
   736   8 o    1.845 --   738 h    0.812   737 h    0.810
   737   1 h    0.876 --   736 o    0.810
   738   1 h    0.891 --   736 o    0.812
   739   8 o    1.827 --   740 h    0.884   741 h    0.834
   740   1 h    0.895 --   739 o    0.884
   741   1 h    0.878 --   739 o    0.834
   742   8 o    1.789 --   743 h    0.858   744 h    0.828
   743   1 h    0.891 --   742 o    0.858
   744   1 h    0.890 --   742 o    0.828
   745   8 o    1.832 --   747 h    0.884   746 h    0.825
   746   1 h    0.879 --   745 o    0.825
   747   1 h    0.894 --   745 o    0.884
   748   8 o    1.841 --   750 h    0.859   749 h    0.846
   749   1 h    0.891 --   748 o    0.846
   750   1 h    0.884 --   748 o    0.859
   751   8 o    1.807 --   753 h    0.863   752 h    0.802
   752   1 h    0.883 --   751 o    0.802
   753   1 h    0.887 --   751 o    0.863
   754   8 o    1.845 --   756 h    0.867   755 h    0.828
   755   1 h    0.882 --   754 o    0.828
   756   1 h    0.892 --   754 o    0.867
 ---------------------------------------------------------------------------

Topologies differ in total number of bonds
Writing topology from bond orders to xtbtopo.mol

molecular dipole:
                 x           y           z       tot (Debye)
 q only:       -0.025      -0.039       1.320
   full:        0.220      -0.006       1.528       3.923
molecular quadrupole (traceless):
                xx          xy          yy          xz          yz          zz
 q only:       12.457      61.879      49.404      40.479     -14.769     -61.861
  q+dip:       18.885      84.905      59.874      59.148     -20.231     -78.758
   full:       19.090      86.651      60.054      57.605     -21.483     -79.144


           -------------------------------------------------
          | TOTAL ENERGY            -1283.591003793316 Eh   |
          | GRADIENT NORM               0.104664936351 Eh/α |
          | HOMO-LUMO GAP               7.719284817985 eV   |
           -------------------------------------------------

------------------------------------------------------------------------
 * finished run on 2022/11/24 at 09:28:09.013     
------------------------------------------------------------------------
 total:
 * wall-time:     0 d,  0 h,  0 min, 22.485 sec
 *  cpu-time:     0 d,  0 h,  0 min, 36.494 sec
 * ratio c/w:     1.623 speedup
 SCF:
 * wall-time:     0 d,  0 h,  0 min, 21.501 sec
 *  cpu-time:     0 d,  0 h,  0 min, 34.806 sec
 * ratio c/w:     1.619 speedup

