756
 energy: -1283.285497740991 gnorm: 0.109256519677 xtb: 6.5.1 (579679a)
o           -4.03991343128856       -6.03059695039881       -4.31907488628880
h           -4.24447586950994       -6.83732553165299       -3.78459490967638
h           -3.17942803022199       -6.22122804091271       -4.73143084283171
o            3.02352091398673       -2.28635234977915        0.01577363533670
h            2.18109981864375       -2.71764670456493       -0.22952828270505
h            3.53306632611274       -2.20963759199640       -0.80999593855085
o            3.39638884789304        0.76684553345425       -2.59507737643622
h            2.80182436745508        0.59402182628843       -1.83367089697719
h            3.57251734425219        1.72611449095628       -2.59299263062958
o            2.01218372381540        0.14521080122767       -0.40911612554347
h            2.50611533729006        0.76052503484052        0.16984122114281
h            2.29442337223013       -0.74081781676918       -0.09727915467482
o            1.48157380834397       -2.11881244102302       -3.39007031047937
h            1.09943575579784       -2.41766781419591       -2.53642480347819
h            1.04238951279019       -1.27924001301593       -3.60060567344628
o           -3.26290474877753       -4.96172446376602        0.64534301802699
h           -4.18774050757355       -4.73578400052786        0.85936702607061
h           -2.75950911318083       -4.84751308256212        1.46230101083194
o            3.56793378137758       -0.99159777930221        2.56904185335169
h            2.82676337204098       -0.47246702676576        2.93267539481475
h            4.31021406431103       -0.96034650810181        3.19762372773393
o            0.74208062725209       -3.08407151476915       -1.04571384708189
h           -0.11898925476048       -2.97126623753470       -0.59020267344297
h            0.78716645666883       -3.97902674103756       -1.43208991903499
o            2.80488668477059       -5.36500569295053       -0.14214598181202
h            3.56385175295637       -4.86364017746595       -0.48510856099326
h            3.07713966491200       -6.29684432349742       -0.13872655772945
o            1.14927018237429        2.78615270000911        1.49663939724602
h            1.76021742089220        3.07398533100492        2.20495518083072
h            0.27390130418817        2.64414460848426        1.89929812248846
o            0.43015462479161        4.58957706699272        3.50250010154853
h           -0.50178153684596        4.34783403492094        3.37897426160869
h            0.37806287452448        5.54875347080312        3.69974569714872
o           -1.19790524186179        2.02235691517182        2.68289879478875
h           -1.03153671409688        1.07127238611024        2.79190707617523
h           -1.59145511904962        2.29393336397553        3.52697559807758
o            1.06759877895122       -3.66372577589020       -5.50919212567327
h            1.03786784180958       -3.22931725089355       -4.63088950295943
h            0.13918086488741       -3.77782648160453       -5.78606127098611
o           -2.91715466925517        3.40522394687351        1.11012234770600
h           -2.34579554556424        2.82460437934153        1.63962251498075
h           -2.45908264955345        4.26248854773909        1.07663323321291
o            5.98033768306182        1.56181495269946       -0.29107638299464
h            6.11252179309796        2.42707607362322       -0.73198669568842
h            6.75471459161725        1.38670658544520        0.27788154781872
o            0.77791497552708        0.23271985050867       -4.72749917899630
h            1.64308584835945       -0.04601168533110       -5.10977685792986
h            0.98641323938325        0.99849359706290       -4.14386414794464
o           -1.73328999659032       -0.63553919783653       -4.91348392074114
h           -0.85677159111149       -0.23233665664446       -4.79351375127198
h           -1.72194358844331       -1.40033518988076       -4.32149276166474
o           -8.06849799312822       -0.85085456106024       -2.36469135681105
h           -8.48793206831475       -1.52033215344793       -1.78805799510904
h           -7.88389486255550       -1.33514822562860       -3.19112296603680
o           -5.85846887086860       -1.18619377954847       -0.04994464476642
h           -5.88188626589608       -1.22994817968918        0.92574755721196
h           -6.41214602909974       -1.90677943189452       -0.38574012821218
o           -4.76584791453837        1.40524118712566        1.41188836040931
h           -4.39699782655961        1.63101563697918        0.54453212148013
h           -4.47592790813636        2.09617036452339        2.01571799898786
o           -1.03052801029046        3.64839255521261       -3.61695081323006
h           -1.06992551183527        3.64882103797287       -2.61612581178343
h           -0.86694472556760        4.56881424271897       -3.84239595411394
o            3.33584698210972       -0.22655663838060       -5.13760149394824
h            3.48516904655632       -1.18898484568937       -5.20251903722539
h            3.41591338108137        0.04681448935664       -4.20601194367857
o           -1.54785511069468       -2.69290827905981        0.23220051055712
h           -2.27941276732266       -3.31426602781234        0.14933635944504
h           -1.90303593314207       -1.77651019028077        0.03558845909828
o           -3.82828272182302       -2.02480533954439       -1.61467236539520
h           -4.03100633341512       -2.96074028661099       -1.75557772832259
h           -4.50336451229106       -1.70265528543257       -0.99282709518864
o           -1.14555210681908       -0.53315908503480        3.51712585009161
h           -0.77601033980389       -1.43709021647116        3.57046819874240
h           -2.09114253628986       -0.61388213904595        3.29849073707597
o           -6.68218362084680        1.19450341607749       -0.83201026780841
h           -6.43692004920141        0.26203608528906       -0.66775785864761
h           -5.82713820417535        1.65260715087604       -0.92250065281293
o            1.22570197848285       -1.38436032986285       -7.12390321896510
h            0.29926735643483       -1.30162493343899       -7.40632231166309
h            1.25678557639934       -2.19112083351425       -6.58816267926952
o            5.00919964186096       -4.20870254822902       -1.16417487939152
h            5.37789048295516       -3.32681367374795       -0.90648542439877
h            4.67622660165367       -4.11752884718776       -2.06205814868844
o           -8.36737055189990       -3.14486951632828        1.24297465718043
h           -9.05691009992659       -3.77826780936316        1.51220862700195
h           -8.38055407057672       -3.15431111475228        0.27264831960424
o            5.16543938426559        4.89321417742175        3.32017563076406
h            4.87989339525758        5.82409073955814        3.33014763373872
h            5.68760914542036        4.75277343455151        2.50912346091070
o           -8.44358624732875       -5.60739781286208       -0.75591020846892
h           -8.29529334698728       -5.67360194241981        0.20673019282012
h           -9.39377093237333       -5.41242010665135       -0.85231072262522
o           -5.55660964457432       -1.73299788351753        5.24241170702437
h           -4.79699067654936       -1.15639506891292        5.39095923324243
h           -5.74289663509085       -1.66808482944011        4.28333183160485
o            4.02897071540419        3.41466178369792       -2.86183423378731
h            4.81060169458625        3.37029132831416       -3.42448761598604
h            3.42694088325827        4.03685044897298       -3.30170133217807
o            5.03440162052311       -2.74784586156313        6.52947063371488
h            4.98426667647452       -3.66007281792922        6.17358128063306
h            4.21299117423118       -2.61444902443910        7.03970743927668
o            5.89540840814150       -1.86889261070958       -0.41822520129828
h            5.85890048832859       -1.29164782416460       -1.20862395916749
h            6.81738179950314       -1.81680467944242       -0.09999820712271
o           -5.75725517185895       -4.15901915703822        1.20639971377381
h           -6.03870924124629       -3.88658199021416        0.30883193284753
h           -6.45207627029549       -4.74067222787449        1.53283888898758
o            0.60267438268588        5.23875353616409        0.42746582844075
h            0.90834261262688        4.41897720302050        0.85718420117272
h            1.37765865798511        5.69572422486717        0.05921942720587
o            0.57368140877544       -1.59227416797361        1.65703895996461
h           -0.24890690700721       -1.85478846681818        1.22932370394710
h            1.10337021003231       -2.39962515646959        1.71265792090484
o           -4.16494261208875        2.03106482506395       -1.17885932802905
h           -3.91405403206542        2.94221855402975       -1.39316986864580
h           -3.95737576164644        1.45602960911368       -1.93874535462903
o            6.04035411389345       -0.06919454588017       -2.32930762149362
h            6.99484001403905       -0.22966605379241       -2.46026672904351
h            5.97165758106699        0.59042941012159       -1.60453707043555
o            5.73114295458148       -6.68053181020009       -3.50672535675613
h            6.52537453569510       -6.59843662541655       -2.96799037263854
h            5.94737842661956       -6.26675012978910       -4.36247286676254
o            5.50833701385260        1.47107984921750       -4.45668396202205
h            4.67907089418949        1.81471739583576       -4.84180384249160
h            5.29920532285511        1.00646346262320       -3.62883394872755
o           -3.85587016266367        0.16526147446775       -3.15279997769236
h           -3.77969239003118       -0.68513694343515       -2.67230380807129
h           -4.74104933933932        0.17372392878250       -3.55345523182083
o           -4.00987585837550        0.13821666897655       -6.20217616798048
h           -3.45622989004126        0.70363995021822       -6.77329871649304
h           -3.43667133775558       -0.11320866319662       -5.46108846613623
o            8.04932782540708       -3.16816833656650       -6.27924831482993
h            8.42501869515129       -3.90710146521046       -5.76873480289350
h            8.48032480392035       -2.39162226851246       -5.89308861125671
o            8.15967757146930        1.54491741406728       -3.94707968970168
h            7.20758889390107        1.68428626333686       -4.06835178715021
h            8.55882162203773        1.83812009976455       -4.78975545832071
o            3.92872676220433       -1.89689308341175       -2.50624050217820
h            4.09214454924266       -0.94084682231088       -2.47497092047949
h            3.03185935871304       -2.01311188072933       -2.89921241761974
o           -9.44378629013317       -2.75607622469954       -1.15753924590705
h          -10.32692269379865       -2.59131926448525       -0.78625925005320
h           -9.61212681351504       -3.13011864899686       -2.05242540398176
o           -1.81490511181818        5.81358670003231        1.35516358377189
h           -0.87935278501628        5.80063997123376        1.08447127528579
h           -2.16491716604527        6.69919236536868        1.16965036148344
o           -3.09231022680428        2.36531545475288       -4.60152836018370
h           -3.09533098752438        1.47154588397435       -4.22774593266190
h           -2.33655852832106        2.83357913420894       -4.18638207799978
o            3.69117718594329       -4.92816926477880       -3.48129779811525
h            4.38813334958184       -5.59270448162522       -3.31663671219228
h            3.36617016209672       -5.14770098761156       -4.37243326843862
o            0.15537737258460        1.86444507372235       -6.73187977023610
h            0.27481616940355        1.24130107523552       -5.97527377593140
h            0.84682365853434        1.60553157694340       -7.35974315628486
o            6.04970689992616        7.04945517217247        1.15758797090259
h            5.43930483605742        7.29220624685063        1.86454843501288
h            6.85003204717403        6.70006306518786        1.60267794870821
o            2.98486035347367        3.32276365812384        3.41635048644084
h            3.77694209108665        3.87363980131527        3.25066865011237
h            3.29892930773508        2.50051904810920        3.83319947896679
o            2.75844298637983        4.60532135543186        5.82034946280492
h            2.69763514772116        4.21756027570705        4.92349755301222
h            3.01709707608248        3.87434382764992        6.39962781096125
o            9.46220432192441       -1.19932494443036       -4.80824618690500
h           10.01626395712065       -1.89796397901224       -4.41132970022964
h           10.07872387842576       -0.50547568140323       -5.14703724587319
o           -4.20603727207637        2.69967744933181        3.94433624825614
h           -4.85316889863713        1.96079555008334        3.94118009814883
h           -4.17612008425194        2.96906832883836        4.87573656884361
o           -3.36543214916520        0.00676333617263        5.48565879525645
h           -2.78629250889600       -0.64350958289697        5.94841861862326
h           -2.80395530235751        0.79455945298295        5.33892128237071
o           -6.76508811095510       -3.46860237869312       -1.17127720973248
h           -6.47034735100034       -3.19538176364199       -2.07474204061157
h           -7.40543360114567       -4.18656573408279       -1.27552557406071
o          -12.12802935779718       -0.10309413473507       -0.57293351014474
h          -11.24266483883862        0.28377387867234       -0.70789145962391
h          -12.38883493380042        0.14247415958176        0.32834689893681
o            4.59346725373154       -3.67473448046911        1.65384267116153
h            4.02167574868049       -3.05483166858186        1.14391323537117
h            5.19370136684347       -4.08933357160374        1.02547373295971
o           -6.38356448655169        0.61259847686475       -3.97448769795864
h           -6.81184789571690        0.26830958540717       -3.17883057647761
h           -7.09027432448508        0.64206260143157       -4.64304341883209
o           -5.41412063579371        2.81692507055391       -6.39740874476729
h           -4.63790179000905        2.51931100766585       -5.90214686391617
h           -5.68139853259658        2.08074329165490       -6.95324088209881
o            0.64728324204688       -3.36834213129508        6.76758832222299
h            1.32387748917452       -4.04052911493173        6.52865328709048
h           -0.07274827985066       -3.87283424068976        7.14895474094081
o           -5.97501629535543        0.74849697635688        4.02084891175760
h           -6.30829100093505        0.63228765983800        3.11656419575452
h           -6.74916512893248        0.98794122274146        4.55042202092547
o           -9.53115254472742        0.77822733319855       -0.48757024846448
h           -8.85723671855140        0.45265168270445       -1.09538343917363
h           -9.24051889579202        1.68364602459631       -0.23335398645006
o            6.41983870758611        4.03716639094374        1.09072119570607
h            6.44162586376477        3.19066406837977        1.55952136081197
h            7.31164150124728        4.22321813838233        0.74269910819479
o           -1.45429073737497       -4.67842068544972        2.66380641865978
h           -0.90622473622307       -4.97863218039688        1.91905340435583
h           -0.88177671529132       -4.10950635463210        3.22736481477440
o          -10.20151219793349        0.43102546171054       -3.48587763539074
h           -9.41330838556085        0.07229977639243       -3.02628464153008
h           -9.86989380200012        0.75645291491862       -4.32919075845035
o           -1.45671009685063       -1.23224175467633       -7.50352058944522
h           -1.62032708377094       -0.99758796004667       -6.56080178930807
h           -1.85627328708046       -0.53650005952510       -8.02813271217339
o           -1.49091515127722       -3.77566124590519       -6.33935761535295
h           -2.16791784586714       -3.51849136216470       -5.68854740233331
h           -1.56853303317609       -3.12843416145312       -7.05341130370529
o           -1.36362769638673       -2.64934159060196       -3.09836448554259
h           -1.29787987968660       -3.49941858493396       -2.62155208387990
h           -1.10256472710747       -1.95060469742851       -2.47392351117652
o            1.84707844483342        3.17683928486240       -1.16028303785259
h            2.70158407685474        3.52247081749531       -0.85449229422297
h            1.42389944549476        2.77903312076971       -0.38888940072023
o            2.43213184335383       -0.70940992368313        5.42302071806800
h            1.48290384962046       -0.47102454349981        5.54942983684016
h            2.45087614861506       -1.54663205590812        4.91808448361463
o           -6.56708774082467        4.24262268358190       -1.33641134501183
h           -6.08344586659563        3.75244007815962       -2.02688344295146
h           -5.95362498153999        4.36942019091812       -0.58840839660897
o           -1.65562703129556       -4.96407149534812       -1.81082292419718
h           -2.61119524294088       -4.84209007976532       -1.62948093292169
h           -1.19510917672137       -5.04654332239676       -0.94634864370052
o           -2.24457374595483        4.52141274941634        3.66889855841018
h           -2.30724684824037        5.16731849399145        2.94142306270357
h           -2.99588745475015        3.91110612313914        3.58755941825681
o           -1.77458769215913        2.15328469632461        5.37495752122711
h           -0.79278438964795        2.12094058042513        5.32891718469873
h           -2.01942986264345        2.81953396521212        6.01927090064952
o           -3.59401238795814       -3.10588783894485        3.25488583632108
h           -3.76983598284586       -2.18107020414656        2.98427186972806
h           -2.73784240869093       -3.37080629896643        2.89460119504760
o          -11.33736303815253        2.56700220114083       -2.12827114824525
h          -10.75592565549704        3.31645186550924       -2.31780252136100
h          -10.93794695260966        1.79108510502855       -2.56310420410251
o           -5.63046820992174        5.31973538615081       -4.86825284733775
h           -5.72972614491307        5.06783106592155       -5.78795728831016
h           -5.64504839606884        4.47033367565565       -4.36300592401294
o          -11.15650437853240       -5.15488583834474       -0.99929005488893
h          -11.54398002818352       -4.26501137550492       -0.89201382384158
h          -11.40962992344810       -5.45333996875493       -1.87355196487752
o           -8.30801096450703       -3.95479506668570        4.17840550154005
h           -8.25509703171633       -3.00785286234039        3.98978303043959
h           -8.12463683082001       -4.40564712725724        3.34722306425460
o            3.88988383970796        4.66611131919186       -6.91843556582780
h            3.62292209407599        3.91039382870532       -6.34568867476580
h            4.10122767260026        5.39209469563724       -6.32863125224831
o            3.77766899931907        3.99939219094831        0.55835988499706
h            3.62210445345185        3.12922661017968        0.96182178396516
h            4.74068306887347        4.11313855439511        0.57629190473341
o            1.34514224720186        2.52119161979144       -3.68157817843386
h            1.64272583209247        2.68772046444093       -2.76605919517300
h            0.49539842423834        3.00008020076121       -3.77511425385617
o            0.95140673263122        4.39319798911204       -6.32259644750786
h            0.72859766190275        3.43947727319560       -6.39706513599904
h            1.59855569089079        4.57602116435040       -7.01038952079676
o           10.87007065140661       -3.00300726398955       -3.36433250566717
h           11.78882651056727       -2.72537307004815       -3.36962399097593
h           10.58877169910485       -2.93682232223026       -2.42194714989892
o           11.06667091766669        0.77615039429092       -5.45677300213658
h           10.52139402135614        1.44407416292301       -5.89011198183263
h           11.23871418690513        1.09605395651130       -4.55235111844627
o           -4.36446992537745        3.75980657037594        6.48405985042784
h           -3.56221057610878        4.29999335155940        6.61014524213023
h           -4.99833170686951        4.34072181528081        6.03198766146999
o            5.98552505948070       -0.31830308886893        1.76594130536100
h            5.59552870586304       -0.70623232407768        0.96993805591175
h            6.37584486596808       -1.07810598737645        2.22565568551039
o            6.79249301971266       -2.68774018393917        2.75793468242696
h            7.02247508397517       -3.02062335575559        3.63925807276031
h            5.89525228935574       -3.01611253377406        2.54941193077312
o            3.74115803730659        1.35104350855434        1.15287783573960
h            4.55003846006098        1.39488695498637        0.60592907948393
h            3.83074055219509        0.52226943994555        1.66192050271189
o           -6.05540645079741       -2.70202692821404       -3.58083931678044
h           -5.10780262971319       -2.60686278604285       -3.74758404091039
h           -6.34084793751461       -3.42638312371033       -4.17012244190825
o           -9.78947178046167       -0.95451004184339        1.48583287544853
h           -9.70213591056457       -0.26682951164433        0.78618022796049
h           -9.19512356450335       -1.69947005952836        1.24499148899344
o           -3.70932970935929       -0.50529922201969        2.83697757429363
h           -4.21327567380442        0.08519515119596        2.22943403175960
h           -3.95845794834607       -0.20736905686093        3.72619700829416
o            2.73266952457103        6.54901538060164       -0.76559772067002
h            2.81446799548176        7.25854714297346       -0.10554020260849
h            3.63131555779719        6.20876530506906       -0.92080873737008
o           -2.59905537226750       -0.07556999068883        8.85221419771764
h           -3.38144806467893        0.41949773118008        8.55516484287701
h           -1.83919919806426        0.52161725690594        8.77687042000774
o            5.90729217143895        2.06381346082536        2.97284375708854
h            5.28896488770534        1.92429088636978        3.69901480841622
h            5.95034738684449        1.20628180848474        2.50162846140602
o            1.42806171000839        0.49879467092319        3.03605626822372
h            1.55469451256017        1.12922012883407        2.31182655591560
h            0.93733617633654       -0.25142126607390        2.63872155018736
o            8.62259452552088       -0.76342263557200       -2.28623326778994
h            9.27337845054336       -0.36974293019648       -1.68423934634140
h            8.97572295885882       -0.72672924907615       -3.19488504888805
o            8.85618675514922        2.22877925662056       -6.42949203549079
h            8.62841110788157        1.41277103992740       -6.92583096144197
h            8.14920060314089        2.84344036889380       -6.65866118482876
o            6.74468306324813       -0.83759302299052       -5.18111934081112
h            7.68537921517334       -0.70678307062684       -5.01397241921821
h            6.30344598818495        0.00637516960846       -4.98401470609755
o          -11.93479726562438       -1.62338011488737       -3.29838799918530
h          -12.49969736671465       -1.36932523045779       -2.56654788868316
h          -11.35775987506017       -0.84656553885835       -3.44888173862287
o          -11.84182053495063        2.74496764583010        0.42899550689909
h          -11.64460396324775        2.59622932882955       -0.53556505951162
h          -12.71008963369506        2.37398950674827        0.58702399793770
o           -4.23372423370765        6.44387640905628        2.73722018404859
h           -4.54172280703208        5.82160587128870        2.04730334575709
h           -4.02770491292158        7.26296591316359        2.27569621336783
o           -3.62414518956263        4.72208565429888       -1.68676229100724
h           -4.06831496535360        5.48618884790744       -1.28170573468707
h           -3.38778889619091        5.00254297357865       -2.58945245085811
o            5.10615711566568        0.29177222233023       -7.24501156592885
h            5.24503566228085       -0.65741655090657       -7.46711922652242
h            4.64738818002898        0.24503148806656       -6.38658939527075
o           -7.80072835817139        6.64238928123840        3.46013515157882
h           -7.09695265706543        6.22366290128695        3.98500304138334
h           -8.53115245220472        6.01580805827107        3.44635801625704
o            1.82795746890773        8.11788852364637       -2.77905384626771
h            2.24570547565001        7.53830519511828       -2.10890025234236
h            1.93482224289267        7.67024223847745       -3.61969436357551
o            5.54973167711245       -2.34256827186328       -7.40458684982433
h            4.89019426420224       -2.57863215686228       -6.73374997926266
h            6.41274681984408       -2.55046396197547       -7.01507219036231
o           -6.51271013716972        0.04462713825949       -7.31974827759514
h           -5.69566036887321        0.00871469789164       -6.79370163700024
h           -6.73652923000465       -0.87147323894714       -7.51335387613312
o           -0.07260870256348       -0.17256679448960        5.90004260531161
h           -0.50616689393926       -0.91714177511046        6.35005099306082
h           -0.48887112464382       -0.14568252618421        5.00972860591187
o           -6.51100038182851       -4.91512643688915       -5.05449612815851
h           -5.71534067494744       -5.45521114628162       -4.95670742923098
h           -7.23855449842842       -5.37458852446144       -4.58979242807267
o           -4.29570753735676       -4.71156876637472       -1.92398810889820
h           -4.79039734476087       -5.28499862797313       -1.31257244462353
h           -4.34216515634672       -5.14106896212664       -2.79137902812424
o           -8.17614154824172        2.29778246671863       -2.78320453418264
h           -8.64141189877498        3.06947369962303       -2.43452330253203
h           -7.63801330176778        1.94249968358049       -2.05442405749657
o           -5.68922257347074       -6.59366607395910       -0.59576423072689
h           -6.62214483081695       -6.48412661002192       -0.80103423128261
h           -5.63714587510221       -6.86590241610171        0.35066729176594
o            9.38710887999179       -1.61958947183933        4.92484152828774
h            8.83517654429817       -0.96637644124267        4.42671483180252
h            9.74233100973497       -1.08464844686935        5.65377537605929
o           -2.33841830664831        1.63553016616034       -7.69812965369037
h           -2.63350646757110        2.52553896358796       -7.89591928173982
h           -1.42585542971323        1.71602542909245       -7.34465631748449
o            6.65363526009540        3.69659284294071       -1.67700684931237
h            6.51672348369766        3.75948016570652       -2.63541272369418
h            7.58611636388230        3.42088704642025       -1.58244434628570
o          -12.01188574107226       -2.68406021658073       -0.26432781867654
h          -12.11965106407423       -1.71798908941002       -0.46983000381038
h          -12.19646436414763       -2.75548216255457        0.67833458866611
o            2.74021985237045        5.81256525132721        2.26673573439874
h            1.97257287299063        5.37587528574198        2.65161337579087
h            3.10556446287461        5.20542002375649        1.59275968622837
o           -0.28474633408218        1.38579344472998        8.10891463027893
h           -0.16887362073226        2.32910266581250        7.93110631337508
h           -0.22747987839526        0.92502076637910        7.24677649166521
o           -1.15986119449147       -5.46244998010986        5.80440280988448
h           -1.84725199261726       -4.77325370525146        5.84400868400978
h           -1.61772931261191       -6.22375510237828        5.41899672764159
o            2.40062362917705       -5.28459778761053        6.18662479222337
h            3.35670640617464       -5.37197296000392        6.15638174502917
h            2.06408945799987       -5.58810621605182        5.32754483742617
o            0.67954969535330        5.31586540400964       -2.46963387047442
h            1.05069130681982        4.64691161507321       -1.86848939974686
h            0.35067566876555        6.05436603759394       -1.92619427789310
o            3.69881439893462        2.49033907025349        7.34180936364874
h            3.10876379187802        1.85018950584506        7.81831767023939
h            4.50966843460646        2.53142414034194        7.84912241968143
o           -4.31427554913415       -7.95492884796487       -2.55476973557620
h           -3.37225199583245       -7.99838959883293       -2.33331407442210