612
 energy: -1033.459129195583 gnorm: 0.000353571971 xtb: 6.5.1 (579679a)
H           -1.79272385120000       -0.14593210510000       -0.97563695370000
C           -0.83837086780000        0.18926232810000       -1.37604196220000
H           -0.73603219050000       -0.17303688800000       -2.39550276500000
C            0.30794206700000       -0.36399668940000       -0.53885376700000
H            1.26322524840000       -0.06027439960000       -0.95355596640000
H            0.24774218300000       -1.44554374490000       -0.54890515920000
O           -0.82779623460000        1.59882185450000       -1.42496007380000
H           -1.30055293730000        1.91660588750000       -0.63390624720000
N            0.23902714670000        0.11118602790000        0.85286719280000
H            0.33758710700000        1.14729397360000        0.88830731340000
H            1.05499128320000       -0.33249436410000        1.36985158430000
H           -0.65584620010000       -0.17800548110000        1.27929133790000
O            3.10021474010000        5.54139789860000        4.22382585760000
H            2.75496094230000        5.47496093360000        5.12543507460000
H            4.04821328980000        5.38190496800000        4.31030983900000
O            2.62506455280000        3.22084235680000       -4.05405109480000
H            2.17479930620000        2.35202817770000       -4.11510972080000
H            2.67066625320000        3.58486880270000       -4.94006930460000
O            8.38565620400000        4.32664486490000        0.00484115970000
H            8.09715938890000        5.09419041410000       -0.49858383630000
H            7.56316498320000        3.81962495010000        0.16767898250000
O           -3.42058861070000        1.47755272610000        4.12829460130000
H           -3.41045333790000        0.76844523860000        3.47667389500000
H           -4.34202632280000        1.78324943330000        4.21470601900000
O           -4.76396487870000        4.78999322210000       -0.81931261780000
H           -4.27389672920000        4.69778555920000        0.01707574510000
H           -5.04966789550000        3.89881325360000       -1.08071651580000
O           -1.59659203170000       -3.33379130900000       -5.09893199740000
H           -0.82034451970000       -3.67508402070000       -5.56247277710000
H           -2.34639732360000       -3.92077330390000       -5.30630333640000
O            2.70387022600000        1.31379212240000        1.05730916500000
H            3.40100981040000        1.00380109420000        0.45633441740000
H            3.15500511710000        1.66434429430000        1.83502374870000
O            4.95591487700000        6.17427568080000        0.81987002910000
H            4.25145831510000        5.52549666000000        0.99229212550000
H            5.62989338500000        5.99253458790000        1.49522760290000
O            2.16235536330000       -1.32662472670000        1.92935553330000
H            1.82609118280000       -2.22803246280000        2.04156735080000
H            3.00356802280000       -1.38848610240000        1.43870297830000
O            1.48152303440000       -2.25851278260000       -3.73304786180000
H            2.10079491710000       -1.85501917570000       -3.10961888050000
H            1.96521301120000       -2.98821552280000       -4.15773259060000
O            4.07603650180000        3.74975879000000       -1.23253007900000
H            4.22450074900000        4.35393333590000       -1.99007208230000
H            3.35250342080000        3.14462517660000       -1.49386105930000
O            7.10679124810000        3.33585283400000       -2.62000635490000
H            6.90637153300000        4.21040622430000       -2.24078387600000
H            6.25754878880000        2.93401752670000       -2.90395629070000
O           -2.33787131840000       -0.21159421550000        1.96495320750000
H           -2.38334306500000        0.65982052110000        1.49201759100000
H           -3.14832692400000       -0.67843957980000        1.70935124820000
O           -1.32943534360000        2.45101748630000        6.05477077930000
H           -1.26415792230000        1.82569749940000        5.30105870880000
H           -2.27465289770000        2.55233494670000        6.24978885390000
O           -1.51537190610000        3.21706558060000        3.11531384680000
H           -2.24855500410000        2.77603208320000        3.58256998880000
H           -1.68743269010000        4.16323526270000        3.04134096030000
O            3.68322096720000       -0.26893376820000       -3.91617747730000
H            3.79279737030000       -0.34738443810000       -4.88645501770000
H            4.25856538520000        0.48986990010000       -3.67164467170000
O           -1.10522661180000       -4.54850694510000        3.94187172860000
H           -2.07199033830000       -4.48793852210000        3.85489166510000
H           -0.74788811350000       -3.73471179050000        3.52839646320000
O            0.10298848090000       -5.70492424620000        1.07161958200000
H            0.87500138740000       -5.90604644310000        0.52906881120000
H           -0.31191632680000       -6.55831985030000        1.27050162020000
O            1.66984901620000       -1.75494380080000        4.62307590540000
H            0.90224227870000       -1.97886660310000        4.06163289280000
H            2.43864687190000       -2.21532485270000        4.23985009120000
O           -0.65169080930000       -0.79813564960000        6.42621838200000
H           -0.50899267760000       -1.76195530310000        6.41031350720000
H           -0.80828933090000       -0.53103694270000        5.49874473620000
O            4.11209043400000        2.67570074660000        3.03326119190000
H            5.06836042360000        2.48151831960000        3.14351681980000
H            3.75135162190000        2.60846495180000        3.92695395130000
O           -0.20245168180000        6.10010467800000       -3.41037142170000
H           -0.20605066130000        5.12699078620000       -3.26567614920000
H           -0.33042584410000        6.48084301080000       -2.51727204690000
O           -3.23210793830000        4.78994941440000        1.34993638840000
H           -3.16223168150000        5.69088286320000        1.68706861470000
H           -3.75754841930000        4.31100090630000        2.04028210970000
O           -2.86781294880000       -2.32956128290000       -0.90027142990000
H           -2.17062092350000       -2.56343731080000       -0.25473927620000
H           -2.37838658820000       -2.22440508260000       -1.72980463180000
O            2.92378648300000       -1.77696225280000       -1.42730536250000
H            3.61120635180000       -1.86829909510000       -0.74450936800000
H            2.33758906180000       -2.53831493560000       -1.27121657660000
O            9.36546072470000       -0.34058803420000       -4.28997329200000
H            9.02690975620000       -0.65254003280000       -5.17186065730000
H            9.30330190050000        0.63660853770000       -4.32881345670000
O           -2.26745274050000        2.11669113550000        0.86489185740000
H           -3.22470374600000        2.28381367510000        0.89296835950000
H           -1.89225681350000        2.61046703490000        1.62538875200000
O            1.85944848240000        2.31668437800000       -1.35478657680000
H            1.47483908270000        3.20396697680000       -1.23343741530000
H            2.01211939790000        1.96065037270000       -0.46340834030000
O            2.03660907970000       -2.35006449840000        7.17869994350000
H            1.83425845070000       -2.07721144120000        6.25314106640000
H            1.26242518260000       -2.85833815360000        7.43928069060000
O           -2.50775654080000       -5.02239390890000        0.93011777470000
H           -3.40520173780000       -4.62984947400000        0.92289923990000
H           -2.49653067070000       -5.69111871310000        1.63404917440000
O           -1.43774494920000       -1.16927586460000       -7.20573537530000
H           -1.15451955910000       -0.99272604720000       -6.28290188900000
H           -1.53459107980000       -0.28655817370000       -7.62841926100000
O            2.71089677090000        7.20472397350000       -0.48824508440000
H            3.63068573720000        7.08160973920000       -0.21852937820000
H            2.20624474630000        7.22975167020000        0.33935938760000
O           -2.03670720850000        4.33225715500000       -6.43274785370000
H           -2.72228602140000        4.00839816800000       -7.02010374550000
H           -1.58535814590000        3.53911691760000       -6.06769451160000
O            6.67350209460000       -5.15400825740000       -4.03651517520000
H            6.83945086040000       -4.40490767130000       -3.40839986420000
H            6.64279914920000       -4.72342380760000       -4.89956375550000
O           -1.38560228970000       -5.22610406970000       -1.48830404430000
H           -1.78267927610000       -5.18126111040000       -0.59546246640000
H           -1.15014888660000       -4.31818126200000       -1.77253875460000
O          -10.08749084820000       -2.34772098700000        2.99318590760000
H          -10.88403915510000       -1.95412973690000        2.58996561470000
H           -9.99193718560000       -3.22751414560000        2.57402319200000
O           -9.74209275660000       -4.59171317020000        1.52878740540000
H           -8.78882512600000       -4.90448519010000        1.50868977220000
H          -10.26390167120000       -5.37732710110000        1.68985847810000
O           -0.41647025840000       -2.13102652320000        3.02210746560000
H           -0.56966648650000       -2.34427565230000        2.08509621040000
H           -1.26256305460000       -1.86210543860000        3.44379440960000
O           -0.02354993310000        3.46200828160000       -3.28789504220000
H            0.94506284050000        3.51585331430000       -3.22904807330000
H           -0.32674704640000        2.87743693870000       -2.56847522040000
O            0.55299482620000        5.31159802540000       -6.11892866930000
H           -0.35542853990000        5.10976982660000       -6.38333540170000
H            0.49532106570000        5.73180248000000       -5.25312457870000
O           -6.57604492830000        0.43316841030000        2.53280409990000
H           -6.97354178460000       -0.24698429300000        1.95889672350000
H           -7.34532868500000        0.94431610140000        2.85474787210000
O            6.98204760410000        2.32233004720000        6.41667173240000
H            7.85637372460000        2.09850570400000        6.73441385910000
H            6.47669647300000        1.48400418950000        6.37623976870000
O           -6.39762153850000       -5.91754826760000       -1.00420543160000
H           -6.00391138480000       -6.77567844680000       -0.83167534020000
H           -5.65298473670000       -5.34316449920000       -1.27774483110000
O            2.95923937820000        4.22639309060000        1.12169016800000
H            3.32526738180000        4.03033585110000        0.23152427840000
H            3.42753412470000        3.67488728180000        1.77380336520000
O            6.69162238290000       -0.59609096180000       -3.71025242960000
H            7.64790416780000       -0.49581892620000       -3.82916227160000
H            6.51284282460000       -0.43267102650000       -2.75996706070000
O            0.27097626920000       -6.87726914650000        4.06615282920000
H            0.74250451850000       -7.18531266930000        3.27524639590000
H           -0.22730916760000       -6.07228332290000        3.83321347710000
O           -3.84096651590000       -4.26486151650000        3.67121909040000
H           -4.50890268230000       -4.29666388530000        4.37275431100000
H           -4.32770908780000       -4.17111103390000        2.84544263770000
O            4.76099033990000       -4.00983413450000       -1.11212614500000
H            4.41915845580000       -4.06352980050000       -0.19434172790000
H            5.71766939450000       -4.09947250330000       -1.02596758470000
O            2.44939959370000        3.65776786470000       -6.91358047570000
H            2.69037405350000        3.96619258110000       -7.78717538090000
H            1.72959135630000        4.26783891640000       -6.61384861910000
O            5.98782766340000        3.16849369040000        0.52744766770000
H            5.36940913060000        3.40209790520000       -0.18842524770000
H            5.79345070090000        2.24365993380000        0.76838364550000
O            1.16152754970000       -1.68983554910000       -7.38255786860000
H            0.20189242110000       -1.62823447860000       -7.57177738820000
H            1.38071573390000       -0.80047979070000       -7.06786356990000
O           -0.91593055070000       -2.84967673070000       -2.62512178360000
H           -1.27473088090000       -3.09212394650000       -3.50824112200000
H            0.01072139950000       -2.62456958730000       -2.81283842140000
O            0.77820276340000       -4.08475668070000       -6.21946635050000
H            0.98631118680000       -3.18063304170000       -6.53839381750000
H            0.94280431520000       -4.68314643870000       -6.94661973290000
O            1.99280461090000        4.70466659820000        6.66614386580000
H            1.88283786880000        5.01425776140000        7.56328827670000
H            1.09862613050000        4.72561629210000        6.23233914350000
O           -1.62302335400000        1.35448238980000       -8.00904648920000
H           -1.04116348110000        1.75569624030000       -7.35195102010000
H           -2.52630316350000        1.63617491490000       -7.77635178040000
O            4.13071968240000        0.69047813380000       -1.10471623360000
H            3.60057111180000       -0.05278299020000       -1.42091998980000
H            5.02923623400000        0.32767436700000       -0.96303319290000
O           -4.01199727790000        2.94226626580000        6.72032289160000
H           -4.73273570770000        2.73645896780000        6.09550320410000
H           -3.87630166570000        2.11359974500000        7.19820180960000
O            3.52421814300000        2.62584264660000        5.75705684010000
H            2.91099059000000        3.26222615510000        6.16494976750000
H            3.68696580130000        1.92554555780000        6.39446866220000
O            1.35291775140000        0.93914422820000       -3.62237954240000
H            2.14226445540000        0.36140579080000       -3.69587074380000
H            1.34843924500000        1.28963289260000       -2.71234737750000
O           -3.82501896630000       -2.09517375550000       -6.49096060860000
H           -3.88238222650000       -3.05524796730000       -6.48427306330000
H           -2.94077921730000       -1.86253699850000       -6.85697835950000
O           -0.45302264250000       -0.68228943900000       -4.73374626030000
H            0.05502373970000        0.08166567370000       -4.39942309380000
H            0.15333524120000       -1.42499446360000       -4.57856430940000
O           -0.51314671860000       -7.76970292170000       -1.40224727840000
H            0.33590202520000       -7.88927319270000       -1.84138516350000
H           -0.68547040510000       -6.80609115140000       -1.40888883070000
O            8.96944337020000       -4.68552468420000        2.03196877060000
H            9.30141663520000       -5.53672998320000        2.31724804930000
H            8.78917758710000       -4.18210331290000        2.85737602080000
O            2.48699715110000       -6.25179618790000       -0.23543643220000
H            2.28361652440000       -6.71499718710000       -1.07925872370000
H            3.46138050910000       -6.33814185230000       -0.12471244890000
O           -4.91186081610000        2.01231583050000        1.13928077360000
H           -5.41223513780000        1.38610328840000        1.69434279790000
H           -5.49341509080000        2.79151913560000        1.08001197970000
O            8.88044087150000        3.50660599560000        2.55995318690000
H            9.07977829420000        3.95916088750000        1.72762995440000
H            8.03733315200000        3.91530363680000        2.83551045940000
O            8.68389556930000        2.26466227400000       -4.53624400430000
H            8.06817284920000        2.15186940200000       -5.26682755190000
H            8.16934867640000        2.73590073590000       -3.84939514990000
O           10.89175385140000        3.43741749400000       -0.50058488760000
H           11.05936979150000        2.78943877190000        0.20170738430000
H            9.98918434090000        3.78037661120000       -0.35783177730000
O           -3.76909602910000        0.81000898780000       -1.01125045440000
H           -4.30760820210000        1.17899284080000       -0.29045631240000
H           -4.30145325000000        0.14112613580000       -1.47174830230000
O            5.10459319450000        3.68041614980000       -5.59981524880000
H            5.56677528540000        2.82447125230000       -5.59070062680000
H            4.35953216070000        3.58998675370000       -6.20077745700000
O           -0.80314206010000        0.62524285730000        4.12551116890000
H            0.10117762370000        0.76332293690000        3.81200730440000
H           -1.34534808690000        0.26806862150000        3.40952109820000
O           -8.04279056880000       -1.53169881320000        1.38256492940000
H           -8.54058033610000       -1.03496160010000        0.68369593840000
H           -8.72862124330000       -1.75383537320000        2.03846376230000
O           -7.46155383340000        1.91122544660000       -5.66119538800000
H           -7.30257149960000        1.36389884850000       -6.43389418490000
H           -6.96637973640000        2.76040120560000       -5.81998939810000
O            7.20679019380000       -4.97973885860000       -0.08875435460000
H            7.72985690340000       -5.05200578020000        0.72531273460000
H            7.73665213780000       -5.40131865080000       -0.81180532150000
O            7.86705834080000       -2.36360864650000        0.13932598520000
H            7.64946276020000       -3.26757234480000       -0.15782224930000
H            8.45756319340000       -1.99435639650000       -0.55288196880000
O           -5.93246063690000        2.03856077680000        4.97290837880000
H           -6.44173553690000        1.21691090250000        5.05843680230000
H           -6.49007992960000        2.68441912560000        4.50375597390000
O            1.34455842520000        3.53679219190000        3.52143559880000
H            1.62863406320000        2.62665145380000        3.67673708860000
H            2.11195751580000        4.12377550530000        3.62139681220000
O           -6.23347797200000        6.23114544990000        2.94892091870000
H           -6.63761847930000        6.27373890810000        2.07491528440000
H           -5.53868058050000        6.89502271900000        2.94780152130000
O           -1.39022510800000        4.28446614510000       -0.64182911330000
H           -0.73445050590000        3.77492881810000       -0.13531794590000
H           -2.03922258050000        4.56655148010000        0.01739131660000
O           -0.85345136570000        6.02124109870000        2.91962791280000
H           -0.58231110370000        5.82074056420000        3.82399112070000
H           -0.02336546650000        6.19449583630000        2.43177111500000
O            1.55761584490000       -3.95043438860000        2.41852886630000
H            1.77121451740000       -4.32810232530000        3.28873317070000
H            0.90665826780000       -4.55039052670000        2.00690361350000
O            6.43933120240000       -2.65312835690000        2.41319699380000
H            6.76480295900000       -1.87556866020000        2.91335520680000
H            7.03143573930000       -2.72395747360000        1.65402120420000
O           -3.06331493300000       -1.21201066220000       -4.04171287810000
H           -2.10192959470000       -1.30686386710000       -4.15221734250000
H           -3.44094389450000       -1.57424611880000       -4.87057178950000
O           -8.91068948690000        1.62724861640000        2.96445696930000
H           -9.01212227910000        1.80840260800000        2.00707211150000
H           -8.73649124580000        2.49291236880000        3.36175237410000
O            4.01910239470000       -0.24096485080000       -6.53448357010000
H            3.17140166500000        0.18753360670000       -6.72722531120000
H            3.96117257410000       -1.17666035210000       -6.81597782640000
O           -4.63496312830000        4.57800980050000       -3.67603390290000
H           -3.95202949190000        5.21889664330000       -3.96126598010000
H           -4.14659307900000        3.93896147710000       -3.10705776680000
O            6.25937086970000       -2.54379170720000        5.49383935360000
H            5.79017102860000       -3.12264283380000        6.11630296120000
H            5.71675790290000       -2.59691423650000        4.68434544770000
O            4.04361624250000       -3.92407560360000        6.30537503240000
H            3.97592287790000       -3.62377387060000        5.38465087840000
H            3.39389838250000       -3.38497421860000        6.79436900940000
O            0.58450892930000       -5.17448711100000       -3.63643994800000
H           -0.31636711670000       -5.50101556970000       -3.79647816680000
H            0.88271950340000       -4.78160741470000       -4.46939737680000
O            4.89550728290000        1.98656014610000       -3.25839686470000
H            4.20627884110000        2.60066800000000       -3.58130797130000
H            4.63270896440000        1.72752779000000       -2.34776085930000
O            8.55003333400000       -6.00376438160000       -2.11713875720000
H            7.96699067890000       -5.97272838370000       -2.88924399270000
H            9.22612900690000       -5.32601621290000       -2.27533145890000
O            4.45380475770000       -0.09174235960000        3.57587605850000
H            4.90571531450000        0.06018515720000        4.43094128630000
H            3.57197833320000        0.31519491570000        3.64124923920000
O           -0.74941597370000       -3.09592851980000        0.56390368480000
H            0.00404205230000       -3.44406848330000        0.05601506050000
H           -1.23127129580000       -3.89187948430000        0.87726613350000
O            5.69660733560000        0.64742384060000        1.34517773910000
H            5.31065507230000        0.48927694510000        2.23137447180000
H            6.66349499990000        0.69290300130000        1.44278199230000
O           11.87025881690000       -0.21296770730000       -1.22405982730000
H           12.17474789950000       -0.88365836570000       -1.84724957030000
H           11.60539518860000        0.54826696850000       -1.77422881490000
O           -5.71227743120000       -4.16720368800000        5.74567034130000
H           -6.64449901040000       -4.27534036280000        5.54314541520000
H           -5.64283865200000       -3.28275475580000        6.13670829660000
O           -3.11565456890000       -3.41074480330000        6.65873547020000
H           -3.79015943170000       -2.72031247940000        6.81071852860000
H           -3.60507317840000       -4.20780813330000        6.44362637440000
O           -9.13678824150000        1.85139707060000       -3.49121619200000
H           -8.75403581680000        1.91804491180000       -4.37851984750000
H           -8.77635415100000        1.00727974680000       -3.12334226930000
O           -4.23716941930000       -4.46481242500000       -1.78812424210000
H           -3.73051978440000       -5.28180702010000       -1.63521809720000
H           -3.75404718170000       -3.72153386540000       -1.36722165290000
O           -3.06566714980000        5.17779132210000        5.30662274930000
H           -3.39033553390000        4.60207482710000        6.01401260670000
H           -2.09965258910000        5.11471818590000        5.32920085790000
O          -10.64885146610000        3.58334770860000        1.95494160890000
H          -11.27867425160000        4.18270405880000        2.35170226540000
H          -10.19376259340000        4.08846291840000        1.24611133500000
O           -5.14290055420000       -1.10791775970000       -2.34281789260000
H           -5.56559319080000       -0.43614694160000       -2.90551379650000
H           -4.37648804650000       -1.41652893950000       -2.85105354290000
O           -5.95984378780000        2.45438399990000       -1.52132441970000
H           -6.80358137270000        2.94509021560000       -1.58429005520000
H           -5.81106957770000        2.04615110790000       -2.39661365210000
O           -3.18240569160000        0.30364528970000        6.66834685410000
H           -2.31763149320000       -0.13387351400000        6.76068349110000
H           -3.22414248120000        0.58032948530000        5.73187709640000
O            6.42122914140000       -5.16978745380000        3.54232293780000
H            7.10957246930000       -5.08802106970000        4.20280963060000
H            6.37426152950000       -4.30760214590000        3.08988346390000
O            6.52259738700000       -0.33972142680000       -1.10570163100000
H            7.25023584100000        0.31910310420000       -1.06411160430000
H            6.82743137260000       -1.12693276220000       -0.62494197310000
O           -6.52123448750000       -3.22589871360000        2.84682976060000
H           -6.94902543650000       -2.63441289220000        2.20933651120000
H           -7.09508869840000       -3.23140144540000        3.64164772330000
O            1.63443430210000        6.40020859690000        1.96824306510000
H            2.14019670420000        6.45800304700000        2.78929509490000
H            1.93955910750000        5.56093961860000        1.57239388460000
O           -3.73310636390000       -4.89763154150000       -5.55114277120000
H           -3.28925986050000       -5.55941567900000       -4.99716710240000
H           -4.48744690360000       -4.56877843270000       -5.02746304210000
O           -9.67820574160000       -0.44588830230000       -0.29998056360000
H          -10.17721280010000       -1.25749474930000       -0.48227261910000
H          -10.27684196660000        0.15682297920000        0.16956310190000
O           -7.43710635680000       -0.28037131310000        5.47002242440000
H           -8.39625304440000       -0.07813700800000        5.35043787470000
H           -7.24345447450000       -0.34046295090000        6.40732415740000
O           -8.09702945620000       -2.87284028880000        4.93947583130000
H           -7.76887139740000       -1.97234736110000        5.14738544480000
H           -8.96015573520000       -2.75591231620000        4.52869740850000
O           -4.84620903050000       -3.82641199210000        0.97625149690000
H           -4.70108630770000       -2.87494708000000        1.14139005570000
H           -5.43781473080000       -3.82574757720000        0.20823250940000
O           -5.60691843110000       -3.75357927770000       -3.94795011370000
H           -6.47741114520000       -4.07711328860000       -3.64118348680000
H           -5.02286265600000       -3.88378402030000       -3.17120672480000
O           11.59581971130000       -1.71607474370000       -3.61040793030000
H           12.10084126840000       -1.96149778820000       -4.38464764860000
H           10.85359506950000       -1.15603554520000       -3.92337421880000
O            1.34822987860000       -3.95517093750000       -1.11202728300000
H            1.03452942940000       -4.29474945020000       -1.96423201150000
H            1.89677596690000       -4.66518924990000       -0.73142615080000
O           -5.02226598270000       -1.23958392800000        3.85266205480000
H           -5.55449255110000       -0.51668103320000        3.46446534880000
H           -5.38874628860000       -2.06070880000000        3.47475439280000
O           11.65717951210000        1.27036807180000        1.10887138640000
H           11.68589040910000        0.60311621600000        0.40223568770000
H           12.57031812420000        1.47734921450000        1.31097674370000
O           -3.50638038800000       -7.02644534290000       -1.14810942030000
H           -3.92368650910000       -7.08037304010000       -0.26962593280000
H           -2.68598735860000       -7.52072373250000       -1.08604830850000
O           -5.59443562360000       -0.06133951140000       -6.74823853230000
H           -4.95817429380000       -0.76502281150000       -6.95094697530000
H           -6.04161174800000       -0.40371549970000       -5.95393975520000
O            1.28337555150000        4.91480103750000       -1.11800340380000
H            1.88298116610000        5.66394459500000       -0.98704440160000
H            0.39643103670000        5.23702340510000       -0.91601331520000
O            4.53825119000000       -1.65069897620000        0.71074526420000
H            4.98384353680000       -0.78713273660000        0.81236791230000
H            5.05820444420000       -2.27721407010000        1.23729322260000
O            0.40383389570000        2.94955714390000        1.04123361100000
H            0.09624390630000        3.10900586710000        1.94444640380000
H            1.28763286450000        3.35248147250000        1.01316127970000
O            1.58185318170000        1.03677375480000       -6.61601232230000
H            0.78993820900000        1.22115681970000       -6.08274187390000