      -----------------------------------------------------------      
     |                   =====================                   |     
     |                           x T B                           |     
     |                   =====================                   |     
     |                         S. Grimme                         |     
     |          Mulliken Center for Theoretical Chemistry        |     
     |                    University of Bonn                     |     
      -----------------------------------------------------------      

   * xtb version 6.5.1 (579679a) compiled by 'ehlert@majestix' on 2022-07-11

   xtb is free software: you can redistribute it and/or modify it under
   the terms of the GNU Lesser General Public License as published by
   the Free Software Foundation, either version 3 of the License, or
   (at your option) any later version.
   
   xtb is distributed in the hope that it will be useful,
   but WITHOUT ANY WARRANTY; without even the implied warranty of
   MERCHANTABILITY or FITNESS FOR A PARTICULAR PURPOSE.  See the
   GNU Lesser General Public License for more details.
   
   Cite this work as:
   * C. Bannwarth, E. Caldeweyher, S. Ehlert, A. Hansen, P. Pracht,
     J. Seibert, S. Spicher, S. Grimme, WIREs Comput. Mol. Sci., 2020, 11,
     e01493. DOI: 10.1002/wcms.1493
   
   for GFN2-xTB:
   * C. Bannwarth, S. Ehlert and S. Grimme., J. Chem. Theory Comput., 2019,
     15, 1652-1671. DOI: 10.1021/acs.jctc.8b01176
   for GFN1-xTB:
   * S. Grimme, C. Bannwarth, P. Shushkov, J. Chem. Theory Comput., 2017,
     13, 1989-2009. DOI: 10.1021/acs.jctc.7b00118
   for GFN0-xTB:
   * P. Pracht, E. Caldeweyher, S. Ehlert, S. Grimme, ChemRxiv, 2019, preprint.
     DOI: 10.26434/chemrxiv.8326202.v1
   for GFN-FF:
   * S. Spicher and S. Grimme, Angew. Chem. Int. Ed., 2020, 59, 15665-15673.
     DOI: 10.1002/anie.202004239
   
   for ALPB and GBSA implicit solvation:
   * S. Ehlert, M. Stahn, S. Spicher, S. Grimme, J. Chem. Theory Comput.,
     2021, 17, 4250-4261. DOI: 10.1021/acs.jctc.1c00471
   
   for DFT-D4:
   * E. Caldeweyher, C. Bannwarth and S. Grimme, J. Chem. Phys., 2017,
     147, 034112. DOI: 10.1063/1.4993215
   * E. Caldeweyher, S. Ehlert, A. Hansen, H. Neugebauer, S. Spicher,
     C. Bannwarth and S. Grimme, J. Chem. Phys., 2019, 150, 154122.
     DOI: 10.1063/1.5090222
   * E. Caldeweyher, J.-M. Mewes, S. Ehlert and S. Grimme, Phys. Chem. Chem. Phys.
     2020, 22, 8499-8512. DOI: 10.1039/D0CP00502A
   
   for sTDA-xTB:
   * S. Grimme and C. Bannwarth, J. Chem. Phys., 2016, 145, 054103.
     DOI: 10.1063/1.4959605
   
   in the mass-spec context:
   * V. Asgeirsson, C. Bauer and S. Grimme, Chem. Sci., 2017, 8, 4879.
     DOI: 10.1039/c7sc00601b
   * J. Koopman and S. Grimme, ACS Omega 2019, 4, 12, 15120-15133.
     DOI: 10.1021/acsomega.9b02011
   
   for metadynamics refer to:
   * S. Grimme, J. Chem. Theory Comput., 2019, 155, 2847-2862
     DOI: 10.1021/acs.jctc.9b00143
   
   for SPH calculations refer to:
   * S. Spicher and S. Grimme, J. Chem. Theory Comput., 2021, 17, 1701-1714
     DOI: 10.1021/acs.jctc.0c01306
   
   with help from (in alphabetical order)
   P. Atkinson, C. Bannwarth, F. Bohle, G. Brandenburg, E. Caldeweyher
   M. Checinski, S. Dohm, S. Ehlert, S. Ehrlich, I. Gerasimov, C. Hölzer
   A. Katbashev, J. Koopman, C. Lavigne, S. Lehtola, F. März, M. Müller,
   F. Musil, H. Neugebauer, J. Pisarek, C. Plett, P. Pracht, F. Pultar,
   J. Seibert, P. Shushkov, S. Spicher, M. Stahn, M. Steiner, T. Strunk,
   J. Stückrath, T. Rose, and J. Unsleber
   
 * started run on 2022/11/24 at 12:04:43.997     

           -------------------------------------------------
          |                Calculation Setup                |
           -------------------------------------------------

          program call               : xtb solvent_cluster.coord --gfn2 --input xcontrol --opt 1
          hostname                   : cn0430
          coordinate file            : solvent_cluster.coord
          omp threads                :                     2

   ID    Z sym.   atoms
    1    8 o      1, 4, 7, 10, 13, 16, 19, 22, 25, 28, 31, 34, 37, 40, 43,
                  46, 49, 52, 55, 58, 61, 64, 67, 70, 73, 76, 79, 82, 85, 88,
                  91, 94, 97, 100, 103, 106, 109, 112, 115, 118, 121, 124,
                  127, 130, 133, 136, 139, 142, 145, 148, 151, 154, 157, 160,
                  163, 166, 169, 172, 175, 178, 181, 184, 187, 190, 193, 196,
                  199, 202, 205, 208, 211, 214, 217, 220, 223, 226, 229, 232,
                  235, 238, 241, 244, 247, 250, 253, 256, 259, 262, 265, 268,
                  271, 274, 277, 280, 283, 286, 289, 292, 295, 298, 301, 304,
                  307, 310, 313, 316, 319, 322, 325, 328, 331, 334, 337, 340,
                  343, 346, 349, 352, 355, 358, 361, 364, 367, 370, 373, 376,
                  379, 382, 385, 388, 391, 394, 397, 400, 403, 406, 409, 412,
                  415, 418, 421, 424, 427, 430, 433, 436, 439, 442, 445, 448,
                  451, 454, 457, 460, 463, 466, 469, 472, 475, 478, 481, 484,
                  487, 490, 493, 496, 499, 502, 505, 508, 511, 514, 517, 520,
                  523, 526, 529, 532, 535, 538, 541, 544, 547, 550, 553, 556,
                  559, 562, 565, 568, 571, 574, 577, 580, 583, 586, 589, 592,
                  595, 598, 601, 604, 607, 610, 613, 616, 619, 622, 625, 628,
                  631, 634, 637, 640, 643, 646, 649, 652, 655, 658, 661, 664,
                  667, 670, 673, 676, 679, 682, 685, 688, 691, 694, 697, 700,
                  703, 706, 709, 712, 715, 718, 721, 724, 727, 730, 733, 736,
                  739, 742, 745, 748, 751, 754
    2    1 h      2, 3, 5, 6, 8, 9, 11, 12, 14, 15, 17, 18, 20, 21, 23, 24,
                  26, 27, 29, 30, 32, 33, 35, 36, 38, 39, 41, 42, 44, 45, 47,
                  48, 50, 51, 53, 54, 56, 57, 59, 60, 62, 63, 65, 66, 68, 69,
                  71, 72, 74, 75, 77, 78, 80, 81, 83, 84, 86, 87, 89, 90, 92,
                  93, 95, 96, 98, 99, 101, 102, 104, 105, 107, 108, 110, 111,
                  113, 114, 116, 117, 119, 120, 122, 123, 125, 126, 128, 129,
                  131, 132, 134, 135, 137, 138, 140, 141, 143, 144, 146, 147,
                  149, 150, 152, 153, 155, 156, 158, 159, 161, 162, 164, 165,
                  167, 168, 170, 171, 173, 174, 176, 177, 179, 180, 182, 183,
                  185, 186, 188, 189, 191, 192, 194, 195, 197, 198, 200, 201,
                  203, 204, 206, 207, 209, 210, 212, 213, 215, 216, 218, 219,
                  221, 222, 224, 225, 227, 228, 230, 231, 233, 234, 236, 237,
                  239, 240, 242, 243, 245, 246, 248, 249, 251, 252, 254, 255,
                  257, 258, 260, 261, 263, 264, 266, 267, 269, 270, 272, 273,
                  275, 276, 278, 279, 281, 282, 284, 285, 287, 288, 290, 291,
                  293, 294, 296, 297, 299, 300, 302, 303, 305, 306, 308, 309,
                  311, 312, 314, 315, 317, 318, 320, 321, 323, 324, 326, 327,
                  329, 330, 332, 333, 335, 336, 338, 339, 341, 342, 344, 345,
                  347, 348, 350, 351, 353, 354, 356, 357, 359, 360, 362, 363,
                  365, 366, 368, 369, 371, 372, 374, 375, 377, 378, 380, 381,
                  383, 384, 386, 387, 389, 390, 392, 393, 395, 396, 398, 399,
                  401, 402, 404, 405, 407, 408, 410, 411, 413, 414, 416, 417,
                  419, 420, 422, 423, 425, 426, 428, 429, 431, 432, 434, 435,
                  437, 438, 440, 441, 443, 444, 446, 447, 449, 450, 452, 453,
                  455, 456, 458, 459, 461, 462, 464, 465, 467, 468, 470, 471,
                  473, 474, 476, 477, 479, 480, 482, 483, 485, 486, 488, 489,
                  491, 492, 494, 495, 497, 498, 500, 501, 503, 504, 506, 507,
                  509, 510, 512, 513, 515, 516, 518, 519, 521, 522, 524, 525,
                  527, 528, 530, 531, 533, 534, 536, 537, 539, 540, 542, 543,
                  545, 546, 548, 549, 551, 552, 554, 555, 557, 558, 560, 561,
                  563, 564, 566, 567, 569, 570, 572, 573, 575, 576, 578, 579,
                  581, 582, 584, 585, 587, 588, 590, 591, 593, 594, 596, 597,
                  599, 600, 602, 603, 605, 606, 608, 609, 611, 612, 614, 615,
                  617, 618, 620, 621, 623, 624, 626, 627, 629, 630, 632, 633,
                  635, 636, 638, 639, 641, 642, 644, 645, 647, 648, 650, 651,
                  653, 654, 656, 657, 659, 660, 662, 663, 665, 666, 668, 669,
                  671, 672, 674, 675, 677, 678, 680, 681, 683, 684, 686, 687,
                  689, 690, 692, 693, 695, 696, 698, 699, 701, 702, 704, 705,
                  707, 708, 710, 711, 713, 714, 716, 717, 719, 720, 722, 723,
                  725, 726, 728, 729, 731, 732, 734, 735, 737, 738, 740, 741,
                  743, 744, 746, 747, 749, 750, 752, 753, 755, 756

molecular fragmentation (1/2 indicates fragments):
111222222222222222222222222222222222222222222222222222222222222222222222
222222222222222222222222222222222222222222222222222222222222222222222222
222222222222222222222222222222222222222222222222222222222222222222222222
222222222222222222222222222222222222222222222222222222222222222222222222
222222222222222222222222222222222222222222222222222222222222222222222222
222222222222222222222222222222222222222222222222222222222222222222222222
222222222222222222222222222222222222222222222222222222222222222222222222
222222222222222222222222222222222222222222222222222222222222222222222222
222222222222222222222222222222222222222222222222222222222222222222222222
222222222222222222222222222222222222222222222222222222222222222222222222
222222222222222222222222222222222222
# atoms in fragment 1/2:     3   753
 fragment masses (1/2) :       18.02     4521.84
CMA distance (Bohr)    :  19.126
constraining FC (au)   :  0.0500

           -------------------------------------------------
          |                 G F N 2 - x T B                 |
           -------------------------------------------------

        Reference                      10.1021/acs.jctc.8b01176
      * Hamiltonian:
        H0-scaling (s, p, d)           1.850000    2.230000    2.230000
        zeta-weighting                 0.500000
      * Dispersion:
        s8                             2.700000
        a1                             0.520000
        a2                             5.000000
        s9                             5.000000
      * Repulsion:
        kExp                           1.500000    1.000000
        rExp                           1.000000
      * Coulomb:
        alpha                          2.000000
        third order                    shell-resolved
        anisotropic                    true
        a3                             3.000000
        a5                             4.000000
        cn-shift                       1.200000
        cn-exp                         4.000000
        max-rad                        5.000000


          ...................................................
          :                      SETUP                      :
          :.................................................:
          :  # basis functions                1512          :
          :  # atomic orbitals                1512          :
          :  # shells                         1008          :
          :  # electrons                      2016          :
          :  max. iterations                   250          :
          :  Hamiltonian                  GFN2-xTB          :
          :  restarted?                      false          :
          :  GBSA solvation                  false          :
          :  PC potential                    false          :
          :  electronic temp.          300.0000000     K    :
          :  accuracy                    1.0000000          :
          :  -> integral cutoff          0.2500000E+02      :
          :  -> integral neglect         0.1000000E-07      :
          :  -> SCF convergence          0.1000000E-05 Eh   :
          :  -> wf. convergence          0.1000000E-03 e    :
          :  Broyden damping             0.4000000          :
          ...................................................

 iter      E             dE          RMSdq      gap      omega  full diag
   1  -1290.9615943 -0.129096E+04  0.407E+00    8.49       0.0  T
   2  -1291.0442621 -0.826678E-01  0.242E+00    7.36       1.0  T
   3  -1291.0763667 -0.321046E-01  0.214E-01    5.54       1.0  T
   4  -1291.0820564 -0.568971E-02  0.466E-02    6.07       1.0  T
   5  -1291.0821457 -0.893357E-04  0.309E-02    5.98       1.0  T
   6  -1291.0821869 -0.412004E-04  0.467E-03    6.03       1.0  T
   7  -1291.0821898 -0.291403E-05  0.755E-04    6.02       4.8  T
   8  -1291.0821898 -0.296077E-07  0.394E-04    6.02       9.2  T
   9  -1291.0821899 -0.151138E-07  0.665E-05    6.02      54.7  T

   *** convergence criteria satisfied after 9 iterations ***

         #    Occupation            Energy/Eh            Energy/eV
      -------------------------------------------------------------
         1        2.0000           -0.6906044             -18.7923
       ...           ...                  ...                  ...
      1002        2.0000           -0.3404867              -9.2651
      1003        2.0000           -0.3372661              -9.1775
      1004        2.0000           -0.3348679              -9.1122
      1005        2.0000           -0.3298939              -8.9769
      1006        2.0000           -0.3231994              -8.7947
      1007        2.0000           -0.3140625              -8.5461
      1008        2.0000           -0.3104101              -8.4467 (HOMO)
      1009                         -0.0891394              -2.4256 (LUMO)
      1010                         -0.0775568              -2.1104
      1011                         -0.0655121              -1.7827
      1012                         -0.0641844              -1.7465
      1013                         -0.0550821              -1.4989
       ...                                ...                  ...
      1512                          0.4960293              13.4976
      -------------------------------------------------------------
                  HL-Gap            0.2212707 Eh            6.0211 eV
             Fermi-level           -0.1997748 Eh           -5.4361 eV

 SCC (total)                   0 d,  0 h,  0 min, 21.391 sec
 SCC setup                      ...        0 min,  0.042 sec (  0.195%)
 Dispersion                     ...        0 min,  0.111 sec (  0.521%)
 classical contributions        ...        0 min,  0.023 sec (  0.109%)
 integral evaluation            ...        0 min,  0.618 sec (  2.891%)
 iterations                     ...        0 min,  7.992 sec ( 37.362%)
 molecular gradient             ...        0 min, 12.542 sec ( 58.631%)
 printout                       ...        0 min,  0.062 sec (  0.291%)

         :::::::::::::::::::::::::::::::::::::::::::::::::::::
         ::                     SUMMARY                     ::
         :::::::::::::::::::::::::::::::::::::::::::::::::::::
         :: total energy           -1283.296090034906 Eh    ::
         :: gradient norm              0.106107622386 Eh/a0 ::
         :: HOMO-LUMO gap              6.021081721382 eV    ::
         ::.................................................::
         :: SCC energy             -1291.082189852433 Eh    ::
         :: -> isotropic ES            7.161061678153 Eh    ::
         :: -> anisotropic ES         -1.608290144102 Eh    ::
         :: -> anisotropic XC         -0.128155556448 Eh    ::
         :: -> dispersion             -0.799168147494 Eh    ::
         :: repulsion energy           7.629163594312 Eh    ::
         :: add. restraining           0.000000000000 Eh    ::
         :: total charge              -0.000000000000 e     ::
         :::::::::::::::::::::::::::::::::::::::::::::::::::::

      ----------------------------------------------------------- 
     |                       L-ANC optimizer                     |
      ----------------------------------------------------------- 
          low memory version by Sebastian Ehlert

          ...................................................
          :                      SETUP                      :
          :.................................................:
          :   energy convergence        0.1000000E-05 Eh    :
          :   grad. convergence         0.8000000E-03 Eh/a0 :
          :   optimization log               true           :
          :   writing optlog all                1     steps :
          :   Hessian reset                    20     steps :
          :   maximium step len.        1.0000000     a0    :
          :   LBFGS images                     20           :
          ...................................................
 * calculating model hessian...
Using Lindh-Hessian (1995)
 Shifting diagonal of input Hessian by   1.000012749188727E-002
 Lowest  eigenvalues of input Hessian
    0.010000    0.010000   -0.000000   -0.000000   -0.000000   -0.000000
   -0.000000   -0.000000   -0.000000   -0.000000   -0.000000   -0.000000
   -0.000000   -0.000000   -0.000000   -0.000000   -0.000000   -0.000000
 Highest eigenvalues
    0.305910    0.313360    1.217239    1.226388    1.404747    1.442066
 

........................................................................
.............................. CYCLE    1 ..............................
........................................................................
   1  -1291.0739493 -0.129107E+04  0.497E-02    5.98       0.0  T
   2  -1291.0739758 -0.264921E-04  0.306E-02    5.98       1.0  T
   3  -1291.0739871 -0.112876E-04  0.252E-03    5.98       1.4  T
   4  -1291.0739876 -0.574830E-06  0.677E-04    5.98       5.4  T
   5  -1291.0739876 -0.847854E-08  0.858E-05    5.98      42.4  T
     SCC iter.                  ...        0 min,  3.788 sec
     gradient                   ...        0 min, 12.580 sec
 * total energy  : -1283.2971881 Eh     change       -0.1098103E-02 Eh
   gradient norm :     0.0411520 Eh/a0  converged?    E=F G=F D=F
   step length   :     0.4838298 a0

........................................................................
.............................. CYCLE    2 ..............................
........................................................................
   1  -1291.0802208 -0.129108E+04  0.288E-02    5.99       0.0  T
   2  -1291.0802315 -0.107683E-04  0.176E-02    5.99       1.0  T
   3  -1291.0802357 -0.419877E-05  0.180E-03    6.00       2.0  T
   4  -1291.0802360 -0.292357E-06  0.497E-04    6.00       7.3  T
   5  -1291.0802360 -0.394061E-08  0.562E-05    6.00      64.7  T
     SCC iter.                  ...        0 min,  3.606 sec
     gradient                   ...        0 min, 12.550 sec
 * total energy  : -1283.2986745 Eh     change       -0.1486362E-02 Eh
   gradient norm :     0.0331761 Eh/a0  converged?    E=F G=F D=F
   step length   :     0.3453163 a0

........................................................................
.............................. CYCLE    3 ..............................
........................................................................
   1  -1291.0913587 -0.129109E+04  0.609E-02    5.99       0.0  T
   2  -1291.0914039 -0.452686E-04  0.376E-02    5.99       1.0  T
   3  -1291.0914234 -0.194263E-04  0.351E-03    5.99       1.0  T
   4  -1291.0914244 -0.108089E-05  0.999E-04    5.99       3.6  T
   5  -1291.0914244 -0.131558E-07  0.127E-04    5.99      28.6  T
   6  -1291.0914245 -0.273303E-09  0.366E-05    5.99      99.4  T
     SCC iter.                  ...        0 min,  4.077 sec
     gradient                   ...        0 min, 12.527 sec
 * total energy  : -1283.2981775 Eh     change        0.4969696E-03 Eh
   gradient norm :     0.0285892 Eh/a0  converged?    E=F G=F D=F
   step length   :     0.6914709 a0

........................................................................
.............................. CYCLE    4 ..............................
........................................................................
   1  -1291.0797647 -0.129108E+04  0.358E-02    5.96       0.0  T
   2  -1291.0798004 -0.357159E-04  0.211E-02    5.96       1.0  T
   3  -1291.0798096 -0.923586E-05  0.373E-03    5.97       1.0  T
   4  -1291.0798108 -0.116401E-05  0.911E-04    5.97       4.0  T
   5  -1291.0798108 -0.254608E-07  0.106E-04    5.97      34.2  T
   6  -1291.0798108 -0.939963E-09  0.401E-05    5.97      90.6  T
     SCC iter.                  ...        0 min,  4.159 sec
     gradient                   ...        0 min, 13.038 sec
 * total energy  : -1283.2986535 Eh     change       -0.4759748E-03 Eh
   gradient norm :     0.0440842 Eh/a0  converged?    E=F G=F D=F
   step length   :     0.5625240 a0

........................................................................
.............................. CYCLE    5 ..............................
........................................................................
   1  -1291.0778649 -0.129108E+04  0.514E-02    5.94       0.0  T
   2  -1291.0778944 -0.295665E-04  0.319E-02    5.94       1.0  T
   3  -1291.0779068 -0.124302E-04  0.253E-03    5.94       1.4  T
   4  -1291.0779075 -0.689736E-06  0.729E-04    5.94       5.0  T
   5  -1291.0779075 -0.805130E-08  0.875E-05    5.94      41.5  T
     SCC iter.                  ...        0 min,  3.166 sec
     gradient                   ...        0 min, 12.658 sec
 * total energy  : -1283.3007336 Eh     change       -0.2080056E-02 Eh
   gradient norm :     0.0432676 Eh/a0  converged?    E=F G=F D=F
   step length   :     0.5525981 a0

........................................................................
.............................. CYCLE    6 ..............................
........................................................................
   1  -1291.0915403 -0.129109E+04  0.323E-02    5.95       0.0  T
   2  -1291.0915532 -0.128994E-04  0.193E-02    5.95       1.0  T
   3  -1291.0915574 -0.424000E-05  0.214E-03    5.95       1.7  T
   4  -1291.0915579 -0.436346E-06  0.619E-04    5.95       5.9  T
   5  -1291.0915579 -0.123227E-07  0.699E-05    5.95      52.0  T
     SCC iter.                  ...        0 min,  3.126 sec
     gradient                   ...        0 min, 12.725 sec
 * total energy  : -1283.3013242 Eh     change       -0.5906880E-03 Eh
   gradient norm :     0.0257287 Eh/a0  converged?    E=F G=F D=F
   step length   :     0.3768338 a0

........................................................................
.............................. CYCLE    7 ..............................
........................................................................
   1  -1291.0881246 -0.129109E+04  0.198E-02    5.93       0.0  T
   2  -1291.0881294 -0.484174E-05  0.120E-02    5.93       1.0  T
   3  -1291.0881307 -0.131638E-05  0.126E-03    5.94       2.9  T
   4  -1291.0881309 -0.163609E-06  0.316E-04    5.94      11.5  T
   5  -1291.0881309 -0.158298E-08  0.365E-05    5.94      99.6  T
     SCC iter.                  ...        0 min,  3.302 sec
     gradient                   ...        0 min, 13.288 sec
 * total energy  : -1283.3025334 Eh     change       -0.1209194E-02 Eh
   gradient norm :     0.0185715 Eh/a0  converged?    E=F G=F D=F
   step length   :     0.3936572 a0

........................................................................
.............................. CYCLE    8 ..............................
........................................................................
   1  -1291.0836801 -0.129108E+04  0.182E-02    5.91       0.0  T
   2  -1291.0836848 -0.462471E-05  0.110E-02    5.91       1.0  T
   3  -1291.0836863 -0.150496E-05  0.122E-03    5.91       3.0  T
   4  -1291.0836864 -0.158410E-06  0.387E-04    5.91       9.4  T
   5  -1291.0836864 -0.545697E-08  0.448E-05    5.91      81.1  T
     SCC iter.                  ...        0 min,  3.235 sec
     gradient                   ...        0 min, 13.421 sec
 * total energy  : -1283.3029965 Eh     change       -0.4630566E-03 Eh
   gradient norm :     0.0290508 Eh/a0  converged?    E=F G=F D=F
   step length   :     0.5721973 a0

........................................................................
.............................. CYCLE    9 ..............................
........................................................................
   1  -1291.0860589 -0.129109E+04  0.837E-03    5.91       0.0  T
   2  -1291.0860606 -0.171644E-05  0.493E-03    5.91       1.0  T
   3  -1291.0860609 -0.370130E-06  0.793E-04    5.91       4.6  T
   4  -1291.0860610 -0.526136E-07  0.166E-04    5.91      21.9  T
     SCC iter.                  ...        0 min,  2.570 sec
     gradient                   ...        0 min, 13.467 sec
 * total energy  : -1283.3034365 Eh     change       -0.4400160E-03 Eh
   gradient norm :     0.0153834 Eh/a0  converged?    E=F G=F D=F
   step length   :     0.1232631 a0

........................................................................
.............................. CYCLE   10 ..............................
........................................................................
   1  -1291.0870918 -0.129109E+04  0.162E-02    5.88       0.0  T
   2  -1291.0870948 -0.294675E-05  0.973E-03    5.89       1.0  T
   3  -1291.0870953 -0.559133E-06  0.923E-04    5.89       3.9  T
   4  -1291.0870954 -0.112218E-06  0.193E-04    5.88      18.9  T
     SCC iter.                  ...        0 min,  2.555 sec
     gradient                   ...        0 min, 13.508 sec
 * total energy  : -1283.3038528 Eh     change       -0.4162652E-03 Eh
   gradient norm :     0.0144022 Eh/a0  converged?    E=F G=F D=F
   step length   :     0.4705548 a0

........................................................................
.............................. CYCLE   11 ..............................
........................................................................
   1  -1291.0899669 -0.129109E+04  0.156E-02    5.87       0.0  T
   2  -1291.0899698 -0.294417E-05  0.927E-03    5.87       1.0  T
   3  -1291.0899705 -0.684974E-06  0.980E-04    5.87       3.7  T
   4  -1291.0899706 -0.108998E-06  0.244E-04    5.87      14.9  T
     SCC iter.                  ...        0 min,  2.404 sec
     gradient                   ...        0 min, 12.872 sec
 * total energy  : -1283.3039266 Eh     change       -0.7382068E-04 Eh
   gradient norm :     0.0134957 Eh/a0  converged?    E=F G=F D=F
   step length   :     0.4149346 a0

........................................................................
.............................. CYCLE   12 ..............................
........................................................................
   1  -1291.0897459 -0.129109E+04  0.786E-03    5.87       0.0  T
   2  -1291.0897470 -0.108699E-05  0.474E-03    5.87       1.0  T
   3  -1291.0897472 -0.254056E-06  0.571E-04    5.87       6.4  T
   4  -1291.0897472 -0.371999E-07  0.131E-04    5.87      27.7  T
     SCC iter.                  ...        0 min,  2.404 sec
     gradient                   ...        0 min, 12.893 sec
 * total energy  : -1283.3041824 Eh     change       -0.2557900E-03 Eh
   gradient norm :     0.0051383 Eh/a0  converged?    E=F G=F D=F
   step length   :     0.1209838 a0

........................................................................
.............................. CYCLE   13 ..............................
........................................................................
   1  -1291.0877062 -0.129109E+04  0.989E-03    5.87       0.0  T
   2  -1291.0877077 -0.148077E-05  0.600E-03    5.86       1.0  T
   3  -1291.0877082 -0.529674E-06  0.671E-04    5.86       5.4  T
   4  -1291.0877083 -0.497107E-07  0.216E-04    5.86      16.8  T
     SCC iter.                  ...        0 min,  2.394 sec
     gradient                   ...        0 min, 12.871 sec
 * total energy  : -1283.3042594 Eh     change       -0.7704210E-04 Eh
   gradient norm :     0.0141661 Eh/a0  converged?    E=F G=F D=F
   step length   :     0.1363560 a0

........................................................................
.............................. CYCLE   14 ..............................
........................................................................
   1  -1291.0891011 -0.129109E+04  0.455E-03    5.87       0.0  T
   2  -1291.0891014 -0.347651E-06  0.275E-03    5.87       1.3  T
   3  -1291.0891015 -0.122909E-06  0.340E-04    5.87      10.7  T
   4  -1291.0891015 -0.113091E-07  0.101E-04    5.87      35.9  T
     SCC iter.                  ...        0 min,  2.457 sec
     gradient                   ...        0 min, 12.811 sec
 * total energy  : -1283.3044200 Eh     change       -0.1605893E-03 Eh
   gradient norm :     0.0068954 Eh/a0  converged?    E=F G=F D=F
   step length   :     0.0673058 a0

........................................................................
.............................. CYCLE   15 ..............................
........................................................................
   1  -1291.0879710 -0.129109E+04  0.152E-02    5.86       0.0  T
   2  -1291.0879722 -0.113990E-05  0.921E-03    5.86       1.0  T
   3  -1291.0879728 -0.616100E-06  0.601E-04    5.86       6.1  T
   4  -1291.0879728 -0.253058E-07  0.210E-04    5.86      17.4  T
     SCC iter.                  ...        0 min,  2.449 sec
     gradient                   ...        0 min, 12.776 sec
 * total energy  : -1283.3045771 Eh     change       -0.1570746E-03 Eh
   gradient norm :     0.0104785 Eh/a0  converged?    E=F G=F D=F
   step length   :     0.2211171 a0

........................................................................
.............................. CYCLE   16 ..............................
........................................................................
   1  -1291.0901532 -0.129109E+04  0.109E-02    5.86       0.0  T
   2  -1291.0901552 -0.198453E-05  0.668E-03    5.86       1.0  T
   3  -1291.0901564 -0.116169E-05  0.818E-04    5.86       4.4  T
   4  -1291.0901564 -0.434313E-07  0.272E-04    5.86      13.4  T
   5  -1291.0901564 -0.381988E-08  0.307E-05    5.86     118.3  T
     SCC iter.                  ...        0 min,  2.981 sec
     gradient                   ...        0 min, 12.711 sec
 * total energy  : -1283.3046368 Eh     change       -0.5970960E-04 Eh
   gradient norm :     0.0125709 Eh/a0  converged?    E=F G=F D=F
   step length   :     0.1708756 a0

........................................................................
.............................. CYCLE   17 ..............................
........................................................................
   1  -1291.0901496 -0.129109E+04  0.380E-03    5.86       0.0  T
   2  -1291.0901501 -0.416866E-06  0.232E-03    5.86       1.6  T
   3  -1291.0901502 -0.167242E-06  0.372E-04    5.86       9.8  T
   4  -1291.0901502 -0.125212E-07  0.115E-04    5.86      31.6  T
     SCC iter.                  ...        0 min,  2.404 sec
     gradient                   ...        0 min, 12.700 sec
 * total energy  : -1283.3047351 Eh     change       -0.9825009E-04 Eh
   gradient norm :     0.0038595 Eh/a0  converged?    E=F G=F D=F
   step length   :     0.0996346 a0

........................................................................
.............................. CYCLE   18 ..............................
........................................................................
   1  -1291.0896613 -0.129109E+04  0.544E-03    5.85       0.0  T
   2  -1291.0896616 -0.335431E-06  0.328E-03    5.85       1.1  T
   3  -1291.0896617 -0.698419E-07  0.301E-04    5.85      12.1  T
   4  -1291.0896617 -0.126829E-07  0.673E-05    5.85      54.0  T
     SCC iter.                  ...        0 min,  2.390 sec
     gradient                   ...        0 min, 12.714 sec
 * total energy  : -1283.3047764 Eh     change       -0.4131253E-04 Eh
   gradient norm :     0.0033921 Eh/a0  converged?    E=F G=F D=F
   step length   :     0.1195011 a0

........................................................................
.............................. CYCLE   19 ..............................
........................................................................
   1  -1291.0908012 -0.129109E+04  0.324E-03    5.85       0.0  T
   2  -1291.0908014 -0.165636E-06  0.197E-03    5.85       1.8  T
   3  -1291.0908015 -0.562961E-07  0.218E-04    5.85      16.7  T
   4  -1291.0908015 -0.518162E-08  0.680E-05    5.85      53.5  T
     SCC iter.                  ...        0 min,  2.406 sec
     gradient                   ...        0 min, 12.736 sec
 * total energy  : -1283.3047984 Eh     change       -0.2201285E-04 Eh
   gradient norm :     0.0019302 Eh/a0  converged?    E=F G=F D=F
   step length   :     0.0739219 a0

........................................................................
.............................. CYCLE   20 ..............................
........................................................................
   1  -1291.0899900 -0.129109E+04  0.732E-03    5.85       0.0  T
   2  -1291.0899904 -0.406955E-06  0.446E-03    5.85       1.0  T
   3  -1291.0899906 -0.230498E-06  0.363E-04    5.85      10.0  T
   4  -1291.0899906 -0.956015E-08  0.128E-04    5.85      28.4  T
     SCC iter.                  ...        0 min,  2.354 sec
     gradient                   ...        0 min, 12.559 sec
 * total energy  : -1283.3048070 Eh     change       -0.8602052E-05 Eh
   gradient norm :     0.0036528 Eh/a0  converged?    E=F G=F D=F
   step length   :     0.1164180 a0
 * RMSD in coord.:     0.1438204 a0     energy gain  -0.8716949E-02 Eh
 * calculating model hessian...
Using Lindh-Hessian (1995)
 Shifting diagonal of input Hessian by   1.000013688222111E-002
 Lowest  eigenvalues of input Hessian
    0.010000   -0.000000   -0.000000   -0.000000   -0.000000   -0.000000
   -0.000000   -0.000000   -0.000000   -0.000000   -0.000000   -0.000000
   -0.000000   -0.000000   -0.000000   -0.000000   -0.000000   -0.000000
 Highest eigenvalues
    0.301018    0.311809    1.219556    1.219620    1.401851    1.434225
 

........................................................................
.............................. CYCLE   21 ..............................
........................................................................
   1  -1291.0903831 -0.129109E+04  0.336E-03    5.85       0.0  T
   2  -1291.0903832 -0.161218E-06  0.202E-03    5.85       1.8  T
   3  -1291.0903833 -0.378488E-07  0.220E-04    5.85      16.5  T
   4  -1291.0903833 -0.598470E-08  0.512E-05    5.85      71.0  T
     SCC iter.                  ...        0 min,  2.413 sec
     gradient                   ...        0 min, 12.657 sec
 * total energy  : -1283.3048416 Eh     change       -0.3463219E-04 Eh
   gradient norm :     0.0011961 Eh/a0  converged?    E=F G=F D=F
   step length   :     0.0543929 a0

........................................................................
.............................. CYCLE   22 ..............................
........................................................................
   1  -1291.0905480 -0.129109E+04  0.794E-03    5.85       0.0  T
   2  -1291.0905488 -0.851242E-06  0.481E-03    5.85       1.0  T
   3  -1291.0905490 -0.204352E-06  0.488E-04    5.85       7.4  T
   4  -1291.0905491 -0.327518E-07  0.123E-04    5.85      29.5  T
     SCC iter.                  ...        0 min,  2.419 sec
     gradient                   ...        0 min, 12.657 sec
 * total energy  : -1283.3048710 Eh     change       -0.2939735E-04 Eh
   gradient norm :     0.0016828 Eh/a0  converged?    E=F G=F D=F
   step length   :     0.1338426 a0

........................................................................
.............................. CYCLE   23 ..............................
........................................................................
   1  -1291.0907711 -0.129109E+04  0.148E-03    5.85       0.0  T
   2  -1291.0907711 -0.121106E-07  0.892E-04    5.85       4.1  T
   3  -1291.0907711 -0.407204E-08  0.566E-05    5.85      64.3  T
     SCC iter.                  ...        0 min,  1.804 sec
     gradient                   ...        0 min, 12.603 sec
 * total energy  : -1283.3048796 Eh     change       -0.8618906E-05 Eh
   gradient norm :     0.0009983 Eh/a0  converged?    E=F G=F D=F
   step length   :     0.0337951 a0

........................................................................
.............................. CYCLE   24 ..............................
........................................................................
   1  -1291.0906450 -0.129109E+04  0.210E-03    5.86       0.0  T
   2  -1291.0906451 -0.464565E-07  0.127E-03    5.86       2.9  T
   3  -1291.0906451 -0.152027E-07  0.110E-04    5.86      33.0  T
   4  -1291.0906451 -0.166096E-08  0.362E-05    5.86     100.5  T
     SCC iter.                  ...        0 min,  2.364 sec
     gradient                   ...        0 min, 12.642 sec
 * total energy  : -1283.3048856 Eh     change       -0.5985318E-05 Eh
   gradient norm :     0.0008116 Eh/a0  converged?    E=F G=F D=F
   step length   :     0.0571189 a0

........................................................................
.............................. CYCLE   25 ..............................
........................................................................
   1  -1291.0906413 -0.129109E+04  0.106E-03    5.86       0.0  T
   2  -1291.0906414 -0.278076E-07  0.644E-04    5.86       5.6  T
   3  -1291.0906414 -0.673026E-08  0.867E-05    5.86      42.0  T
     SCC iter.                  ...        0 min,  1.790 sec
     gradient                   ...        0 min, 12.607 sec
 * total energy  : -1283.3048878 Eh     change       -0.2177578E-05 Eh
   gradient norm :     0.0004415 Eh/a0  converged?    E=F G=T D=F
   step length   :     0.0337167 a0

........................................................................
.............................. CYCLE   26 ..............................
........................................................................
   1  -1291.0905846 -0.129109E+04  0.612E-04    5.86       0.0  T
   2  -1291.0905846 -0.127966E-07  0.367E-04    5.86       9.9  T
   3  -1291.0905846 -0.196292E-08  0.625E-05    5.86      58.2  T
     SCC iter.                  ...        0 min,  1.789 sec
     gradient                   ...        0 min, 12.551 sec
 * total energy  : -1283.3048887 Eh     change       -0.8634354E-06 Eh
   gradient norm :     0.0002130 Eh/a0  converged?    E=T G=T D=F
   step length   :     0.0211091 a0

   *** GEOMETRY OPTIMIZATION CONVERGED AFTER 26 CYCLES ***

------------------------------------------------------------------------
 total energy gain   :        -0.0087986 Eh       -5.5212 kcal/mol
 total RMSD          :         0.1388951 a0        0.0735 Å
 total power (kW/mol):        -0.8884917 (step)   -0.0518 (real)
------------------------------------------------------------------------

 L-ANCopt (total)              0 d,  0 h,  7 min, 26.335 sec
 setup                          ...        0 min,  0.030 sec (  0.007%)
 model hessian                  ...        0 min, 15.441 sec (  3.459%)
 ANC generation                 ...        0 min,  4.796 sec (  1.075%)
 coordinate transformation      ...        0 min,  0.002 sec (  0.000%)
 Rational function              ...        0 min,  0.000 sec (  0.000%)
 singlepoint calculation        ...        7 min,  5.881 sec ( 95.417%)
 optimization log               ...        0 min,  0.179 sec (  0.040%)
 hessian update                 ...        0 min,  0.001 sec (  0.000%)

================
 final structure:
================
$coord
       12.74549265665700       -9.24804628660701      -10.59923197682400      o
       14.38356240288900       -9.91731603924200      -10.18339870311100      h
       11.75251050923800       -9.47734108283500       -9.05826819674800      h
        1.83401986264500        8.53132846449200        6.55091487661400      o
        2.96478539780800        9.41161089386200        7.67209745577500      h
        2.86427107279700        7.82789736562000        5.17498610031000      h
       -0.27599293590200       -0.38372549342000       -8.54753073951100      o
        0.98343743172200       -0.74188378068200       -7.24880305117400      h
       -1.30438809294300        0.98094108541200       -7.92894749483400      h
       -7.53172222404300       -1.24994464217900       -1.77587065683800      o
       -7.15186206300700        0.12331128911300       -2.93219318589000      h
       -6.12616153857400       -2.43464488534500       -1.83506791372700      h
       -5.40317300898400        5.42053430357200        3.31253259484400      o
       -5.83175102384400        7.14007103763300        3.80377197160700      h
       -3.60599956940700        5.13666410004100        3.67072743110700      h
      -10.44793165110700       -9.23308848929000       -0.83860048162300      o
      -11.32053211319000       -8.68849513866100        0.70779463407000      h
      -10.17485206431600       -7.72548228149500       -1.85031226360700      h
       -0.04538372321600       -7.59049384208200       -1.17946545605500      o
       -1.71043991724100       -6.93934042139300       -0.71992061658100      h
       -0.17178587983900       -9.43114584534500       -1.12096345409900      h
        4.19761606536200       -8.95248196851800       -4.19431506618400      o
        2.90583111961400       -7.91338410762400       -3.43492468402700      h
        3.35728849421800      -10.17854331023200       -5.28976916203800      h
       -3.33352449064000       -3.24202522761500       10.75910143417700      o
       -3.06468318347600       -1.43576333117600       10.98961783996500      h
       -4.51891793725200       -3.44008129317600        9.35494050934800      h
       -5.45290906283500       12.08319071042500       -9.96658049232901      o
       -7.27876463361300       11.99601460425600       -9.93684469982700      h
       -4.89905603483400       10.51638528042600      -10.73353803525100      h
      -10.36119932118800       -4.91486111478000       -3.67491185392200      o
       -9.43479885379100       -5.27585991733700       -5.22883858199000      h
       -9.50060902957200       -3.46790390048100       -2.88697125930900      h
       -6.19111505887500        2.67514106842000       -4.93819362154800      o
       -4.86060270295800        3.08737998681200       -6.14767305968500      h
       -5.87140074934400        3.77775276908200       -3.51244234474500      h
       -4.66107951558600       -5.51211048449100       -0.98674881607700      o
       -5.35773568973800       -6.57260035229000       -2.32039241538800      h
       -5.93023635274900       -5.50827427297200        0.37438071526400      h
       -3.92909091407300        6.06830900046600       -1.54643477877300      o
       -2.12598582788700        6.42863915108500       -1.39978956408700      h
       -4.56519166280900        5.86873905239200        0.17074676961700      h
       -2.40383476776800        4.46422863522100       -7.77693400071700      o
       -1.54258780715600        5.63332671192300       -6.64485980463300      h
       -3.09457869580400        5.51544165408800       -9.12843925152800      h
        2.59645896802100        4.31728395112800       -9.13378919721500      o
        0.85898737844500        3.74943307125500       -9.02681542664900      h
        3.57890356891000        2.87962234488300       -9.76710314347200      h
       -3.08866548328200       -0.77920808860900        4.76202027672200      o
       -4.76063280194600       -0.34271218797300        4.09550545652700      h
       -3.02022911283100       -2.61567319918500        4.93152231409200      h
       -0.17043406570400       -9.11563644382600       13.69152198641300      o
        1.15702634538800       -7.88137636791099       14.01239954831000      h
        0.68141742371900      -10.61381057908599       13.06702059041600      h
       -7.92864027433800       -9.78055488193100        4.39523935835800      o
       -8.43017721679900       -8.17654015990800        3.66829051611200      h
       -9.21838755316100      -10.99593538222000        3.93405020729700      h
        1.33329453423600        4.41467331702800        9.40492018780200      o
       -0.18546556006600        3.36507564421800        9.09848750945900      h
        1.30823020475200        5.86581743610800        8.26542246335400      h
       -8.21300476006800       -5.05736875144600        2.36144819374900      o
       -9.50659879186800       -3.84053918171000        1.87607750718500      h
       -7.47848207234000       -4.50790603265900        3.96651460760000      h
        3.62428160027100        1.87039254842500        5.23590884914400      o
        4.33287119575000        0.19820798762200        5.32576576344200      h
        4.66763940253200        2.91974160567700        6.31711016777300      h
        3.28771574443700       -0.94790895568700       -4.98827186149300      o
        4.97558004760100       -0.42052336508200       -5.54699402918400      h
        2.47633033853300        0.49365646872300       -4.17956816851900      h
        0.06648653855600        8.63569507918800       -6.14488311175700      o
        0.43649064304100        9.18488039716600       -7.84782724658300      h
        1.63523952068500        8.89515299977200       -5.20775406467800      h
        0.44087018761900        5.44810682322200       14.12458259827700      o
        0.86020168175800        4.99075741142000       12.35169523894500      h
        1.47709817311500        6.94180122762601       14.43513997464700      h
       -7.48482845956000        0.63432267913400        2.97006246678100      o
       -7.69395682384400        0.02850993257000        1.23489091311300      h
       -7.14852080983200        2.43053645237900        2.84967469085900      h
      -13.01255389753500        0.92434106257700       -3.05325964328100      o
      -12.15947571386600        0.83350865983900       -4.67369778191100      h
      -14.04410961839100        2.45140650601700       -3.02138632525500      h
       -0.52906326549300        4.38280856210600        3.53437411180500      o
        0.23222028645000        5.39390850147300        2.21561284700700      h
        0.84836675124700        3.58505863574000        4.44434339071900      h
       -4.49587270360000       -2.69296884563800       -5.93977414808000      o
       -5.72808530415700       -3.88559859072600       -6.59227863117200      h
       -4.40425784225900       -1.38413048247800       -7.22495373950900      h
        7.27922208732100       -6.23849869323600       -7.19703402882400      o
        6.47217160881000       -6.99805889561500       -5.72603411510900      h
        6.04295264690700       -5.07089694821700       -7.91530688639200      h
       -6.17926055874000       -8.89109472599000       -4.38934507654400      o
       -5.90291154404500      -10.30779221408700       -3.26517968761500      h
       -4.92388855654900       -9.00258835952200       -5.74699678062500      h
      -15.09948287347000       -6.05706539997600       -1.94571839878400      o
      -13.34920899700000       -5.53515131583700       -1.90766751674100      h
      -16.08138606617400       -4.49648881454200       -1.86355864460200      h
        3.81391356102500        0.24667747552100       10.60365098001400      o
        3.04632063025500        1.78503614951301        9.94339483030700      h
        4.01787438825300        0.55116580047300       12.40699845548900      h
        8.93094395269400       -6.91661672083200       -2.37244551249200      o
        9.63373621780300       -7.79001300471600       -0.91299271552200      h
        9.71861624874100       -5.24232384891200       -2.42432263321400      h
        2.41597588547200       -5.26082939127100        3.14459129895300      o
        2.37645212173300       -5.97608327273900        1.46426544235900      h
        0.74149015662500       -5.53427704036300        3.89661237427300      h
        0.12532627101200       12.60061520122800       10.71135764771900      o
       -1.34058564515800       13.39726898336500        9.91454753497900      h
        1.57590491681400       13.21182625742500        9.79206015390800      h
       -8.36651592908600        9.27731359185800       -0.45616399351700      o
       -9.71952311820800        9.58117627012200        0.74622289570800      h
       -8.87859936800800       10.10012653567200       -1.99161080750100      h
       -8.94657070600500        4.18208317587200       -0.80978190767300      o
       -8.35383050624700        5.89468703700500       -0.52572730109400      h
      -10.48971443803200        4.03571359056500        0.19387041536900      h
        1.40986483035900       -4.04994491373300        9.50732098484400      o
       -0.40571447514600       -3.99175729452199        9.87777273668200      h
        2.03017004018700       -2.32633030716400        9.70547861467100      h
       -7.06687661918800      -13.58625527351600        8.04383968351200      o
       -6.94858977727000      -11.74028569727300        8.26662253192800      h
       -8.78223596796300      -13.98122205402400        8.49560923101600      h
        4.60844083776400       -4.37258763897000       -1.48098023977800      o
        6.03877388741200       -5.46035903092300       -1.86988846232700      h
        4.31206671749300       -3.29042417544500       -2.93922213721000      h
        1.07639476874000        6.90432138788400       -0.78054187154600      o
        2.27412257246300        6.55912053798400       -2.12557343280400      h
        1.61092875702900        8.51369240790900       -0.03725214874100      h
       -4.79202708313700       -3.25379133298400      -13.60176853328900      o
       -2.95705395333900       -2.98783513448800      -13.69168916744500      h
       -5.50743722188700       -1.98182718962601      -14.74027089164800      h
        3.67570324866200       -8.18922505626900        7.64745139861100      o
        2.70829046055400       -8.89807061739600        6.22977377070200      h
        2.88332120734000       -6.56727183817400        8.03665740682100      h
       -8.10333761715300        9.36878641516100        5.26939252151500      o
       -7.74639119961400        9.64030156001000        7.05814367911400      h
       -8.52630015677500       11.01680111953400        4.57729076548000      h
      -10.69040231698500        5.07073051967500        6.09139125120400      o
       -9.71046187604500        6.56173560462500        5.64116065097000      h
      -11.59285541313700        4.53785656851500        4.59385229440900      h
      -12.46799576894100      -12.49128670684000        8.23542417601201      o
      -14.17807444824800      -12.37087252596600        7.60588989065800      h
      -12.13296418727400      -10.87061839524200        9.00465267630700      h
        3.66713430694300      -15.34356092965900        4.44645972882500      o
        2.88293599785400      -13.65500977782000        4.42623180312000      h
        4.49632570983900      -15.48595459298500        6.06462559747900      h
       11.06395410131600      -11.87681315576600       10.32233326787300      o
       12.55773269414500      -10.85425243272900       10.64665761809200      h
        9.64648228988500      -10.82087139307500       10.81476580021600      h
        4.35889825783500        2.57594071219200        0.12305795434200      o
        5.69613876813200        1.30285462795600        0.46251082406700      h
        4.58658149331700        3.17227946832000       -1.60228641722100      h
       10.57458567286100      -10.41470194637600       -5.88217782865400      o
        9.82789143490400       -9.11040544618300       -4.80638600267900      h
        9.27104477165200      -11.67379997432200       -6.14965201339200      h
      -17.43917483907000       10.24420924909000        0.08728754179600      o
      -15.73469440259000       10.48766948016600        0.73539833042000      h
      -17.28884034170300       10.07539605802400       -1.71369151047800      h
       14.01478387431100       -2.47735257501400        7.77039646620500      o
       12.53343499454200       -2.04306951757500        6.74746764515200      h
       14.93526537421500       -3.83825065120900        6.96278174670600      h
       -3.27498201358800        7.53675838187000      -11.79468288263200      o
       -3.19642002700600        6.24641332622600      -13.07271844844600      h
       -1.55209531944000        8.21578743292900      -11.67857870479900      h
      -16.04404797194000       -3.90385038143900        3.19083323251600      o
      -17.70972443487100       -3.97707138813900        2.40375200854200      h
      -14.91956143221300       -2.87561824482000        2.15538919378400      h
       -3.05136819257900        9.41292570943100        5.91079693541600      o
       -1.27519580886800        9.09809231730800        6.25900394151500      h
       -3.09964257685600        9.96750717047100        4.15981879399000      h
        5.21897646055300       -9.93486178827900        0.68582716026000      o
        5.06401918253300       -9.76600703968300       -1.14139815323899      h
        6.21774744553500      -11.43947168837100        1.01923524680600      h
       -1.89667955951100      -13.55581305307800        7.59040533941301      o
       -1.67952007121400      -14.16465418846600        5.86437962621400      h
       -3.61193571621000      -13.94280820249200        8.07782378366001      h
        7.94719610646200        0.00504996511000       -6.27614256289100      o
        8.35382938526100        1.78696088395800       -6.51110424624100      h
        8.38584261784000       -0.89817108070700       -7.81470085827200      h
        8.00431373865200        0.16895884962999      -15.31578713907700      o
        7.81833975178800        1.03812187791299      -16.88983473628500      h
        9.76537028575300       -0.43812225623600      -15.21770290847300      h
      -11.94174359230800       -7.33084265317800       10.47634082878000      o
      -12.01984174603400       -6.09122223619400        9.09365232266400      h
      -11.35830910874700       -6.35932142057699       11.91575101394201      h
       -2.64640521457800       -9.29680758938900       -7.88520961161500      o
       -1.71591807535300       -7.79333708651800       -7.21811654094900      h
       -3.14964788717500       -8.87831845571000       -9.61627463810500      h
        7.40785457523300       -1.05774819027600        1.09531931530800      o
        6.27271579791600       -2.43848338796700        0.61439981321200      h
        8.74095762467200       -1.12815550917700       -0.16782569417300      h
       -0.39950248825900      -12.68003538644100       -1.32625714207700      o
       -1.49628011018500      -13.28026769404300       -2.67455550282000      h
        1.29506782283100      -13.31407293918900       -1.71939294009000      h
       11.88386738349300      -14.00922947709400        5.72786716779900      o
       12.42029233833700      -15.67493792703800        6.17822004671900      h
       11.47978462150800      -13.14955578684499        7.32583639799600      h
      -13.18181508479800        5.51764737868700      -13.96505900612600      o
      -13.98946346900800        6.55073817816700      -12.61541148461300      h
      -13.66385393865900        6.24787635715900      -15.54495839692700      h
      -10.22189755187100      -10.91756440592300       -6.60946388191400      o
       -8.98493899416600       -9.87092766854700       -5.71185797553000      h
       -9.88700705487600      -12.63763244664000       -6.00503064870900      h
       -5.12177068285200        0.37364592745300      -10.03280023295000      o
       -6.63936058306800        1.28392814593000      -10.44653743889100      h
       -5.10159593365700       -1.12874587638200      -11.10245489498200      h
      -18.13358694098100        6.50030072531800        3.51916108961300      o
      -18.26610395881300        7.77801179268400        2.20310434050000      h
      -16.93122128093700        7.18053481247500        4.72368533334200      h
        3.59064553246300       -5.50352977336900       13.73478291206200      o
        2.86745193661600       -5.01928231043000       12.07424032790100      h
        2.69536038793500       -4.40535166552699       14.94816400368400      h
       -7.74964291908500       10.13985143843901       10.40339130294400      o
       -8.79523994474000        8.76994684030800       11.06831009216100      h
       -6.05057568894800        9.72011544298000       10.97071120421900      h
       10.60180829803600       -2.13103290757400       -2.71269028491500      o
       12.36115086521300       -1.91910896851500       -3.16036082181600      h
        9.62065433556200       -1.30200170562900       -4.05599603108400      h
        9.40969276948900        4.25551944068800        3.21955452488600      o
        9.98365022979300        2.79199355410700        4.20528362386500      h
        8.67668934885800        3.52966582672100        1.71688530096700      h
       -8.12413879481500       -5.29137780731500       -8.21234246932700      o
       -8.87499646186600       -3.94384039178100       -9.20957990239400      h
       -8.23627798367600       -6.80982764546600       -9.25379396990700      h
       10.85654174671100       -9.89461316572800        1.28222411900300      o
       10.88418259715100      -11.50670592742400        0.45115022062700      h
        9.67620277333900      -10.03036592313100        2.69107753250800      h
       -8.94570329118100        3.63372745325500      -11.73818152125400      o
       -8.15366920377500        4.97070223841400      -10.73872236384500      h
      -10.33425915354000        4.42844170401400      -12.63713225791300      h
       12.81353630879800        0.47742643476400       -9.07048652487400      o
       11.89655493813200        1.85179504482100       -9.86894405893400      h
       14.59023942752200        0.80192222148800       -9.30286854163000      h
      -11.26954348850900      -13.65560547858800        3.26509030527901      o
       -9.97124240410500      -14.93333765286900        3.25358746084400      h
      -11.86056399626800      -13.50295927663300        4.99464284614200      h
      -20.75419494480900       -4.88618305726100        1.71781363337500      o
      -20.27289863683900       -6.59451727574200        1.20079533368500      h
      -21.34468033131300       -5.00116837579200        3.45211133411100      h
      -17.54847721291000      -12.11621190468400       -3.43688663813700      o
      -16.03656216916800      -12.97056637789000       -2.81472919660199      h
      -16.95558671531000      -11.03370546327000       -4.78299269473499      h
      -14.43222706886500        8.57131197852300        6.63537742929500      o
      -13.82476318181200       10.02537220779300        7.59760560440600      h
      -13.46329707157100        7.10270761842600        7.17770716867200      h
      -12.77854402247000       10.17854331949200        2.29120249158100      o
      -13.39603957528300        9.59646392118200        3.97474529574500      h
      -12.21326019338000       11.88388949725500        2.58228180931300      h
       -7.49511774428900        6.91560229156500       -8.22577679755200      o
       -8.64441488491000        6.18768767066800       -6.95820203687500      h
       -6.25772059404100        7.87439581474100       -7.22751533427600      h
        0.22604680669800       13.82482725259200        4.32983927975300      o
        0.99718347893500       12.50566572342900        3.28076217315200      h
        1.28315837985900       13.98932580001600        5.79363056057999      h
        7.06619424821800       10.81801209674100        4.61784175400900      o
        7.05660203312600       12.63652746888600        4.46403667648200      h
        6.51724462744300       10.41083742071600        6.33797961480800      h
       -1.95129677076400        2.62307176162500      -13.50579008119100      o
       -1.02015896318000        1.07565441152900      -13.88617361997000      h
       -2.80799447504600        2.19339507332600      -11.92663011199700      h
        3.48034653888900        3.60378243312999      -14.66466244184400      o
        1.68124411563000        3.73529667922600      -14.43593956021500      h
        4.02802825975600        2.20377485873099      -13.59971614464300      h
       11.93312726646600       -4.07341323378100        2.42063533531300      o
       10.15012820675600       -4.59664174155900        2.51032236589300      h
       11.91028357208700       -2.27425512143100        2.05496715410600      h
       14.08781408105100        5.64136894091000       -9.21236985391200      o
       15.88450978789200        6.02939912761900       -8.91918372834100      h
       13.23814973474100        7.25677385929200       -9.50966404508801      h
       -1.26423865889500       13.78959088378100       -7.47231959419401      o
       -2.67990628678900       13.09642517216300       -8.42609489512101      h
       -1.61162535555700       15.55320908196200       -7.25742369182701      h
      -12.90013220125900       -7.76954814498300        3.28349163870000      o
      -13.83450078523800       -9.18229015094100        4.03488729239800      h
      -14.20355676904900       -6.50945508429400        2.91429950901500      h
       -1.28394499038000      -15.63489215900900        2.84682564836600      o
        0.37227570512000      -16.30027636108200        3.22945467309000      h
       -1.04248675973000      -14.50917605114000        1.40146937965600      h
       17.01375309589100       -6.11951754918600        5.39198527124900      o
       18.81740068705900       -6.25596373717900        5.49443170555000      h
       16.36085568926400       -7.77443855429500        4.87553757166400      h
       -2.23205878858100       -5.69362449833900        4.73448155047300      o
       -2.87741807820700       -7.04182558335900        3.67198732481400      h
       -2.11084326677200       -6.45622866390700        6.41761307298000      h
        9.23903454052400       13.02024945421900        0.33474270077300      o
        9.05445901832600       13.45429648847700       -1.45557034329100      h
       11.02256164465600       12.91478766453400        0.68063212844799      h
       -4.96134650684000       -6.91415687627999       13.72992371951100      o
       -4.23136516599400       -5.44776066416800       12.85206696844800      h
       -3.52566314244100       -7.87180282387800       14.31700167860600      h
      -13.88601879850200       -2.86203386460700       -6.89673371622200      o
      -12.85613746819000       -3.70180523611300       -5.62959510164900      h
      -12.80320499883200       -1.60407386043000       -7.64470543405400      h
      -10.44767356235200       14.47193421028700       -1.40191415972800      o
      -11.48743396513300       13.26498142966300       -2.29734690243501      h
       -8.93625228888300       14.67586864541400       -2.42312576300000      h
      -12.35370549293800       10.48490284181900       -4.19773106123300      o
      -11.84429035915100        8.69174036257700       -4.32035622222300      h
      -14.15197030858800       10.45546730806200       -4.51398905463200      h
        5.97821767473500       -2.48402824433500        6.85067133591500      o
        7.22793751133600       -3.52041352117100        7.75472099972700      h
        5.25560652133800       -1.50461425421000        8.22107393900500      h
      -14.12790544854500        0.92389470874100      -11.75222089758700      o
      -13.84155194064800        2.33123191612599      -12.88940976110700      h
      -12.73612021518100       -0.26688153701100      -11.93845282561800      h
        1.33051816209900       -7.82732924918200      -12.51939358089600      o
        1.98039761459100       -7.04888680458401      -14.02872904138000      h
       -0.45035211943900       -8.12932591604600      -12.77938634192300      h
        3.10415659981300       -4.34340502254400       -9.15218219203100      o
        2.55676086969400       -5.51403955869200      -10.45072287951300      h
        1.91522868405200       -4.54467099644500       -7.75940827635000      h
       -3.67447380864400       10.85243465658400        1.08969044758300      o
       -5.26228007794600       10.30588340492900        0.34961935854900      h
       -2.46333473910000       11.22839870651300       -0.26318163369300      h
      -10.17391843406100        0.78541346712400       -7.43062936529100      o
      -10.17878298266300        1.71857545447100       -9.00004836262200      h
       -8.67085803006700        1.35017163870600       -6.52139403647100      h
      -21.72630591892800        8.63374338647900       -3.20688465581500      o
      -21.80418032853500        6.87593669142200       -2.66502807509200      h
      -21.61520311341400        9.62918711643100       -1.69431272179000      h
       14.25804309807300       11.30725486465500        0.99985410351900      o
       13.63132006844000        9.57380419880500        0.60265372759999      h
       16.05681774836700       11.06123092458700        1.20357918951399      h
      -11.02632112574100        5.77218859952500       -4.96873514595100      o
      -12.39321104557700        4.78902647952000       -5.70249766609400      h
      -10.28620484844700        4.84542072801800       -3.51460091312300      h
        6.33209404236300       15.97933471442100        3.41047603047000      o
        4.92979101936500       16.79288198230600        2.57063280497000      h
        7.37407709299500       15.27015507506900        2.06589003087499      h
       15.06966359760100        3.90527788042100      -13.78779562239700      o
       14.61098058465300        4.39118469810999      -12.03592953673000      h
       16.81481141990100        4.33616977872399      -13.98143866329400      h
        2.23470103345000      -12.29551525607900       10.37607373869400      o
        0.81396915544000      -13.07002133198200        9.50405773464300      h
        2.54546156745300      -10.71474644734400        9.45580347084500      h
       11.29145443192300        8.48326671652500       -4.49974916949401      o
       12.88742427745300        9.04747149395600       -5.27870398985001      h
       11.72487625904400        7.76676760505500       -2.87195958911800      h
      -11.96146567144600       -1.74342028567100        1.10906639336700      o
      -12.01346537793400       -0.74693244698400       -0.43347991578500      h
      -11.94826670084000       -0.54336349298200        2.49514162494400      h
        7.17082442526000        5.61698214432001       13.63321780361500      o
        6.40309305449000        7.13363136541400       14.26515461170800      h
        8.95731424211200        5.97621395541401       13.33172396221300      h
       -9.02541258896900        0.65292660119200        7.94787282469400      o
       -8.34680235843800        0.05991012992500        6.35979431958200      h
       -9.68237885089800        2.32571029563900        7.52546823327200      h
       -9.43842339105800       14.10075176170600        3.56479040501500      o
       -7.71022533300100       14.78340252111400        3.68892663282600      h
       -9.89673376308700       14.50853260965900        1.82332298840700      h
      -13.18078080263700        4.96575822192400        1.61262819815800      o
      -14.52605678634000        4.63524790256500        0.39719576952300      h
      -13.06165740719800        6.78252514762300        1.68248477816300      h
       -2.47648427069600        0.76753876952300       14.42184443564300      o
       -4.26249218267600        0.88384128033000       14.03251805132400      h
       -1.81297544097000        2.45981799482500       14.44305191818000      h
        1.17605185736800       -2.19178089247399       16.52755590971500      o
       -0.35287377125800       -1.47344375417799       15.79984778881100      h
        2.33191594079500       -0.78777848881900       16.65059142016000      h
        6.48436534404400      -14.34123646186200        8.69691579169500      o
        4.99418203779200      -13.67430118822600        9.59585939671700      h
        7.84909604902500      -14.38323821397800        9.88999962961400      h
        1.52689680486300        8.81957520812600      -11.06275105358800      o
        2.76125448965800        9.35113318682700      -12.28812438501200      h
        2.12808279119900        7.15219620831800      -10.48368389639400      h
        9.29642435825800        3.34794074692500       -1.93045682745300      o
        8.73939111442500        5.08089852028000       -1.74329817989500      h
       10.73692175321400        3.42406615601700       -3.07525592048300      h
       13.71224046929000        3.57962590531600       -4.51910418788600      o
       14.34452206941000        1.85416989838100       -4.63539129289100      h
       13.56149159376200        4.17555057392300       -6.25655298510000      h
        4.07741830251700       14.33422022480700       -7.45383680583700      o
        4.99375482744700       12.97580043632300       -8.28527199127900      h
        2.30467452550800       13.99740996221200       -7.73482210838000      h
        4.33723795444300       14.40407815747800        7.92716969017100      o
        5.59567232273000       14.49196882572000        9.22672643548600      h
        5.03765993459400       15.27243971122300        6.46357033331299      h
        6.03851911455900        9.38517804922301        9.39884783427800      o
        7.67601129024300       10.08818621042001        9.94989534792199      h
        6.31774931126100        7.55093500843200        9.14045235617299      h
       14.49334081494700      -10.95903670747300       -2.66220518640600      o
       13.10527977921800      -11.19172180603500       -3.84634441037800      h
       14.27795712725800       -9.22175073377100       -2.04566202259000      h
        7.90738523817100      -10.45167236721400        5.61027748150000      o
        7.52471739242900      -11.93779516187100        6.62685397479100      h
        6.57439663696100       -9.23702655061200        5.93807825377800      h
       16.27630692955300        1.99184113032400        7.31131276521600      o
       15.32086168479700        0.38970244450800        7.25240660209000      h
       18.00934894292300        1.39084070543800        7.39455961070600      h
        3.05251434916200       11.00731589581200        1.31869416006299      o
        3.50522774844900       12.20205695309000        0.00608820870300      h
        4.54278394445700       10.70693520768400        2.35520909515300      h
        9.51412299519400       13.23880648083800       -4.67583964038800      o
        8.14405045693000       13.59777895633700       -5.80647568472600      h
        9.84609083183200       11.41431877099200       -4.75363735697900      h
      -19.19212258610700       -0.31124166673401      -11.41563981094000      o
      -17.41623104363900        0.04942665639100      -11.69474467119000      h
      -19.25481136094200       -1.99005106360801      -10.71199895494400      h
       -4.10757773586100       13.73033570282300        8.14368083541599      o
       -3.76442342760500       12.08387473207000        7.29825291302200      h
       -5.57496150458200       13.46737716110500        9.17214707997799      h
      -17.19289896206000        8.96442486701000       -5.29030915160600      o
      -19.01355793028600        8.92508915953800       -4.89906318177800      h
      -17.02065620355600        8.81926829452200       -7.10768621463400      h
       -6.68215338315900       -4.35235161012000        7.11889670164600      o
       -6.55968736109300       -6.12555281268100        7.66144916091100      h
       -8.43396326308500       -3.88666787798100        7.43118131587900      h
      -16.21875070406500        4.78702378178500       -2.35270677825400      o
      -16.36428264377800        6.22676993527700       -3.48453393745600      h
      -17.95774927894700        4.23224721731200       -2.04249165487600      h
       -4.11346944481300       -8.20594418777601      -12.56509054943100      o
       -5.75912333099900       -9.00086164681401      -12.48480037974400      h
       -4.45329768875600       -6.43619417527500      -12.95337633083500      h
        7.46249288735500       -5.97473973938300        3.20272551091900      o
        6.53826842313700       -7.19574014367100        2.19660001981200      h
        6.21730284385200       -4.98362996626100        4.09548233648600      h
      -17.86131499471500        1.50304127788900        2.42572977285500      o
      -17.89634752483500        3.34272747037500        2.58961962481200      h
      -19.39344152505700        0.93920621778000        3.28620736537300      h
       11.94066684706000       -7.46732732733100        6.34699052827800      o
       12.10174743109700       -6.44653126213300        4.83358510567900      h
       10.57048205113700       -8.67269755828100        6.05389039770900      h
        9.36522957411300       -4.78812811136300        9.60692155554800      o
        8.55261994345700       -6.10839127214200       10.58543903700600      h
       10.42322954486000       -5.67062575383500        8.36891108340500      h
       14.27145760061600        1.84793834187100       12.33009542341300      o
       15.16601053926600        1.95409912493200       10.73313074960900      h
       14.24399936535400        0.07064635317100       12.80823973785300      h
       21.79366210955500       -3.68935465537600        3.44602103442600      o
       22.74535778181400       -2.62195516848200        2.30371377560700      h
       21.12792831196100       -2.58275168967000        4.75261143156500      h
       14.47337167965200       14.27537755987500       -3.34583779488201      o
       12.72769639893400       14.42137214002700       -3.87906940029900      h
       14.45195072441300       13.40819119306100       -1.72774083773001      h
        4.24116220186800        4.64358521207100       -4.40334542020900      o
        3.29985671039600        4.56202625940500       -5.98470338880400      h
        5.97223130884300        4.85618263490800       -4.97917587501800      h
       -2.92838870003600        8.39521272002500       11.36130602380800      o
       -1.73799486924300        9.74232766502500       10.99166396360300      h
       -2.11265159504400        7.32940743976800       12.61412342321700      h
       14.65427142919900       -8.07583067193800       10.61766848069000      o
       13.98875067326200       -7.79303328963900        8.92177045041600      h
       13.92846309420000       -6.77004328776300       11.67499501282400      h
        8.95326520096500       -2.42606859448200      -10.64985436638000      o
        8.95241057486100       -4.06756836886800      -11.47759119770200      h
       10.66189475205300       -1.77238915368400      -10.60898298861100      h
        4.17914297092100        1.98948504816700       15.39076437165900      o
        2.67328069860700        3.05000234968500       15.29937657355100      h
        5.54396624960800        3.14443380843701       14.92299164404800      h
        4.55502673584300       14.55592482602100       -2.28881549142900      o
        4.35689033255100       15.02134040321400       -4.05112613531401      h
        3.52285903120600       15.72317726219000       -1.30148756448801      h
       -4.72652549657900        9.50838483951500       -4.94801138507000      o
       -4.73433041812900        8.30918298133200       -3.52237624477700      h
       -2.95360077944400        9.52764580322300       -5.46908724781600      h
        4.87667881439200        6.44792241696100        3.17484387065300      o
        6.35869771199200        5.95806075302600        4.13132840817800      h
        4.40448608676000        4.92040657850600        2.22115286170800      h
        7.64930019366300        8.17747471008100       -0.61436224073600      o
        8.33051064533600        9.81668903327400       -0.13305273208500      h
        6.57212645305300        7.65445473734100        0.80339283645700      h
       15.69033902722900       -1.06381629777500       -3.90617768609300      o
       16.36950802515600       -2.20629071551600       -5.17610723351900      h
       17.11694685255400       -0.51480564357600       -2.86832569543900      h
        4.66360088810300        9.68025734382500       -4.28288095901900      o
        5.79970248154700        8.91479014026400       -3.02322508983100      h
        4.46432364100500       11.41811786281200       -3.75188062635200      h
      -14.53595061341100        3.58384622253000        9.36335902056700      o
      -14.38268532079400        2.12243639872200       10.45345355297400      h
      -16.34092234783500        3.79956006613000        9.04833434150200      h
       -5.80723410563800        5.12109602290900        8.59297577110600      o
       -5.85467443706900        5.21245661406500        6.76506874520600      h
       -4.69729795248600        6.46196816431600        9.18740613835100      h
      -11.88193691297300       12.67970102437900        8.19138261515600      o
      -10.49350502419500       12.14076170128700        9.24532700309200      h
      -11.15674221847700       13.57300439554000        6.77240041550500      h
       12.45253225941700       -5.31024822967600       -6.53940987430200      o
       12.85588490707300       -5.36244136000900       -4.74843205620700      h
       10.64316134502800       -5.57142343456000       -6.71813209093700      h
      -13.62253435153300       -6.68479247993400      -11.14336155261100      o
      -13.88004412755800       -7.19363978962400       -9.37198644552500      h
      -15.28110831935600       -6.25822738376901      -11.74266137645400      h
       -6.43948769945300        1.05838813311800      -15.65563686599100      o
       -4.79779510593500        1.85150151538999      -15.41135819309400      h
       -7.55592499817500        1.92644219462500      -14.49115797171600      h
      -16.37101795133800      -10.83129873456800        5.20522958186100      o
      -17.39335708189700      -10.50241587308600        3.71406973421300      h
      -16.98850660003800       -9.73428500858100        6.56517277575400      h
      -18.28056298016300       -9.19061427904100        0.63023271351500      o
      -18.48512526634300      -10.46658372319300       -0.69233372707700      h
      -16.92001453444900       -8.14135791284800       -0.03506359324700      h
       -0.53477843643500       12.64608764386400       -2.36365533280900      o
       -1.10061158126900       14.34105983579100       -1.92322840762300      h
       -0.62163261380500       12.56484665875500       -4.18640138240300      h
       -9.35122314723000       -3.94246690683600       13.56621286126300      o
       -7.99958915279200       -5.07242165167900       14.05190839077200      h
       -8.56960662293000       -2.27765299287400       13.50167986489100      h
      -23.08592216661000       -0.83284212817500       -0.48209708085300      o
      -22.16313574944600       -2.24981875638400        0.25229226082000      h
      -23.37551658361100       -1.34690818611500       -2.20510425277900      h
       14.41103897246100       -4.25220185746501      -11.02242711903400      o
       14.07625270405600       -6.01606237161400      -11.39236436690400      h
       13.48873307518900       -3.98646437528300       -9.43969950390500      h
        7.79328843571200      -14.36280228632700        1.74498171406701      o
[...]
   385   8 o      387   1 h                                       0.9716660
   388   8 o      389   1 h                                       0.9693178
   388   8 o      390   1 h                                       0.9736711
   391   8 o      392   1 h                                       0.9590085
   391   8 o      393   1 h                                       0.9821921
   394   8 o      395   1 h                                       0.9702537
   394   8 o      396   1 h                                       0.9638352
   397   8 o      398   1 h                                       0.9961102
   397   8 o      399   1 h                                       0.9583961
   400   8 o      401   1 h                                       0.9856656
   400   8 o      402   1 h                                       0.9690733
   403   8 o      404   1 h                                       0.9834163
   403   8 o      405   1 h                                       0.9733440
   406   8 o      407   1 h                                       0.9721724
   406   8 o      408   1 h                                       0.9797823
   409   8 o      410   1 h                                       0.9680498
   409   8 o      411   1 h                                       0.9755055
   412   8 o      413   1 h                                       0.9696112
   412   8 o      414   1 h                                       0.9656306
   415   8 o      416   1 h                                       0.9775513
   415   8 o      417   1 h                                       0.9765784
   418   8 o      419   1 h                                       0.9697623
   418   8 o      420   1 h                                       0.9780810
   421   8 o      422   1 h                                       0.9701315
   421   8 o      423   1 h                                       0.9801694
   424   8 o      425   1 h                                       0.9702565
   424   8 o      426   1 h                                       0.9740517
   427   8 o      428   1 h                                       0.9685436
   427   8 o      429   1 h                                       0.9721535
   430   8 o      431   1 h                                       0.9689917
   430   8 o      432   1 h                                       0.9715425
   433   8 o      434   1 h                                       0.9748073
   433   8 o      435   1 h                                       0.9719272
   436   8 o      437   1 h                                       0.9712084
   436   8 o      438   1 h                                       0.9715728
   439   8 o      440   1 h                                       0.9756057
   439   8 o      441   1 h                                       0.9685271
   442   8 o      443   1 h                                       0.9728331
   442   8 o      444   1 h                                       0.9683195
   445   8 o      446   1 h                                       0.9758508
   445   8 o      447   1 h                                       0.9779706
   448   8 o      449   1 h                                       0.9702301
   448   8 o      450   1 h                                       0.9761370
   451   8 o      452   1 h                                       0.9858306
   451   8 o      453   1 h                                       0.9779266
   454   8 o      455   1 h                                       0.9687279
   454   8 o      456   1 h                                       0.9851509
   457   8 o      458   1 h                                       0.9732734
   457   8 o      459   1 h                                       0.9820313
   460   8 o      461   1 h                                       0.9727711
   460   8 o      462   1 h                                       0.9777270
   463   8 o      464   1 h                                       0.9848101
   463   8 o      465   1 h                                       0.9673719
   466   8 o      467   1 h                                       0.9681941
   466   8 o      468   1 h                                       0.9762849
   469   8 o      470   1 h                                       0.9688196
   469   8 o      471   1 h                                       0.9733473
   472   8 o      473   1 h                                       0.9655125
   472   8 o      474   1 h                                       0.9667315
   475   8 o      476   1 h                                       0.9718754
   475   8 o      477   1 h                                       0.9720134
   478   8 o      479   1 h                                       0.9847542
   478   8 o      480   1 h                                       0.9601302
   481   8 o      482   1 h                                       0.9734353
   481   8 o      483   1 h                                       0.9694148
   484   8 o      485   1 h                                       0.9724342
   484   8 o      486   1 h                                       0.9806465
   487   8 o      488   1 h                                       0.9784952
   487   8 o      489   1 h                                       0.9749867
   490   8 o      491   1 h                                       0.9738981
   490   8 o      492   1 h                                       0.9666067
   493   8 o      494   1 h                                       0.9670506
   493   8 o      495   1 h                                       0.9738435
   496   8 o      497   1 h                                       0.9755660
   496   8 o      498   1 h                                       0.9637541
   499   8 o      500   1 h                                       0.9700181
   499   8 o      501   1 h                                       0.9795200
   502   8 o      503   1 h                                       0.9672701
   502   8 o      504   1 h                                       0.9845000
   505   8 o      506   1 h                                       0.9647419
   505   8 o      507   1 h                                       0.9844908
   508   8 o      509   1 h                                       0.9820336
   508   8 o      510   1 h                                       0.9739207
   511   8 o      512   1 h                                       0.9807692
   511   8 o      513   1 h                                       0.9850671
   514   8 o      515   1 h                                       0.9824504
   514   8 o      516   1 h                                       0.9742300
   517   8 o      518   1 h                                       0.9567351
   517   8 o      519   1 h                                       0.9863001
   520   8 o      521   1 h                                       0.9728992
   520   8 o      522   1 h                                       0.9674610
   523   8 o      524   1 h                                       0.9661361
   523   8 o      525   1 h                                       0.9723370
   526   8 o      527   1 h                                       0.9620596
   526   8 o      528   1 h                                       0.9653889
   529   8 o      530   1 h                                       0.9837999
   529   8 o      531   1 h                                       0.9744924
   532   8 o      533   1 h                                       0.9849677
   532   8 o      534   1 h                                       0.9611228
   535   8 o      536   1 h                                       0.9750296
   535   8 o      537   1 h                                       0.9653990
   538   8 o      539   1 h                                       0.9675148
   538   8 o      540   1 h                                       0.9796388
   541   8 o      542   1 h                                       0.9836962
   541   8 o      543   1 h                                       0.9762813
   544   8 o      545   1 h                                       0.9793188
   544   8 o      546   1 h                                       0.9767312
   547   8 o      548   1 h                                       0.9821824
   547   8 o      549   1 h                                       0.9738471
   550   8 o      551   1 h                                       0.9558327
   550   8 o      552   1 h                                       0.9882827
   553   8 o      554   1 h                                       0.9561047
   553   8 o      555   1 h                                       0.9905090
   556   8 o      557   1 h                                       0.9658445
   556   8 o      558   1 h                                       0.9920795
   559   8 o      560   1 h                                       0.9894143
   559   8 o      561   1 h                                       0.9614652
   562   8 o      563   1 h                                       0.9725227
   562   8 o      564   1 h                                       0.9748102
   565   8 o      566   1 h                                       0.9733335
   565   8 o      567   1 h                                       0.9875573
   568   8 o      569   1 h                                       0.9780414
   568   8 o      570   1 h                                       0.9671408
   571   8 o      572   1 h                                       0.9715200
   571   8 o      573   1 h                                       0.9743189
   574   8 o      575   1 h                                       0.9637682
   574   8 o      576   1 h                                       0.9792216
   577   8 o      578   1 h                                       0.9582166
   577   8 o      579   1 h                                       0.9890003
   580   8 o      581   1 h                                       0.9798779
   580   8 o      582   1 h                                       0.9662873
   583   8 o      584   1 h                                       0.9646053
   583   8 o      585   1 h                                       0.9921960
   586   8 o      587   1 h                                       0.9687434
   586   8 o      588   1 h                                       0.9692696
   589   8 o      590   1 h                                       0.9761790
   589   8 o      591   1 h                                       0.9827291
   592   8 o      593   1 h                                       0.9583199
   592   8 o      594   1 h                                       0.9737255
   595   8 o      596   1 h                                       0.9784185
   595   8 o      597   1 h                                       0.9574556
   598   8 o      599   1 h                                       0.9777884
   598   8 o      600   1 h                                       0.9616884
   601   8 o      602   1 h                                       0.9584545
   601   8 o      603   1 h                                       0.9850327
   604   8 o      605   1 h                                       0.9788130
   604   8 o      606   1 h                                       0.9690411
   607   8 o      608   1 h                                       0.9723826
   607   8 o      609   1 h                                       0.9814233
   610   8 o      611   1 h                                       0.9741110
   610   8 o      612   1 h                                       0.9802273
   613   8 o      614   1 h                                       0.9757582
   613   8 o      615   1 h                                       0.9693631
   616   8 o      617   1 h                                       0.9671383
   616   8 o      618   1 h                                       0.9855788
   619   8 o      620   1 h                                       0.9615731
   619   8 o      621   1 h                                       0.9720160
   622   8 o      623   1 h                                       0.9793969
   622   8 o      624   1 h                                       0.9809605
   625   8 o      626   1 h                                       0.9686374
   625   8 o      627   1 h                                       0.9711797
   628   8 o      629   1 h                                       0.9644621
   628   8 o      630   1 h                                       0.9699799
   631   8 o      632   1 h                                       0.9794001
   631   8 o      633   1 h                                       0.9773809
   634   8 o      635   1 h                                       0.9801778
   634   8 o      636   1 h                                       0.9745050
   637   8 o      638   1 h                                       0.9671012
   637   8 o      639   1 h                                       0.9767082
   640   8 o      641   1 h                                       0.9684897
   640   8 o      642   1 h                                       0.9635201
   643   8 o      644   1 h                                       0.9765961
   643   8 o      645   1 h                                       0.9710626
   646   8 o      647   1 h                                       0.9749111
   646   8 o      648   1 h                                       0.9879429
   649   8 o      650   1 h                                       0.9800673
   649   8 o      651   1 h                                       0.9725784
   652   8 o      653   1 h                                       0.9769420
   652   8 o      654   1 h                                       0.9642224
   655   8 o      656   1 h                                       0.9617301
   655   8 o      657   1 h                                       0.9817629
   658   8 o      659   1 h                                       0.9843399
   658   8 o      660   1 h                                       0.9665802
   661   8 o      662   1 h                                       0.9769022
   661   8 o      663   1 h                                       0.9745418
   664   8 o      665   1 h                                       0.9879340
   664   8 o      666   1 h                                       0.9653189
   667   8 o      668   1 h                                       0.9826711
   667   8 o      669   1 h                                       0.9679929
   670   8 o      671   1 h                                       0.9733018
   670   8 o      672   1 h                                       0.9754471
   673   8 o      674   1 h                                       0.9675772
   673   8 o      675   1 h                                       0.9685844
   676   8 o      677   1 h                                       0.9762721
   676   8 o      678   1 h                                       0.9646030
   679   8 o      680   1 h                                       0.9601132
   679   8 o      681   1 h                                       0.9773509
   682   8 o      683   1 h                                       0.9724016
   682   8 o      684   1 h                                       0.9727545
   685   8 o      686   1 h                                       0.9833015
   685   8 o      687   1 h                                       0.9693829
   688   8 o      689   1 h                                       0.9645116
   688   8 o      690   1 h                                       0.9799199
   691   8 o      692   1 h                                       0.9768525
   691   8 o      693   1 h                                       0.9698968
   694   8 o      695   1 h                                       0.9652468
   694   8 o      696   1 h                                       0.9786018
   697   8 o      698   1 h                                       0.9782737
   697   8 o      699   1 h                                       0.9735402
   700   8 o      701   1 h                                       0.9842922
   700   8 o      702   1 h                                       0.9847397
   703   8 o      704   1 h                                       0.9735408
   703   8 o      705   1 h                                       0.9712683
   706   8 o      707   1 h                                       0.9598333
   706   8 o      708   1 h                                       0.9713314
   709   8 o      710   1 h                                       0.9814758
   709   8 o      711   1 h                                       0.9725013
   712   8 o      713   1 h                                       0.9677151
   712   8 o      714   1 h                                       0.9868120
   715   8 o      716   1 h                                       0.9630961
   715   8 o      717   1 h                                       0.9659681
   718   8 o      719   1 h                                       0.9582789
   718   8 o      720   1 h                                       0.9676732
   721   8 o      722   1 h                                       0.9720225
   721   8 o      723   1 h                                       0.9699507
   724   8 o      725   1 h                                       0.9866916
   724   8 o      726   1 h                                       0.9774630
   727   8 o      728   1 h                                       0.9617603
   727   8 o      729   1 h                                       0.9849523
   730   8 o      731   1 h                                       0.9709894
   730   8 o      732   1 h                                       0.9731547
   733   8 o      734   1 h                                       0.9664631
   733   8 o      735   1 h                                       0.9728356
   736   8 o      737   1 h                                       0.9631922
   736   8 o      738   1 h                                       0.9867903
   739   8 o      740   1 h                                       0.9709426
   739   8 o      741   1 h                                       0.9623546
   742   8 o      743   1 h                                       0.9837700
   742   8 o      744   1 h                                       0.9556952 (min)
   745   8 o      746   1 h                                       0.9746719
   745   8 o      747   1 h                                       0.9779823
   748   8 o      749   1 h                                       0.9774745
   748   8 o      750   1 h                                       0.9905269
   751   8 o      752   1 h                                       0.9720443
   751   8 o      753   1 h                                       0.9567848
   754   8 o      755   1 h                                       0.9586003
   754   8 o      756   1 h                                       0.9607089

 * 1 distinct bonds (by element types)

   Z      Z             #   av. dist./Å        max./Å        min./Å
   1 H    8 O         504     0.9737231     1.0000250     0.9556952


optimized geometry written to: xtbopt.coord


           -------------------------------------------------
          | TOTAL ENERGY            -1283.304888659279 Eh   |
          | GRADIENT NORM               0.000763238571 Eh/α |
          | HOMO-LUMO GAP               5.857586131595 eV   |
           -------------------------------------------------

------------------------------------------------------------------------
 * finished run on 2022/11/24 at 12:12:47.938     
------------------------------------------------------------------------
 total:
 * wall-time:     0 d,  0 h,  8 min,  3.941 sec
 *  cpu-time:     0 d,  0 h, 11 min, 53.143 sec
 * ratio c/w:     1.474 speedup
 SCF:
 * wall-time:     0 d,  0 h,  0 min, 21.399 sec
 *  cpu-time:     0 d,  0 h,  0 min, 34.503 sec
 * ratio c/w:     1.612 speedup
 ANC optimizer:
 * wall-time:     0 d,  0 h,  7 min, 41.481 sec
 *  cpu-time:     0 d,  0 h, 11 min, 16.903 sec
 * ratio c/w:     1.467 speedup

