      -----------------------------------------------------------      
     |                   =====================                   |     
     |                           x T B                           |     
     |                   =====================                   |     
     |                         S. Grimme                         |     
     |          Mulliken Center for Theoretical Chemistry        |     
     |                    University of Bonn                     |     
      -----------------------------------------------------------      

   * xtb version 6.5.1 (579679a) compiled by 'ehlert@majestix' on 2022-07-11

   xtb is free software: you can redistribute it and/or modify it under
   the terms of the GNU Lesser General Public License as published by
   the Free Software Foundation, either version 3 of the License, or
   (at your option) any later version.
   
   xtb is distributed in the hope that it will be useful,
   but WITHOUT ANY WARRANTY; without even the implied warranty of
   MERCHANTABILITY or FITNESS FOR A PARTICULAR PURPOSE.  See the
   GNU Lesser General Public License for more details.
   
   Cite this work as:
   * C. Bannwarth, E. Caldeweyher, S. Ehlert, A. Hansen, P. Pracht,
     J. Seibert, S. Spicher, S. Grimme, WIREs Comput. Mol. Sci., 2020, 11,
     e01493. DOI: 10.1002/wcms.1493
   
   for GFN2-xTB:
   * C. Bannwarth, S. Ehlert and S. Grimme., J. Chem. Theory Comput., 2019,
     15, 1652-1671. DOI: 10.1021/acs.jctc.8b01176
   for GFN1-xTB:
   * S. Grimme, C. Bannwarth, P. Shushkov, J. Chem. Theory Comput., 2017,
     13, 1989-2009. DOI: 10.1021/acs.jctc.7b00118
   for GFN0-xTB:
   * P. Pracht, E. Caldeweyher, S. Ehlert, S. Grimme, ChemRxiv, 2019, preprint.
     DOI: 10.26434/chemrxiv.8326202.v1
   for GFN-FF:
   * S. Spicher and S. Grimme, Angew. Chem. Int. Ed., 2020, 59, 15665-15673.
     DOI: 10.1002/anie.202004239
   
   for ALPB and GBSA implicit solvation:
   * S. Ehlert, M. Stahn, S. Spicher, S. Grimme, J. Chem. Theory Comput.,
     2021, 17, 4250-4261. DOI: 10.1021/acs.jctc.1c00471
   
   for DFT-D4:
   * E. Caldeweyher, C. Bannwarth and S. Grimme, J. Chem. Phys., 2017,
     147, 034112. DOI: 10.1063/1.4993215
   * E. Caldeweyher, S. Ehlert, A. Hansen, H. Neugebauer, S. Spicher,
     C. Bannwarth and S. Grimme, J. Chem. Phys., 2019, 150, 154122.
     DOI: 10.1063/1.5090222
   * E. Caldeweyher, J.-M. Mewes, S. Ehlert and S. Grimme, Phys. Chem. Chem. Phys.
     2020, 22, 8499-8512. DOI: 10.1039/D0CP00502A
   
   for sTDA-xTB:
   * S. Grimme and C. Bannwarth, J. Chem. Phys., 2016, 145, 054103.
     DOI: 10.1063/1.4959605
   
   in the mass-spec context:
   * V. Asgeirsson, C. Bauer and S. Grimme, Chem. Sci., 2017, 8, 4879.
     DOI: 10.1039/c7sc00601b
   * J. Koopman and S. Grimme, ACS Omega 2019, 4, 12, 15120-15133.
     DOI: 10.1021/acsomega.9b02011
   
   for metadynamics refer to:
   * S. Grimme, J. Chem. Theory Comput., 2019, 155, 2847-2862
     DOI: 10.1021/acs.jctc.9b00143
   
   for SPH calculations refer to:
   * S. Spicher and S. Grimme, J. Chem. Theory Comput., 2021, 17, 1701-1714
     DOI: 10.1021/acs.jctc.0c01306
   
   with help from (in alphabetical order)
   P. Atkinson, C. Bannwarth, F. Bohle, G. Brandenburg, E. Caldeweyher
   M. Checinski, S. Dohm, S. Ehlert, S. Ehrlich, I. Gerasimov, C. Hölzer
   A. Katbashev, J. Koopman, C. Lavigne, S. Lehtola, F. März, M. Müller,
   F. Musil, H. Neugebauer, J. Pisarek, C. Plett, P. Pracht, F. Pultar,
   J. Seibert, P. Shushkov, S. Spicher, M. Stahn, M. Steiner, T. Strunk,
   J. Stückrath, T. Rose, and J. Unsleber
   
 * started run on 2022/11/24 at 12:21:16.683     

           -------------------------------------------------
          |                Calculation Setup                |
           -------------------------------------------------

          program call               : xtb xtbopt.coord --gfn2 --sp --gbsa water
          hostname                   : cn0430
          coordinate file            : xtbopt.coord
          omp threads                :                     2

   ID    Z sym.   atoms
    1    8 o      1, 4, 7, 10, 13, 16, 19, 22, 25, 28, 31, 34, 37, 40, 43,
                  46, 49, 52, 55, 58, 61, 64, 67, 70, 73, 76, 79, 82, 85, 88,
                  91, 94, 97, 100, 103, 106, 109, 112, 115, 118, 121, 124,
                  127, 130, 133, 136, 139, 142, 145, 148, 151, 154, 157, 160,
                  163, 166, 169, 172, 175, 178, 181, 184, 187, 190, 193, 196,
                  199, 202, 205, 208, 211, 214, 217, 220, 223, 226, 229, 232,
                  235, 238, 241, 244, 247, 250, 253, 256, 259, 262, 265, 268,
                  271, 274, 277, 280, 283, 286, 289, 292, 295, 298, 301, 304,
                  307, 310, 313, 316, 319, 322, 325, 328, 331, 334, 337, 340,
                  343, 346, 349, 352, 355, 358, 361, 364, 367, 370, 373, 376,
                  379, 382, 385, 388, 391, 394, 397, 400, 403, 406, 409, 412,
                  415, 418, 421, 424, 427, 430, 433, 436, 439, 442, 445, 448,
                  451, 454, 457, 460, 463, 466, 469, 472, 475, 478, 481, 484,
                  487, 490, 493, 496, 499, 502, 505, 508, 511, 514, 517, 520,
                  523, 526, 529, 532, 535, 538, 541, 544, 547, 550, 553, 556,
                  559, 562, 565, 568, 571, 574, 577, 580, 583, 586, 589, 592,
                  595, 598, 601, 604, 607, 610, 613, 616, 619, 622, 625, 628,
                  631, 634, 637, 640, 643, 646, 649, 652, 655, 658, 661, 664,
                  667, 670, 673, 676, 679, 682, 685, 688, 691, 694, 697, 700,
                  703, 706, 709, 712, 715, 718, 721, 724, 727, 730, 733, 736,
                  739, 742, 745, 748, 751, 754
    2    1 h      2, 3, 5, 6, 8, 9, 11, 12, 14, 15, 17, 18, 20, 21, 23, 24,
                  26, 27, 29, 30, 32, 33, 35, 36, 38, 39, 41, 42, 44, 45, 47,
                  48, 50, 51, 53, 54, 56, 57, 59, 60, 62, 63, 65, 66, 68, 69,
                  71, 72, 74, 75, 77, 78, 80, 81, 83, 84, 86, 87, 89, 90, 92,
                  93, 95, 96, 98, 99, 101, 102, 104, 105, 107, 108, 110, 111,
                  113, 114, 116, 117, 119, 120, 122, 123, 125, 126, 128, 129,
                  131, 132, 134, 135, 137, 138, 140, 141, 143, 144, 146, 147,
                  149, 150, 152, 153, 155, 156, 158, 159, 161, 162, 164, 165,
                  167, 168, 170, 171, 173, 174, 176, 177, 179, 180, 182, 183,
                  185, 186, 188, 189, 191, 192, 194, 195, 197, 198, 200, 201,
                  203, 204, 206, 207, 209, 210, 212, 213, 215, 216, 218, 219,
                  221, 222, 224, 225, 227, 228, 230, 231, 233, 234, 236, 237,
                  239, 240, 242, 243, 245, 246, 248, 249, 251, 252, 254, 255,
                  257, 258, 260, 261, 263, 264, 266, 267, 269, 270, 272, 273,
                  275, 276, 278, 279, 281, 282, 284, 285, 287, 288, 290, 291,
                  293, 294, 296, 297, 299, 300, 302, 303, 305, 306, 308, 309,
                  311, 312, 314, 315, 317, 318, 320, 321, 323, 324, 326, 327,
                  329, 330, 332, 333, 335, 336, 338, 339, 341, 342, 344, 345,
                  347, 348, 350, 351, 353, 354, 356, 357, 359, 360, 362, 363,
                  365, 366, 368, 369, 371, 372, 374, 375, 377, 378, 380, 381,
                  383, 384, 386, 387, 389, 390, 392, 393, 395, 396, 398, 399,
                  401, 402, 404, 405, 407, 408, 410, 411, 413, 414, 416, 417,
                  419, 420, 422, 423, 425, 426, 428, 429, 431, 432, 434, 435,
                  437, 438, 440, 441, 443, 444, 446, 447, 449, 450, 452, 453,
                  455, 456, 458, 459, 461, 462, 464, 465, 467, 468, 470, 471,
                  473, 474, 476, 477, 479, 480, 482, 483, 485, 486, 488, 489,
                  491, 492, 494, 495, 497, 498, 500, 501, 503, 504, 506, 507,
                  509, 510, 512, 513, 515, 516, 518, 519, 521, 522, 524, 525,
                  527, 528, 530, 531, 533, 534, 536, 537, 539, 540, 542, 543,
                  545, 546, 548, 549, 551, 552, 554, 555, 557, 558, 560, 561,
                  563, 564, 566, 567, 569, 570, 572, 573, 575, 576, 578, 579,
                  581, 582, 584, 585, 587, 588, 590, 591, 593, 594, 596, 597,
                  599, 600, 602, 603, 605, 606, 608, 609, 611, 612, 614, 615,
                  617, 618, 620, 621, 623, 624, 626, 627, 629, 630, 632, 633,
                  635, 636, 638, 639, 641, 642, 644, 645, 647, 648, 650, 651,
                  653, 654, 656, 657, 659, 660, 662, 663, 665, 666, 668, 669,
                  671, 672, 674, 675, 677, 678, 680, 681, 683, 684, 686, 687,
                  689, 690, 692, 693, 695, 696, 698, 699, 701, 702, 704, 705,
                  707, 708, 710, 711, 713, 714, 716, 717, 719, 720, 722, 723,
                  725, 726, 728, 729, 731, 732, 734, 735, 737, 738, 740, 741,
                  743, 744, 746, 747, 749, 750, 752, 753, 755, 756

molecular fragmentation (1/2 indicates fragments):
111222222222222222222222222222222222222222222222222222222222222222222222
222222222222222222222222222222222222222222222222222222222222222222222222
222222222222222222222222222222222222222222222222222222222222222222222222
222222222222222222222222222222222222222222222222222222222222222222222222
222222222222222222222222222222222222222222222222222222222222222222222222
222222222222222222222222222222222222222222222222222222222222222222222222
222222222222222222222222222222222222222222222222222222222222222222222222
222222222222222222222222222222222222222222222222222222222222222222222222
222222222222222222222222222222222222222222222222222222222222222222222222
222222222222222222222222222222222222222222222222222222222222222222222222
222222222222222222222222222222222222
# atoms in fragment 1/2:     3   753
 fragment masses (1/2) :       18.02     4521.84
CMA distance (Bohr)    :  19.125
constraining FC (au)   :  0.0500

           -------------------------------------------------
          |                 G F N 2 - x T B                 |
           -------------------------------------------------

        Reference                      10.1021/acs.jctc.8b01176
      * Hamiltonian:
        H0-scaling (s, p, d)           1.850000    2.230000    2.230000
        zeta-weighting                 0.500000
      * Dispersion:
        s8                             2.700000
        a1                             0.520000
        a2                             5.000000
        s9                             5.000000
      * Repulsion:
        kExp                           1.500000    1.000000
        rExp                           1.000000
      * Coulomb:
        alpha                          2.000000
        third order                    shell-resolved
        anisotropic                    true
        a3                             3.000000
        a5                             4.000000
        cn-shift                       1.200000
        cn-exp                         4.000000
        max-rad                        5.000000

      * Solvation model:               GBSA
        Solvent                        water
        Parameter file                 internal GFN2-xTB/GBSA
        Dielectric constant                8.0200E+01
        Reference state                gsolv [1 M gas/solution]
        Free energy shift                  1.8574E-03 Eh       1.1656E+00 kcal/mol
        Temperature                        2.9815E+02 K
        Density                            1.0000E+00 kg/L
        Solvent mass                       1.8000E+01 g/mol
        Interaction kernel             Still
        Born radius scaling (c1)           1.5524E+00
        Born radii integrator          GBOBC
        Born offset                        2.4628E-02 a0       4.6540E-02 AA
        H-bond correction              true
        Ion screening                  false
        Surface tension                    1.0000E-05 Eh       1.5569E+01 dyn/cm
        Grid points                               230 per atom

          ...................................................
          :                      SETUP                      :
          :.................................................:
          :  # basis functions                1512          :
          :  # atomic orbitals                1512          :
          :  # shells                         1008          :
          :  # electrons                      2016          :
          :  max. iterations                   250          :
          :  Hamiltonian                  GFN2-xTB          :
          :  restarted?                      false          :
          :  GBSA solvation                   true          :
          :  PC potential                    false          :
          :  electronic temp.          300.0000000     K    :
          :  accuracy                    1.0000000          :
          :  -> integral cutoff          0.2500000E+02      :
          :  -> integral neglect         0.1000000E-07      :
          :  -> SCF convergence          0.1000000E-05 Eh   :
          :  -> wf. convergence          0.1000000E-03 e    :
          :  Broyden damping             0.4000000          :
          ...................................................

 iter      E             dE          RMSdq      gap      omega  full diag
   1  -1291.2135442 -0.129121E+04  0.409E+00    8.46       0.0  T
   2  -1291.3010017 -0.874575E-01  0.242E+00    8.01       1.0  T
   3  -1291.3369069 -0.359051E-01  0.227E-01    6.65       1.0  T
   4  -1291.3425584 -0.565152E-02  0.484E-02    7.01       1.0  T
   5  -1291.3427192 -0.160839E-03  0.309E-02    6.94       1.0  T
   6  -1291.3427660 -0.467505E-04  0.393E-03    6.95       1.0  T
   7  -1291.3427678 -0.182476E-05  0.902E-04    6.95       4.0  T
   8  -1291.3427679 -0.778277E-07  0.472E-04    6.95       7.7  T
   9  -1291.3427679 -0.332489E-07  0.126E-04    6.95      28.8  T

   *** convergence criteria satisfied after 9 iterations ***

         #    Occupation            Energy/Eh            Energy/eV
      -------------------------------------------------------------
         1        2.0000           -0.6555332             -17.8380
       ...           ...                  ...                  ...
      1002        2.0000           -0.3311356              -9.0107
      1003        2.0000           -0.3308934              -9.0041
      1004        2.0000           -0.3297761              -8.9737
      1005        2.0000           -0.3293023              -8.9608
      1006        2.0000           -0.3254266              -8.8553
      1007        2.0000           -0.3243747              -8.8267
      1008        2.0000           -0.3087034              -8.4002 (HOMO)
      1009                         -0.0533030              -1.4504 (LUMO)
      1010                         -0.0453735              -1.2347
      1011                         -0.0361782              -0.9845
      1012                         -0.0329502              -0.8966
      1013                         -0.0249173              -0.6780
       ...                                ...                  ...
      1512                          0.5118827              13.9290
      -------------------------------------------------------------
                  HL-Gap            0.2554003 Eh            6.9498 eV
             Fermi-level           -0.1810032 Eh           -4.9253 eV

 SCC (total)                   0 d,  0 h,  0 min, 21.897 sec
 SCC setup                      ...        0 min,  0.117 sec (  0.532%)
 Dispersion                     ...        0 min,  0.118 sec (  0.538%)
 classical contributions        ...        0 min,  0.024 sec (  0.109%)
 integral evaluation            ...        0 min,  0.620 sec (  2.829%)
 iterations                     ...        0 min,  7.890 sec ( 36.030%)
 molecular gradient             ...        0 min, 13.060 sec ( 59.643%)
 printout                       ...        0 min,  0.070 sec (  0.318%)

         :::::::::::::::::::::::::::::::::::::::::::::::::::::
         ::                     SUMMARY                     ::
         :::::::::::::::::::::::::::::::::::::::::::::::::::::
         :: total energy           -1283.557071964145 Eh    ::
         :: total w/o Gsasa/hb     -1283.328877862245 Eh    ::
         :: gradient norm              0.117718054717 Eh/a0 ::
         :: HOMO-LUMO gap              6.949797245840 eV    ::
         ::.................................................::
         :: SCC energy             -1291.342767920991 Eh    ::
         :: -> isotropic ES            7.355384457201 Eh    ::
         :: -> anisotropic ES         -1.633907482552 Eh    ::
         :: -> anisotropic XC         -0.120611358139 Eh    ::
         :: -> dispersion             -0.800371168764 Eh    ::
         :: -> Gsolv                  -0.269163681085 Eh    ::
         ::    -> Gelec               -0.040969579186 Eh    ::
         ::    -> Gsasa                0.006360471049 Eh    ::
         ::    -> Ghb                 -0.236412016075 Eh    ::
         ::    -> Gshift               0.001857443127 Eh    ::
         :: repulsion energy           7.628805342222 Eh    ::
         :: add. restraining           0.000000000000 Eh    ::
         :: total charge              -0.000000000000 e     ::
         :::::::::::::::::::::::::::::::::::::::::::::::::::::

           -------------------------------------------------
          |                Property Printout                |
           -------------------------------------------------

    * Orbital Energies and Occupations

         #    Occupation            Energy/Eh            Energy/eV
      -------------------------------------------------------------
         1        2.0000           -0.6555332             -17.8380
       ...           ...                  ...                  ...
       996        2.0000           -0.3427140              -9.3257
       997        2.0000           -0.3417767              -9.3002
       998        2.0000           -0.3412808              -9.2867
       999        2.0000           -0.3409685              -9.2782
      1000        2.0000           -0.3367605              -9.1637
      1001        2.0000           -0.3337268              -9.0812
      1002        2.0000           -0.3311356              -9.0107
      1003        2.0000           -0.3308934              -9.0041
      1004        2.0000           -0.3297761              -8.9737
      1005        2.0000           -0.3293023              -8.9608
      1006        2.0000           -0.3254266              -8.8553
      1007        2.0000           -0.3243747              -8.8267
      1008        2.0000           -0.3087034              -8.4002 (HOMO)
      1009                         -0.0533030              -1.4504 (LUMO)
      1010                         -0.0453735              -1.2347
      1011                         -0.0361782              -0.9845
      1012                         -0.0329502              -0.8966
      1013                         -0.0249173              -0.6780
      1014                         -0.0237534              -0.6464
      1015                         -0.0195664              -0.5324
      1016                         -0.0107121              -0.2915
      1017                         -0.0068457              -0.1863
      1018                         -0.0049622              -0.1350
      1019                         -0.0009944              -0.0271
       ...                                ...                  ...
      1512                          0.5118827              13.9290
      -------------------------------------------------------------
                  HL-Gap            0.2554003 Eh            6.9498 eV
             Fermi-level           -0.1810032 Eh           -4.9253 eV

     #   Z          covCN         q      C6AA      α(0)
     1   8 o        1.608    -0.668    26.871     6.996
     2   1 h        0.805     0.315     0.677     1.292
     3   1 h        0.803     0.354     0.580     1.196
     4   8 o        1.608    -0.676    27.082     7.024
     5   1 h        0.805     0.327     0.645     1.261
     6   1 h        0.803     0.368     0.547     1.162
     7   8 o        1.609    -0.694    27.541     7.083
     8   1 h        0.804     0.351     0.586     1.203
     9   1 h        0.805     0.331     0.635     1.252
    10   8 o        1.608    -0.663    26.740     6.979
    11   1 h        0.804     0.349     0.589     1.206
    12   1 h        0.804     0.344     0.602     1.219
    13   8 o        1.607    -0.684    27.289     7.050
    14   1 h        0.804     0.349     0.591     1.208
    15   1 h        0.803     0.359     0.567     1.183
    16   8 o        1.607    -0.697    27.632     7.095
    17   1 h        0.803     0.349     0.591     1.208
    18   1 h        0.804     0.349     0.591     1.207
    19   8 o        1.607    -0.692    27.487     7.076
    20   1 h        0.803     0.345     0.601     1.218
    21   1 h        0.803     0.338     0.618     1.235
    22   8 o        1.608    -0.675    27.054     7.020
    23   1 h        0.805     0.350     0.588     1.205
    24   1 h        0.803     0.340     0.612     1.228
    25   8 o        1.607    -0.682    27.250     7.045
    26   1 h        0.804     0.347     0.596     1.212
    27   1 h        0.803     0.356     0.574     1.191
    28   8 o        1.609    -0.673    27.003     7.013
    29   1 h        0.805     0.325     0.651     1.267
    30   1 h        0.804     0.340     0.612     1.229
    31   8 o        1.606    -0.703    27.785     7.114
    32   1 h        0.803     0.344     0.603     1.220
    33   1 h        0.803     0.360     0.566     1.182
    34   8 o        1.608    -0.685    27.317     7.054
    35   1 h        0.803     0.341     0.609     1.226
    36   1 h        0.804     0.348     0.593     1.209
    37   8 o        1.606    -0.713    28.062     7.149
    38   1 h        0.804     0.336     0.621     1.238
    39   1 h        0.803     0.348     0.593     1.210
    40   8 o        1.608    -0.689    27.425     7.068
    41   1 h        0.803     0.347     0.596     1.212
    42   1 h        0.804     0.344     0.602     1.219
    43   8 o        1.607    -0.675    27.044     7.019
    44   1 h        0.804     0.353     0.581     1.197
    45   1 h        0.803     0.340     0.613     1.230
    46   8 o        1.607    -0.683    27.259     7.047
    47   1 h        0.804     0.343     0.604     1.221
    48   1 h        0.803     0.355     0.576     1.192
    49   8 o        1.607    -0.707    27.896     7.128
    50   1 h        0.804     0.337     0.619     1.235
    51   1 h        0.804     0.336     0.622     1.239
    52   8 o        1.608    -0.684    27.281     7.049
    53   1 h        0.804     0.332     0.633     1.250
    54   1 h        0.804     0.332     0.631     1.248
    55   8 o        1.609    -0.681    27.209     7.040
    56   1 h        0.804     0.350     0.589     1.205
    57   1 h        0.804     0.327     0.646     1.263
    58   8 o        1.606    -0.706    27.868     7.125
    59   1 h        0.803     0.351     0.587     1.203
    60   1 h        0.804     0.349     0.590     1.207
    61   8 o        1.608    -0.690    27.445     7.071
    62   1 h        0.804     0.355     0.576     1.192
    63   1 h        0.803     0.346     0.598     1.215
    64   8 o        1.609    -0.678    27.140     7.031
    65   1 h        0.805     0.331     0.635     1.252
    66   1 h        0.804     0.337     0.621     1.238
    67   8 o        1.606    -0.696    27.607     7.091
    68   1 h        0.803     0.349     0.590     1.207
    69   1 h        0.804     0.345     0.601     1.217
    70   8 o        1.608    -0.671    26.957     7.007
    71   1 h        0.805     0.327     0.645     1.262
    72   1 h        0.803     0.356     0.575     1.192
    73   8 o        1.604    -0.719    28.216     7.169
    74   1 h        0.802     0.361     0.563     1.179
    75   1 h        0.803     0.323     0.657     1.273
    76   8 o        1.608    -0.687    27.362     7.060
    77   1 h        0.803     0.355     0.576     1.192
    78   1 h        0.804     0.342     0.607     1.224
    79   8 o        1.608    -0.684    27.289     7.050
    80   1 h        0.804     0.350     0.587     1.204
    81   1 h        0.804     0.347     0.596     1.212
    82   8 o        1.609    -0.688    27.397     7.064
    83   1 h        0.805     0.339     0.616     1.233
    84   1 h        0.804     0.340     0.612     1.229
    85   8 o        1.609    -0.678    27.127     7.030
    86   1 h        0.804     0.337     0.619     1.236
    87   1 h        0.804     0.343     0.604     1.221
    88   8 o        1.607    -0.686    27.350     7.058
    89   1 h        0.804     0.349     0.590     1.207
    90   1 h        0.803     0.350     0.587     1.204
    91   8 o        1.607    -0.668    26.881     6.998
    92   1 h        0.804     0.341     0.610     1.227
    93   1 h        0.803     0.345     0.599     1.216
    94   8 o        1.608    -0.689    27.420     7.067
    95   1 h        0.805     0.355     0.576     1.192
    96   1 h        0.803     0.346     0.597     1.214
    97   8 o        1.607    -0.687    27.356     7.059
    98   1 h        0.804     0.353     0.581     1.197
    99   1 h        0.804     0.325     0.651     1.267
   100   8 o        1.607    -0.697    27.643     7.096
   101   1 h        0.804     0.341     0.609     1.226
   102   1 h        0.803     0.355     0.576     1.192
   103   8 o        1.607    -0.702    27.768     7.112
   104   1 h        0.805     0.320     0.665     1.281
   105   1 h        0.803     0.325     0.649     1.266
   106   8 o        1.608    -0.684    27.282     7.049
   107   1 h        0.803     0.335     0.625     1.242
   108   1 h        0.805     0.328     0.643     1.260
   109   8 o        1.609    -0.646    26.310     6.923
   110   1 h        0.804     0.344     0.602     1.219
   111   1 h        0.805     0.331     0.635     1.251
   112   8 o        1.608    -0.680    27.181     7.036
   113   1 h        0.804     0.339     0.613     1.230
   114   1 h        0.803     0.342     0.608     1.224
   115   8 o        1.607    -0.682    27.231     7.043
   116   1 h        0.803     0.345     0.599     1.216
   117   1 h        0.804     0.343     0.606     1.222
   118   8 o        1.607    -0.674    27.030     7.017
   119   1 h        0.802     0.363     0.560     1.175
   120   1 h        0.805     0.319     0.667     1.283
   121   8 o        1.608    -0.697    27.637     7.095
   122   1 h        0.804     0.339     0.613     1.230
   123   1 h        0.804     0.334     0.627     1.244
   124   8 o        1.607    -0.687    27.379     7.062
   125   1 h        0.804     0.345     0.600     1.217
   126   1 h        0.803     0.341     0.610     1.226
   127   8 o        1.606    -0.685    27.322     7.055
   128   1 h        0.803     0.346     0.597     1.214
   129   1 h        0.803     0.330     0.638     1.255
   130   8 o        1.606    -0.699    27.680     7.101
   131   1 h        0.803     0.359     0.569     1.185
   132   1 h        0.803     0.353     0.581     1.197
   133   8 o        1.608    -0.669    26.901     7.000
   134   1 h        0.803     0.331     0.634     1.251
   135   1 h        0.804     0.332     0.633     1.250
   136   8 o        1.608    -0.687    27.361     7.060
   137   1 h        0.804     0.347     0.596     1.212
   138   1 h        0.805     0.349     0.591     1.207
   139   8 o        1.609    -0.662    26.725     6.977
   140   1 h        0.805     0.332     0.633     1.250
   141   1 h        0.805     0.339     0.615     1.232
   142   8 o        1.607    -0.690    27.443     7.070
   143   1 h        0.802     0.364     0.557     1.172
   144   1 h        0.805     0.327     0.645     1.261
   145   8 o        1.608    -0.680    27.192     7.038
   146   1 h        0.804     0.330     0.638     1.254
   147   1 h        0.804     0.342     0.607     1.224
   148   8 o        1.605    -0.720    28.259     7.175
   149   1 h        0.804     0.346     0.598     1.214
   150   1 h        0.804     0.346     0.598     1.214
   151   8 o        1.607    -0.687    27.371     7.061
   152   1 h        0.803     0.360     0.565     1.181
   153   1 h        0.804     0.321     0.662     1.278
   154   8 o        1.609    -0.683    27.272     7.048
   155   1 h        0.804     0.340     0.612     1.229
   156   1 h        0.805     0.327     0.645     1.261
   157   8 o        1.607    -0.680    27.193     7.038
   158   1 h        0.803     0.360     0.566     1.182
   159   1 h        0.804     0.344     0.602     1.218
   160   8 o        1.608    -0.668    26.868     6.996
   161   1 h        0.805     0.324     0.653     1.269
   162   1 h        0.803     0.343     0.605     1.221
   163   8 o        1.607    -0.689    27.425     7.068
   164   1 h        0.804     0.334     0.628     1.244
   165   1 h        0.804     0.360     0.566     1.182
   166   8 o        1.609    -0.682    27.239     7.044
   167   1 h        0.804     0.342     0.608     1.225
   168   1 h        0.804     0.346     0.598     1.214
   169   8 o        1.608    -0.674    27.021     7.016
   170   1 h        0.804     0.346     0.597     1.214
   171   1 h        0.804     0.331     0.635     1.252
   172   8 o        1.608    -0.671    26.942     7.005
   173   1 h        0.804     0.345     0.601     1.218
   174   1 h        0.805     0.329     0.641     1.258
   175   8 o        1.609    -0.672    26.981     7.011
   176   1 h        0.804     0.358     0.570     1.186
   177   1 h        0.804     0.353     0.582     1.198
   178   8 o        1.607    -0.646    26.317     6.924
   179   1 h        0.806     0.309     0.695     1.310
   180   1 h        0.802     0.348     0.592     1.209
   181   8 o        1.607    -0.690    27.456     7.072
   182   1 h        0.802     0.365     0.555     1.170
   183   1 h        0.804     0.327     0.645     1.262
   184   8 o        1.603    -0.709    27.961     7.136
   185   1 h        0.802     0.363     0.559     1.175
   186   1 h        0.803     0.331     0.636     1.253
   187   8 o        1.610    -0.690    27.446     7.071
   188   1 h        0.803     0.347     0.597     1.213
   189   1 h        0.804     0.348     0.593     1.210
   190   8 o        1.607    -0.662    26.709     6.975
   191   1 h        0.804     0.332     0.631     1.248
   192   1 h        0.803     0.343     0.605     1.222
   193   8 o        1.608    -0.654    26.519     6.950
   194   1 h        0.806     0.303     0.711     1.324
   195   1 h        0.802     0.347     0.595     1.212
   196   8 o        1.606    -0.674    27.026     7.016
   197   1 h        0.801     0.348     0.592     1.209
   198   1 h        0.806     0.315     0.678     1.293
   199   8 o        1.606    -0.692    27.487     7.076
   200   1 h        0.803     0.360     0.565     1.181
   201   1 h        0.803     0.327     0.647     1.263
   202   8 o        1.609    -0.664    26.764     6.982
   203   1 h        0.805     0.334     0.628     1.245
   204   1 h        0.803     0.337     0.620     1.237
   205   8 o        1.608    -0.668    26.862     6.995
   206   1 h        0.804     0.331     0.634     1.251
   207   1 h        0.804     0.336     0.623     1.240
   208   8 o        1.603    -0.714    28.096     7.154
   209   1 h        0.801     0.357     0.572     1.189
   210   1 h        0.802     0.327     0.645     1.262
   211   8 o        1.607    -0.684    27.293     7.051
   212   1 h        0.803     0.336     0.623     1.240
   213   1 h        0.804     0.341     0.610     1.227
   214   8 o        1.607    -0.691    27.462     7.073
   215   1 h        0.805     0.338     0.617     1.234
   216   1 h        0.803     0.354     0.580     1.196
   217   8 o        1.608    -0.691    27.474     7.074
   218   1 h        0.803     0.347     0.594     1.211
   219   1 h        0.805     0.346     0.598     1.214
   220   8 o        1.608    -0.670    26.928     7.004
   221   1 h        0.804     0.342     0.607     1.224
   222   1 h        0.803     0.332     0.633     1.250
   223   8 o        1.609    -0.637    26.086     6.893
   224   1 h        0.805     0.316     0.674     1.290
   225   1 h        0.804     0.366     0.551     1.166
   226   8 o        1.607    -0.678    27.121     7.029
   227   1 h        0.803     0.353     0.582     1.198
   228   1 h        0.804     0.323     0.656     1.273
   229   8 o        1.609    -0.664    26.776     6.984
   230   1 h        0.804     0.338     0.618     1.234
   231   1 h        0.805     0.313     0.684     1.299
   232   8 o        1.609    -0.651    26.431     6.939
   233   1 h        0.805     0.329     0.641     1.258
   234   1 h        0.804     0.331     0.634     1.251
   235   8 o        1.607    -0.663    26.743     6.980
   236   1 h        0.803     0.341     0.609     1.226
   237   1 h        0.804     0.330     0.638     1.254
   238   8 o        1.608    -0.689    27.416     7.067
   239   1 h        0.803     0.336     0.623     1.240
   240   1 h        0.805     0.331     0.636     1.252
   241   8 o        1.609    -0.668    26.873     6.996
   242   1 h        0.803     0.336     0.623     1.240
   243   1 h        0.804     0.356     0.575     1.191
   244   8 o        1.605    -0.678    27.123     7.029
   245   1 h        0.802     0.353     0.583     1.199
   246   1 h        0.805     0.323     0.655     1.271
   247   8 o        1.605    -0.709    27.961     7.137
   248   1 h        0.803     0.355     0.577     1.193
   249   1 h        0.803     0.351     0.587     1.203
   250   8 o        1.608    -0.668    26.876     6.997
   251   1 h        0.803     0.360     0.566     1.182
   252   1 h        0.805     0.314     0.679     1.294
   253   8 o        1.608    -0.659    26.634     6.965
   254   1 h        0.805     0.329     0.640     1.257
   255   1 h        0.803     0.346     0.598     1.215
   256   8 o        1.607    -0.706    27.876     7.126
   257   1 h        0.803     0.333     0.631     1.248
   258   1 h        0.803     0.356     0.574     1.190
   259   8 o        1.609    -0.680    27.189     7.038
   260   1 h        0.805     0.325     0.650     1.266
   261   1 h        0.804     0.353     0.580     1.197
   262   8 o        1.606    -0.707    27.894     7.128
   263   1 h        0.803     0.361     0.564     1.179
   264   1 h        0.804     0.348     0.594     1.211
   265   8 o        1.606    -0.669    26.899     7.000
   266   1 h        0.802     0.333     0.630     1.247
   267   1 h        0.803     0.339     0.616     1.232
   268   8 o        1.609    -0.643    26.242     6.914
   269   1 h        0.804     0.348     0.593     1.209
   270   1 h        0.806     0.307     0.699     1.314
   271   8 o        1.606    -0.680    27.174     7.035
   272   1 h        0.803     0.328     0.644     1.260
   273   1 h        0.803     0.349     0.590     1.207
   274   8 o        1.608    -0.680    27.191     7.038
   275   1 h        0.805     0.328     0.643     1.259
   276   1 h        0.803     0.352     0.584     1.201
   277   8 o        1.608    -0.646    26.307     6.922
   278   1 h        0.805     0.308     0.697     1.311
   279   1 h        0.803     0.346     0.598     1.214
   280   8 o        1.608    -0.678    27.124     7.029
   281   1 h        0.804     0.349     0.590     1.206
   282   1 h        0.804     0.351     0.586     1.203
   283   8 o        1.608    -0.656    26.558     6.955
   284   1 h        0.803     0.343     0.605     1.222
   285   1 h        0.805     0.324     0.652     1.269
   286   8 o        1.607    -0.683    27.266     7.047
   287   1 h        0.803     0.357     0.573     1.189
   288   1 h        0.805     0.323     0.657     1.273
   289   8 o        1.609    -0.688    27.396     7.064
   290   1 h        0.804     0.347     0.595     1.212
   291   1 h        0.805     0.337     0.620     1.236
   292   8 o        1.609    -0.686    27.342     7.057
   293   1 h        0.805     0.336     0.621     1.238
   294   1 h        0.804     0.333     0.630     1.247
   295   8 o        1.606    -0.696    27.612     7.092
   296   1 h        0.802     0.365     0.554     1.169
   297   1 h        0.805     0.314     0.679     1.294
   298   8 o        1.607    -0.703    27.795     7.115
   299   1 h        0.803     0.341     0.609     1.226
   300   1 h        0.804     0.336     0.623     1.239
   301   8 o        1.608    -0.669    26.888     6.998
   302   1 h        0.804     0.326     0.649     1.265
   303   1 h        0.804     0.348     0.594     1.211
   304   8 o        1.610    -0.638    26.116     6.897
   305   1 h        0.805     0.326     0.648     1.265
   306   1 h        0.805     0.336     0.623     1.239
   307   8 o        1.608    -0.676    27.087     7.024
   308   1 h        0.804     0.329     0.640     1.257
   309   1 h        0.804     0.356     0.576     1.192
   310   8 o        1.607    -0.688    27.401     7.065
   311   1 h        0.804     0.347     0.596     1.213
   312   1 h        0.803     0.354     0.578     1.195
   313   8 o        1.608    -0.686    27.350     7.058
   314   1 h        0.805     0.319     0.667     1.282
   315   1 h        0.803     0.358     0.570     1.186
   316   8 o        1.609    -0.659    26.652     6.968
   317   1 h        0.804     0.348     0.592     1.209
   318   1 h        0.805     0.327     0.644     1.261
   319   8 o        1.604    -0.696    27.615     7.092
   320   1 h        0.801     0.367     0.552     1.167
   321   1 h        0.805     0.318     0.670     1.286
   322   8 o        1.606    -0.702    27.766     7.112
   323   1 h        0.804     0.345     0.600     1.217
   324   1 h        0.801     0.368     0.548     1.163
   325   8 o        1.608    -0.683    27.273     7.048
   326   1 h        0.805     0.333     0.630     1.247
   327   1 h        0.804     0.349     0.591     1.207
   328   8 o        1.606    -0.681    27.201     7.039
   329   1 h        0.801     0.359     0.567     1.183
   330   1 h        0.806     0.304     0.710     1.324
   331   8 o        1.607    -0.693    27.538     7.082
   332   1 h        0.804     0.339     0.616     1.232
   333   1 h        0.803     0.360     0.565     1.181
   334   8 o        1.606    -0.677    27.104     7.026
   335   1 h        0.802     0.336     0.621     1.238
   336   1 h        0.804     0.350     0.589     1.205
   337   8 o        1.608    -0.679    27.156     7.033
   338   1 h        0.804     0.354     0.578     1.194
   339   1 h        0.804     0.346     0.597     1.214
   340   8 o        1.609    -0.657    26.605     6.962
   341   1 h        0.805     0.313     0.682     1.297
   342   1 h        0.803     0.336     0.623     1.240
   343   8 o        1.608    -0.687    27.375     7.061
   344   1 h        0.805     0.353     0.581     1.197
   345   1 h        0.803     0.351     0.586     1.202
   346   8 o        1.605    -0.701    27.738     7.108
   347   1 h        0.802     0.337     0.619     1.236
   348   1 h        0.803     0.333     0.630     1.247
   349   8 o        1.609    -0.672    26.964     7.008
   350   1 h        0.804     0.351     0.586     1.203
   351   1 h        0.805     0.336     0.621     1.238
   352   8 o        1.610    -0.663    26.743     6.980
   353   1 h        0.804     0.334     0.627     1.244
   354   1 h        0.805     0.322     0.658     1.275
   355   8 o        1.609    -0.671    26.949     7.006
   356   1 h        0.804     0.349     0.591     1.207
   357   1 h        0.805     0.331     0.636     1.252
   358   8 o        1.607    -0.669    26.898     7.000
   359   1 h        0.802     0.344     0.602     1.219
   360   1 h        0.805     0.318     0.670     1.285
   361   8 o        1.607    -0.681    27.199     7.039
   362   1 h        0.805     0.319     0.667     1.283
   363   1 h        0.802     0.366     0.552     1.167
   364   8 o        1.608    -0.688    27.382     7.062
   365   1 h        0.804     0.341     0.610     1.227
   366   1 h        0.804     0.340     0.612     1.229
   367   8 o        1.607    -0.676    27.076     7.023
   368   1 h        0.804     0.336     0.621     1.238
   369   1 h        0.804     0.342     0.608     1.225
   370   8 o        1.609    -0.687    27.378     7.062
   371   1 h        0.804     0.336     0.622     1.239
   372   1 h        0.805     0.330     0.638     1.255
   373   8 o        1.609    -0.658    26.616     6.963
   374   1 h        0.806     0.314     0.679     1.295
   375   1 h        0.804     0.344     0.603     1.220
   376   8 o        1.603    -0.700    27.702     7.103
   377   1 h        0.802     0.330     0.638     1.255
   378   1 h        0.801     0.361     0.564     1.180
   379   8 o        1.606    -0.717    28.160     7.162
   380   1 h        0.804     0.330     0.636     1.253
   381   1 h        0.803     0.353     0.582     1.198
   382   8 o        1.608    -0.672    26.982     7.011
   383   1 h        0.804     0.330     0.639     1.255
   384   1 h        0.804     0.352     0.584     1.201
   385   8 o        1.606    -0.691    27.462     7.073
   386   1 h        0.802     0.360     0.566     1.182
   387   1 h        0.804     0.325     0.651     1.268
   388   8 o        1.608    -0.667    26.852     6.994
   389   1 h        0.804     0.344     0.603     1.220
   390   1 h        0.804     0.354     0.579     1.195
   391   8 o        1.608    -0.675    27.050     7.019
   392   1 h        0.805     0.323     0.656     1.272
   393   1 h        0.803     0.365     0.555     1.171
   394   8 o        1.609    -0.681    27.205     7.040
   395   1 h        0.804     0.342     0.607     1.223
   396   1 h        0.805     0.328     0.642     1.258
   397   8 o        1.606    -0.690    27.460     7.072
   398   1 h        0.801     0.368     0.549     1.164
   399   1 h        0.806     0.306     0.702     1.316
   400   8 o        1.606    -0.671    26.953     7.007
   401   1 h        0.802     0.334     0.628     1.245
   402   1 h        0.804     0.329     0.639     1.256
   403   8 o        1.606    -0.676    27.077     7.023
   404   1 h        0.802     0.346     0.598     1.215
   405   1 h        0.804     0.344     0.604     1.220
   406   8 o        1.607    -0.668    26.875     6.997
   407   1 h        0.804     0.333     0.631     1.248
   408   1 h        0.803     0.337     0.620     1.237
   409   8 o        1.608    -0.674    27.025     7.016
   410   1 h        0.804     0.333     0.629     1.246
   411   1 h        0.804     0.349     0.591     1.208
   412   8 o        1.610    -0.677    27.111     7.027
   413   1 h        0.804     0.345     0.600     1.217
   414   1 h        0.805     0.343     0.604     1.221
   415   8 o        1.607    -0.667    26.849     6.993
   416   1 h        0.803     0.343     0.604     1.221
   417   1 h        0.803     0.328     0.642     1.259
   418   8 o        1.608    -0.689    27.420     7.067
   419   1 h        0.804     0.360     0.566     1.182
   420   1 h        0.803     0.352     0.583     1.199
   421   8 o        1.608    -0.691    27.468     7.073
   422   1 h        0.804     0.315     0.677     1.292
   423   1 h        0.804     0.344     0.602     1.219
   424   8 o        1.608    -0.684    27.302     7.052
   425   1 h        0.804     0.340     0.613     1.230
   426   1 h        0.804     0.328     0.642     1.258
   427   8 o        1.608    -0.670    26.930     7.004
   428   1 h        0.804     0.322     0.659     1.275
   429   1 h        0.804     0.338     0.618     1.235
   430   8 o        1.609    -0.687    27.379     7.062
   431   1 h        0.804     0.343     0.605     1.222
   432   1 h        0.804     0.338     0.618     1.235
   433   8 o        1.608    -0.695    27.578     7.088
   434   1 h        0.804     0.339     0.614     1.231
   435   1 h        0.804     0.345     0.600     1.217
   436   8 o        1.608    -0.667    26.836     6.992
   437   1 h        0.804     0.337     0.619     1.235
   438   1 h        0.804     0.327     0.644     1.261
   439   8 o        1.608    -0.691    27.466     7.073
   440   1 h        0.804     0.359     0.567     1.183
   441   1 h        0.804     0.330     0.637     1.254
   442   8 o        1.608    -0.668    26.863     6.995
   443   1 h        0.804     0.332     0.632     1.248
   444   1 h        0.804     0.341     0.609     1.226
   445   8 o        1.607    -0.689    27.410     7.066
   446   1 h        0.803     0.331     0.635     1.252
   447   1 h        0.803     0.344     0.602     1.219
   448   8 o        1.608    -0.667    26.853     6.994
   449   1 h        0.804     0.320     0.663     1.279
   450   1 h        0.803     0.326     0.647     1.264
   451   8 o        1.606    -0.699    27.682     7.101
   452   1 h        0.803     0.362     0.561     1.177
   453   1 h        0.803     0.347     0.595     1.212
   454   8 o        1.607    -0.681    27.222     7.042
   455   1 h        0.804     0.343     0.605     1.221
   456   1 h        0.802     0.368     0.548     1.163
   457   8 o        1.607    -0.695    27.573     7.087
   458   1 h        0.804     0.333     0.631     1.248
   459   1 h        0.803     0.356     0.575     1.191
   460   8 o        1.607    -0.672    26.966     7.009
   461   1 h        0.804     0.329     0.639     1.256
   462   1 h        0.803     0.331     0.634     1.251
   463   8 o        1.607    -0.687    27.356     7.059
   464   1 h        0.803     0.355     0.577     1.193
   465   1 h        0.805     0.330     0.639     1.255
   466   8 o        1.608    -0.662    26.723     6.977
   467   1 h        0.804     0.329     0.640     1.257
   468   1 h        0.803     0.335     0.625     1.242
   469   8 o        1.609    -0.674    27.021     7.016
   470   1 h        0.804     0.360     0.566     1.182
   471   1 h        0.804     0.342     0.608     1.225
   472   8 o        1.609    -0.669    26.909     7.001
   473   1 h        0.805     0.334     0.626     1.243
   474   1 h        0.805     0.336     0.621     1.238
   475   8 o        1.608    -0.689    27.425     7.068
   476   1 h        0.804     0.349     0.590     1.207
   477   1 h        0.804     0.349     0.589     1.206
   478   8 o        1.608    -0.658    26.627     6.964
   479   1 h        0.802     0.358     0.569     1.185
   480   1 h        0.805     0.314     0.680     1.295
   481   8 o        1.608    -0.690    27.446     7.071
   482   1 h        0.804     0.334     0.627     1.244
   483   1 h        0.804     0.338     0.617     1.234
   484   8 o        1.607    -0.682    27.236     7.044
   485   1 h        0.804     0.333     0.630     1.247
   486   1 h        0.803     0.333     0.629     1.246
   487   8 o        1.607    -0.682    27.233     7.043
   488   1 h        0.803     0.322     0.659     1.275
   489   1 h        0.804     0.356     0.574     1.190
   490   8 o        1.609    -0.659    26.636     6.966
   491   1 h        0.804     0.318     0.668     1.284
   492   1 h        0.805     0.330     0.638     1.254
   493   8 o        1.608    -0.681    27.219     7.041
   494   1 h        0.805     0.326     0.647     1.263
   495   1 h        0.804     0.338     0.618     1.235
   496   8 o        1.608    -0.669    26.903     7.000
   497   1 h        0.804     0.349     0.591     1.207
   498   1 h        0.805     0.324     0.653     1.269
   499   8 o        1.607    -0.679    27.148     7.032
   500   1 h        0.804     0.322     0.659     1.275
   501   1 h        0.803     0.372     0.540     1.154
   502   8 o        1.607    -0.685    27.314     7.054
   503   1 h        0.805     0.326     0.647     1.264
   504   1 h        0.802     0.335     0.624     1.241
   505   8 o        1.607    -0.679    27.152     7.033
   506   1 h        0.805     0.328     0.643     1.260
   507   1 h        0.802     0.346     0.598     1.215
   508   8 o        1.606    -0.691    27.483     7.075
   509   1 h        0.803     0.352     0.584     1.201
   510   1 h        0.804     0.325     0.650     1.267
   511   8 o        1.605    -0.704    27.831     7.120
   512   1 h        0.803     0.337     0.620     1.237
   513   1 h        0.802     0.356     0.575     1.191
   514   8 o        1.608    -0.684    27.280     7.049
   515   1 h        0.803     0.358     0.570     1.186
   516   1 h        0.804     0.335     0.624     1.241
   517   8 o        1.608    -0.653    26.493     6.947
   518   1 h        0.806     0.313     0.684     1.299
   519   1 h        0.802     0.349     0.591     1.208
   520   8 o        1.609    -0.675    27.056     7.020
   521   1 h        0.804     0.349     0.591     1.207
   522   1 h        0.805     0.334     0.628     1.244
   523   8 o        1.609    -0.676    27.079     7.023
   524   1 h        0.805     0.332     0.633     1.249
   525   1 h        0.804     0.333     0.629     1.246
   526   8 o        1.610    -0.660    26.672     6.970
   527   1 h        0.805     0.325     0.650     1.267
   528   1 h        0.805     0.344     0.602     1.218
   529   8 o        1.606    -0.680    27.183     7.037
   530   1 h        0.802     0.347     0.596     1.213
   531   1 h        0.804     0.350     0.589     1.205
   532   8 o        1.607    -0.689    27.409     7.066
   533   1 h        0.802     0.369     0.546     1.161
   534   1 h        0.805     0.318     0.669     1.285
   535   8 o        1.608    -0.676    27.086     7.024
   536   1 h        0.804     0.362     0.561     1.176
   537   1 h        0.805     0.325     0.652     1.268
   538   8 o        1.607    -0.690    27.436     7.069
   539   1 h        0.805     0.323     0.656     1.272
   540   1 h        0.803     0.357     0.573     1.189
   541   8 o        1.606    -0.674    27.028     7.017
   542   1 h        0.802     0.338     0.617     1.234
   543   1 h        0.803     0.338     0.618     1.235
   544   8 o        1.606    -0.699    27.676     7.100
   545   1 h        0.803     0.349     0.590     1.207
   546   1 h        0.803     0.336     0.622     1.239
   547   8 o        1.607    -0.677    27.109     7.027
   548   1 h        0.803     0.328     0.644     1.261
   549   1 h        0.804     0.334     0.627     1.244
   550   8 o        1.607    -0.661    26.693     6.973
   551   1 h        0.806     0.314     0.680     1.295
   552   1 h        0.802     0.357     0.572     1.188
   553   8 o        1.607    -0.672    26.967     7.009
   554   1 h        0.806     0.314     0.680     1.295
   555   1 h        0.802     0.348     0.593     1.210
   556   8 o        1.606    -0.680    27.194     7.038
   557   1 h        0.805     0.319     0.666     1.282
   558   1 h        0.802     0.358     0.571     1.187
   559   8 o        1.607    -0.687    27.380     7.062
   560   1 h        0.801     0.356     0.576     1.192
   561   1 h        0.805     0.318     0.668     1.284
   562   8 o        1.608    -0.691    27.469     7.074
   563   1 h        0.804     0.343     0.605     1.222
   564   1 h        0.804     0.357     0.572     1.188
   565   8 o        1.605    -0.719    28.230     7.171
   566   1 h        0.804     0.331     0.636     1.253
   567   1 h        0.802     0.352     0.584     1.201
   568   8 o        1.608    -0.685    27.325     7.055
   569   1 h        0.803     0.357     0.573     1.189
   570   1 h        0.805     0.323     0.656     1.272
   571   8 o        1.608    -0.683    27.266     7.047
   572   1 h        0.804     0.337     0.619     1.236
   573   1 h        0.804     0.343     0.604     1.221
   574   8 o        1.608    -0.689    27.423     7.068
   575   1 h        0.805     0.323     0.657     1.273
   576   1 h        0.803     0.348     0.592     1.209
   577   8 o        1.607    -0.676    27.074     7.022
   578   1 h        0.806     0.304     0.708     1.321
   579   1 h        0.802     0.368     0.549     1.164
   580   8 o        1.608    -0.692    27.505     7.078
   581   1 h        0.803     0.342     0.608     1.225
   582   1 h        0.805     0.323     0.655     1.271
   583   8 o        1.606    -0.686    27.350     7.058
   584   1 h        0.805     0.333     0.630     1.247
   585   1 h        0.801     0.367     0.552     1.167
   586   8 o        1.609    -0.666    26.821     6.990
   587   1 h        0.804     0.330     0.637     1.254
   588   1 h        0.804     0.321     0.661     1.277
   589   8 o        1.608    -0.702    27.764     7.112
   590   1 h        0.804     0.334     0.626     1.243
   591   1 h        0.804     0.353     0.580     1.197
   592   8 o        1.609    -0.653    26.485     6.946
   593   1 h        0.806     0.311     0.688     1.303
   594   1 h        0.804     0.343     0.606     1.222
   595   8 o        1.609    -0.662    26.728     6.978
   596   1 h        0.803     0.359     0.569     1.185
   597   1 h        0.806     0.320     0.664     1.280
   598   8 o        1.608    -0.674    27.037     7.018
   599   1 h        0.803     0.365     0.555     1.170
   600   1 h        0.805     0.319     0.667     1.283
   601   8 o        1.608    -0.642    26.219     6.911
   602   1 h        0.806     0.316     0.676     1.291
   603   1 h        0.802     0.347     0.596     1.213
   604   8 o        1.608    -0.676    27.081     7.023
   605   1 h        0.803     0.357     0.572     1.188
   606   1 h        0.804     0.328     0.643     1.260
   607   8 o        1.607    -0.695    27.587     7.089
   608   1 h        0.804     0.336     0.623     1.240
   609   1 h        0.803     0.372     0.540     1.154
   610   8 o        1.607    -0.686    27.343     7.057
   611   1 h        0.804     0.351     0.587     1.203
   612   1 h        0.803     0.355     0.578     1.194
   613   8 o        1.608    -0.685    27.310     7.053
   614   1 h        0.803     0.338     0.617     1.234
   615   1 h        0.804     0.332     0.631     1.248
   616   8 o        1.607    -0.694    27.562     7.086
   617   1 h        0.805     0.321     0.660     1.276
   618   1 h        0.802     0.352     0.585     1.201
   619   8 o        1.609    -0.662    26.722     6.977
   620   1 h        0.805     0.324     0.652     1.269
   621   1 h        0.804     0.336     0.621     1.238
   622   8 o        1.606    -0.695    27.570     7.087
   623   1 h        0.803     0.342     0.607     1.224
   624   1 h        0.803     0.337     0.621     1.238
   625   8 o        1.609    -0.671    26.951     7.007
   626   1 h        0.804     0.334     0.628     1.244
   627   1 h        0.804     0.344     0.603     1.220
   628   8 o        1.611    -0.675    27.049     7.019
   629   1 h        0.805     0.353     0.581     1.197
   630   1 h        0.804     0.340     0.612     1.229
   631   8 o        1.606    -0.697    27.629     7.094
   632   1 h        0.803     0.357     0.572     1.188
   633   1 h        0.803     0.349     0.592     1.208
   634   8 o        1.607    -0.699    27.689     7.102
   635   1 h        0.803     0.363     0.558     1.174
   636   1 h        0.804     0.342     0.607     1.223
   637   8 o        1.608    -0.703    27.798     7.116
   638   1 h        0.805     0.331     0.636     1.253
   639   1 h        0.803     0.361     0.563     1.178
   640   8 o        1.609    -0.650    26.413     6.936
   641   1 h        0.804     0.338     0.618     1.234
   642   1 h        0.805     0.334     0.627     1.244
   643   8 o        1.608    -0.664    26.772     6.983
   644   1 h        0.803     0.345     0.601     1.218
   645   1 h        0.804     0.343     0.605     1.222
   646   8 o        1.605    -0.686    27.340     7.057
   647   1 h        0.804     0.323     0.657     1.273
   648   1 h        0.802     0.340     0.614     1.231
   649   8 o        1.607    -0.698    27.653     7.097
   650   1 h        0.803     0.356     0.575     1.192
   651   1 h        0.804     0.325     0.651     1.268
   652   8 o        1.608    -0.674    27.024     7.016
   653   1 h        0.803     0.342     0.608     1.225
   654   1 h        0.805     0.325     0.650     1.267
   655   8 o        1.608    -0.671    26.951     7.007
   656   1 h        0.805     0.314     0.681     1.296
   657   1 h        0.803     0.344     0.603     1.220
   658   8 o        1.607    -0.697    27.628     7.094
   659   1 h        0.802     0.367     0.550     1.165
   660   1 h        0.805     0.327     0.644     1.261
   661   8 o        1.607    -0.689    27.408     7.066
   662   1 h        0.803     0.338     0.616     1.233
   663   1 h        0.804     0.332     0.632     1.249
   664   8 o        1.606    -0.685    27.320     7.054
   665   1 h        0.802     0.349     0.592     1.208
   666   1 h        0.805     0.330     0.636     1.253
   667   8 o        1.607    -0.685    27.322     7.055
   668   1 h        0.803     0.346     0.599     1.216
   669   1 h        0.804     0.335     0.625     1.242
   670   8 o        1.608    -0.692    27.496     7.077
   671   1 h        0.804     0.357     0.572     1.188
   672   1 h        0.804     0.351     0.587     1.203
   673   8 o        1.609    -0.674    27.031     7.017
   674   1 h        0.805     0.339     0.615     1.232
   675   1 h        0.804     0.341     0.610     1.227
   676   8 o        1.609    -0.655    26.547     6.954
   677   1 h        0.803     0.345     0.601     1.218
   678   1 h        0.805     0.337     0.619     1.236
   679   8 o        1.609    -0.654    26.519     6.950
   680   1 h        0.805     0.314     0.681     1.296
   681   1 h        0.803     0.340     0.613     1.230
   682   8 o        1.608    -0.660    26.658     6.968
   683   1 h        0.804     0.342     0.606     1.223
   684   1 h        0.804     0.354     0.578     1.194
   685   8 o        1.607    -0.692    27.499     7.077
   686   1 h        0.802     0.353     0.582     1.198
   687   1 h        0.804     0.326     0.648     1.265
   688   8 o        1.608    -0.673    27.012     7.014
   689   1 h        0.805     0.332     0.633     1.250
   690   1 h        0.803     0.355     0.578     1.194
   691   8 o        1.608    -0.700    27.706     7.104
   692   1 h        0.803     0.358     0.569     1.185
   693   1 h        0.804     0.318     0.668     1.284
   694   8 o        1.608    -0.679    27.149     7.032
   695   1 h        0.805     0.321     0.661     1.277
   696   1 h        0.803     0.364     0.558     1.173
   697   8 o        1.607    -0.687    27.358     7.059
   698   1 h        0.803     0.360     0.565     1.181
   699   1 h        0.804     0.335     0.624     1.241
   700   8 o        1.605    -0.696    27.610     7.092
   701   1 h        0.802     0.360     0.566     1.182
   702   1 h        0.802     0.337     0.621     1.238
   703   8 o        1.608    -0.667    26.838     6.992
   704   1 h        0.804     0.323     0.656     1.273
   705   1 h        0.804     0.334     0.627     1.243
   706   8 o        1.609    -0.676    27.075     7.023
   707   1 h        0.805     0.328     0.643     1.260
   708   1 h        0.804     0.358     0.570     1.185
   709   8 o        1.607    -0.662    26.733     6.978
   710   1 h        0.803     0.335     0.624     1.241
   711   1 h        0.804     0.328     0.643     1.260
   712   8 o        1.607    -0.685    27.329     7.055
   713   1 h        0.805     0.331     0.636     1.252
   714   1 h        0.802     0.366     0.552     1.167
   715   8 o        1.610    -0.665    26.806     6.988
   716   1 h        0.805     0.329     0.639     1.256
   717   1 h        0.805     0.338     0.617     1.234
   718   8 o        1.610    -0.637    26.083     6.893
   719   1 h        0.806     0.318     0.669     1.284
   720   1 h        0.805     0.344     0.604     1.220
   721   8 o        1.608    -0.679    27.161     7.034
   722   1 h        0.804     0.338     0.618     1.235
   723   1 h        0.804     0.333     0.629     1.245
   724   8 o        1.605    -0.668    26.873     6.996
   725   1 h        0.802     0.329     0.640     1.257
   726   1 h        0.803     0.337     0.620     1.237
   727   8 o        1.608    -0.689    27.422     7.068
   728   1 h        0.805     0.329     0.640     1.256
   729   1 h        0.802     0.346     0.598     1.215
   730   8 o        1.608    -0.657    26.595     6.960
   731   1 h        0.804     0.324     0.653     1.269
   732   1 h        0.804     0.334     0.626     1.243
   733   8 o        1.609    -0.677    27.114     7.028
   734   1 h        0.805     0.335     0.625     1.241
   735   1 h        0.804     0.344     0.602     1.218
   736   8 o        1.607    -0.687    27.367     7.060
   737   1 h        0.805     0.321     0.660     1.276
   738   1 h        0.802     0.360     0.565     1.181
   739   8 o        1.609    -0.656    26.577     6.958
   740   1 h        0.804     0.339     0.613     1.230
   741   1 h        0.805     0.330     0.637     1.253
   742   8 o        1.608    -0.672    26.981     7.011
   743   1 h        0.803     0.356     0.575     1.191
   744   1 h        0.806     0.313     0.682     1.297
   745   8 o        1.607    -0.677    27.100     7.026
   746   1 h        0.804     0.340     0.612     1.229
   747   1 h        0.803     0.344     0.603     1.220
   748   8 o        1.607    -0.694    27.540     7.083
   749   1 h        0.803     0.344     0.602     1.219
   750   1 h        0.802     0.357     0.573     1.189
   751   8 o        1.610    -0.641    26.197     6.908
   752   1 h        0.804     0.345     0.600     1.217
   753   1 h        0.806     0.302     0.715     1.328
   754   8 o        1.611    -0.670    26.927     7.004
   755   1 h        0.805     0.322     0.657     1.273
   756   1 h        0.805     0.334     0.626     1.243

 Mol. C6AA /au·bohr⁶  :    2899659.012604
 Mol. C8AA /au·bohr⁸  :   52613811.712579
 Mol. α(0) /au        :       2393.162719


Wiberg/Mayer (AO) data.
largest (>0.10) Wiberg bond orders for each atom

 ---------------------------------------------------------------------------
     #   Z sym  total        # sym  WBO       # sym  WBO       # sym  WBO
 ---------------------------------------------------------------------------
     1   8 o    1.819 --     2 h    0.882     3 h    0.828
     2   1 h    0.900 --     1 o    0.882
     3   1 h    0.875 --     1 o    0.828
     4   8 o    1.872 --     5 h    0.856     6 h    0.781
     5   1 h    0.893 --     4 o    0.856
     6   1 h    0.864 --     4 o    0.781
     7   8 o    1.811 --     9 h    0.850     8 h    0.802
     8   1 h    0.877 --     7 o    0.802
     9   1 h    0.891 --     7 o    0.850
    10   8 o    1.896 --    12 h    0.832    11 h    0.827
    11   1 h    0.878 --    10 o    0.827
    12   1 h    0.882 --    10 o    0.832
    13   8 o    1.874 --    14 h    0.826    15 h    0.805
    14   1 h    0.878 --    13 o    0.826
    15   1 h    0.871 --    13 o    0.805
    16   8 o    1.855 --    18 h    0.814    17 h    0.800
    17   1 h    0.878 --    16 o    0.800
    18   1 h    0.878 --    16 o    0.814
    19   8 o    1.842 --    21 h    0.825    20 h    0.816
    20   1 h    0.881 --    19 o    0.816
    21   1 h    0.886 --    19 o    0.825
    22   8 o    1.861 --    23 h    0.843    24 h    0.818
    23   1 h    0.877 --    22 o    0.843
    24   1 h    0.884 --    22 o    0.818
    25   8 o    1.885 --    26 h    0.821    27 h    0.803
    26   1 h    0.880 --    25 o    0.821
    27   1 h    0.873 --    25 o    0.803
    28   8 o    1.803 --    29 h    0.855    30 h    0.852
    29   1 h    0.894 --    28 o    0.855
    30   1 h    0.884 --    28 o    0.852
    31   8 o    1.858 --    32 h    0.817    33 h    0.790
    32   1 h    0.882 --    31 o    0.817
    33   1 h    0.871 --    31 o    0.790
    34   8 o    1.836 --    36 h    0.832    35 h    0.815
    35   1 h    0.883 --    34 o    0.815
    36   1 h    0.879 --    34 o    0.832
    37   8 o    1.827 --    38 h    0.825    39 h    0.792
    38   1 h    0.887 --    37 o    0.825
    39   1 h    0.879 --    37 o    0.792
    40   8 o    1.851 --    41 h    0.820    42 h    0.812
    41   1 h    0.880 --    40 o    0.820
    42   1 h    0.881 --    40 o    0.812
    43   8 o    1.872 --    44 h    0.827    45 h    0.825
    44   1 h    0.875 --    43 o    0.827
    45   1 h    0.885 --    43 o    0.825
    46   8 o    1.877 --    47 h    0.833    48 h    0.798
    47   1 h    0.882 --    46 o    0.833
    48   1 h    0.874 --    46 o    0.798
    49   8 o    1.824 --    51 h    0.826    50 h    0.804
    50   1 h    0.886 --    49 o    0.804
    51   1 h    0.887 --    49 o    0.826
    52   8 o    1.819 --    54 h    0.845    53 h    0.836
    53   1 h    0.890 --    52 o    0.836
    54   1 h    0.889 --    52 o    0.845
    55   8 o    1.839 --    57 h    0.840    56 h    0.823
    56   1 h    0.878 --    55 o    0.823
    57   1 h    0.893 --    55 o    0.840
    58   8 o    1.873 --    60 h    0.796    59 h    0.779
    59   1 h    0.877 --    58 o    0.779
    60   1 h    0.878 --    58 o    0.796
    61   8 o    1.866 --    63 h    0.814    62 h    0.810
    62   1 h    0.874 --    61 o    0.810
    63   1 h    0.880 --    61 o    0.814
    64   8 o    1.806 --    65 h    0.854    66 h    0.839
    65   1 h    0.890 --    64 o    0.854
    66   1 h    0.887 --    64 o    0.839
    67   8 o    1.862 --    69 h    0.826    68 h    0.798
    68   1 h    0.878 --    67 o    0.798
    69   1 h    0.881 --    67 o    0.826
    70   8 o    1.857 --    71 h    0.854    72 h    0.802
    71   1 h    0.893 --    70 o    0.854
    72   1 h    0.873 --    70 o    0.802
    73   8 o    1.821 --    75 h    0.840    74 h    0.766
    74   1 h    0.869 --    73 o    0.766
    75   1 h    0.896 --    73 o    0.840
    76   8 o    1.857 --    78 h    0.842    77 h    0.801
    77   1 h    0.874 --    76 o    0.801
    78   1 h    0.883 --    76 o    0.842
    79   8 o    1.859 --    80 h    0.818    81 h    0.813
    80   1 h    0.877 --    79 o    0.818
    81   1 h    0.880 --    79 o    0.813
    82   8 o    1.803 --    83 h    0.842    84 h    0.830
    83   1 h    0.885 --    82 o    0.842
    84   1 h    0.884 --    82 o    0.830
    85   8 o    1.855 --    86 h    0.831    87 h    0.831
    86   1 h    0.886 --    85 o    0.831
    87   1 h    0.882 --    85 o    0.831
    88   8 o    1.872 --    89 h    0.818    90 h    0.811
    89   1 h    0.878 --    88 o    0.818
    90   1 h    0.877 --    88 o    0.811
    91   8 o    1.889 --    92 h    0.848    93 h    0.801
    92   1 h    0.884 --    91 o    0.848
    93   1 h    0.881 --    91 o    0.801
    94   8 o    1.852 --    95 h    0.830    96 h    0.814
    95   1 h    0.874 --    94 o    0.830
    96   1 h    0.880 --    94 o    0.814
    97   8 o    1.843 --    99 h    0.830    98 h    0.807
    98   1 h    0.875 --    97 o    0.807
    99   1 h    0.894 --    97 o    0.830
   100   8 o    1.855 --   101 h    0.821   102 h    0.800
   101   1 h    0.884 --   100 o    0.821
   102   1 h    0.874 --   100 o    0.800
   103   8 o    1.770 --   104 h    0.867   105 h    0.813
   104   1 h    0.898 --   103 o    0.867
   105   1 h    0.894 --   103 o    0.813
   106   8 o    1.805 --   108 h    0.857   107 h    0.822
   107   1 h    0.888 --   106 o    0.822
   108   1 h    0.893 --   106 o    0.857
   109   8 o    1.871 --   111 h    0.870   110 h    0.836
   110   1 h    0.881 --   109 o    0.836
   111   1 h    0.890 --   109 o    0.870
   112   8 o    1.867 --   113 h    0.834   114 h    0.811
   113   1 h    0.885 --   112 o    0.834
   114   1 h    0.883 --   112 o    0.811
   115   8 o    1.880 --   117 h    0.816   116 h    0.800
   116   1 h    0.881 --   115 o    0.800
   117   1 h    0.882 --   115 o    0.816
   118   8 o    1.838 --   120 h    0.877   119 h    0.797
   119   1 h    0.868 --   118 o    0.797
   120   1 h    0.898 --   118 o    0.877
   121   8 o    1.826 --   123 h    0.828   122 h    0.824
   122   1 h    0.885 --   121 o    0.824
   123   1 h    0.888 --   121 o    0.828
   124   8 o    1.836 --   125 h    0.833   126 h    0.817
   125   1 h    0.881 --   124 o    0.833
   126   1 h    0.884 --   124 o    0.817
   127   8 o    1.848 --   129 h    0.826   128 h    0.814
   128   1 h    0.880 --   127 o    0.814
   129   1 h    0.891 --   127 o    0.826
   130   8 o    1.862 --   132 h    0.814   131 h    0.784
   131   1 h    0.871 --   130 o    0.784
   132   1 h    0.875 --   130 o    0.814
   133   8 o    1.846 --   134 h    0.835   135 h    0.830
   134   1 h    0.890 --   133 o    0.835
   135   1 h    0.890 --   133 o    0.830
   136   8 o    1.846 --   138 h    0.834   137 h    0.816
   137   1 h    0.880 --   136 o    0.816
   138   1 h    0.878 --   136 o    0.834
   139   8 o    1.819 --   141 h    0.861   140 h    0.861
   140   1 h    0.890 --   139 o    0.861
   141   1 h    0.885 --   139 o    0.861
   142   8 o    1.845 --   144 h    0.862   143 h    0.791
   143   1 h    0.867 --   142 o    0.791
   144   1 h    0.893 --   142 o    0.862
   145   8 o    1.818 --   146 h    0.844   147 h    0.841
   146   1 h    0.891 --   145 o    0.844
   147   1 h    0.883 --   145 o    0.841
   148   8 o    1.830 --   150 h    0.817   149 h    0.773
   149   1 h    0.880 --   148 o    0.773
   150   1 h    0.880 --   148 o    0.817
   151   8 o    1.843 --   153 h    0.846   152 h    0.809
   152   1 h    0.870 --   151 o    0.809
   153   1 h    0.897 --   151 o    0.846
   154   8 o    1.807 --   156 h    0.867   155 h    0.827
   155   1 h    0.884 --   154 o    0.827
   156   1 h    0.893 --   154 o    0.867
   157   8 o    1.883 --   159 h    0.835   158 h    0.797
   158   1 h    0.870 --   157 o    0.797
   159   1 h    0.881 --   157 o    0.835
   160   8 o    1.841 --   161 h    0.874   162 h    0.815
   161   1 h    0.895 --   160 o    0.874
   162   1 h    0.882 --   160 o    0.815
   163   8 o    1.869 --   164 h    0.820   165 h    0.802
   164   1 h    0.888 --   163 o    0.820
   165   1 h    0.871 --   163 o    0.802
   166   8 o    1.866 --   168 h    0.822   167 h    0.821
   167   1 h    0.883 --   166 o    0.821
   168   1 h    0.880 --   166 o    0.822
   169   8 o    1.866 --   171 h    0.837   170 h    0.813
   170   1 h    0.880 --   169 o    0.813
   171   1 h    0.890 --   169 o    0.837
   172   8 o    1.840 --   174 h    0.857   173 h    0.822
   173   1 h    0.881 --   172 o    0.822
   174   1 h    0.892 --   172 o    0.857
   175   8 o    1.905 --   177 h    0.821   176 h    0.809
   176   1 h    0.872 --   175 o    0.809
   177   1 h    0.876 --   175 o    0.821
   178   8 o    1.864 --   179 h    0.900   180 h    0.807
   179   1 h    0.905 --   178 o    0.900
   180   1 h    0.879 --   178 o    0.807
   181   8 o    1.842 --   183 h    0.858   182 h    0.794
   182   1 h    0.867 --   181 o    0.794
   183   1 h    0.893 --   181 o    0.858
   184   8 o    1.870 --   186 h    0.819   185 h    0.754
   185   1 h    0.868 --   184 o    0.754   748 o    0.109
   186   1 h    0.891 --   184 o    0.819
   187   8 o    1.860 --   189 h    0.822   188 h    0.814
   188   1 h    0.880 --   187 o    0.814
   189   1 h    0.879 --   187 o    0.822
   190   8 o    1.881 --   191 h    0.841   192 h    0.825
   191   1 h    0.890 --   190 o    0.841
   192   1 h    0.882 --   190 o    0.825
   193   8 o    1.832 --   194 h    0.905   195 h    0.817
   194   1 h    0.908 --   193 o    0.905
   195   1 h    0.879 --   193 o    0.817
   196   8 o    1.829 --   198 h    0.891   197 h    0.787
   197   1 h    0.879 --   196 o    0.787
   198   1 h    0.901 --   196 o    0.891
   199   8 o    1.864 --   201 h    0.823   200 h    0.799
   200   1 h    0.870 --   199 o    0.799
   201   1 h    0.893 --   199 o    0.823
   202   8 o    1.859 --   203 h    0.852   204 h    0.826
   203   1 h    0.889 --   202 o    0.852
   204   1 h    0.886 --   202 o    0.826
   205   8 o    1.835 --   207 h    0.847   206 h    0.834
   206   1 h    0.890 --   205 o    0.834
   207   1 h    0.887 --   205 o    0.847
   208   8 o    1.845 --   210 h    0.813   209 h    0.776
   209   1 h    0.872 --   208 o    0.776
   210   1 h    0.893 --   208 o    0.813
   211   8 o    1.825 --   212 h    0.835   213 h    0.832
   212   1 h    0.887 --   211 o    0.835
   213   1 h    0.884 --   211 o    0.832
   214   8 o    1.854 --   215 h    0.838   216 h    0.790
   215   1 h    0.886 --   214 o    0.838
   216   1 h    0.875 --   214 o    0.790
   217   8 o    1.845 --   219 h    0.842   218 h    0.800
   218   1 h    0.879 --   217 o    0.800
   219   1 h    0.880 --   217 o    0.842
   220   8 o    1.860 --   221 h    0.836   222 h    0.822
   221   1 h    0.883 --   220 o    0.836
   222   1 h    0.890 --   220 o    0.822
   223   8 o    1.899 --   224 h    0.887   225 h    0.812
   224   1 h    0.900 --   223 o    0.887
   225   1 h    0.866 --   223 o    0.812
   226   8 o    1.840 --   228 h    0.844   227 h    0.818
   227   1 h    0.875 --   226 o    0.818
   228   1 h    0.896 --   226 o    0.844
   229   8 o    1.824 --   231 h    0.863   230 h    0.839
   230   1 h    0.886 --   229 o    0.839
   231   1 h    0.902 --   229 o    0.863
   232   8 o    1.852 --   233 h    0.867   234 h    0.844
   233   1 h    0.892 --   232 o    0.867
   234   1 h    0.890 --   232 o    0.844
   235   8 o    1.867 --   237 h    0.848   236 h    0.824
   236   1 h    0.883 --   235 o    0.824
   237   1 h    0.891 --   235 o    0.848
   238   8 o    1.809 --   240 h    0.858   239 h    0.834
   239   1 h    0.887 --   238 o    0.834
   240   1 h    0.891 --   238 o    0.858
   241   8 o    1.880 --   242 h    0.832   243 h    0.824
   242   1 h    0.887 --   241 o    0.832
   243   1 h    0.873 --   241 o    0.824
   244   8 o    1.857 --   246 h    0.861   245 h    0.773
   245   1 h    0.876 --   244 o    0.773
   246   1 h    0.895 --   244 o    0.861
   247   8 o    1.862 --   248 h    0.792   249 h    0.792
   248   1 h    0.874 --   247 o    0.792
   249   1 h    0.877 --   247 o    0.792
   250   8 o    1.856 --   252 h    0.880   251 h    0.798
   251   1 h    0.870 --   250 o    0.798
   252   1 h    0.901 --   250 o    0.880
   253   8 o    1.889 --   254 h    0.855   255 h    0.809
   254   1 h    0.892 --   253 o    0.855
   255   1 h    0.880 --   253 o    0.809
   256   8 o    1.810 --   257 h    0.829   258 h    0.820
   257   1 h    0.889 --   256 o    0.829
   258   1 h    0.873 --   256 o    0.820
   259   8 o    1.823 --   260 h    0.873   261 h    0.821
   260   1 h    0.894 --   259 o    0.873
   261   1 h    0.875 --   259 o    0.821
   262   8 o    1.843 --   264 h    0.821   263 h    0.787
   263   1 h    0.870 --   262 o    0.787
   264   1 h    0.879 --   262 o    0.821
   265   8 o    1.898 --   266 h    0.816   267 h    0.813
   266   1 h    0.889 --   265 o    0.816
   267   1 h    0.885 --   265 o    0.813
   268   8 o    1.840 --   270 h    0.902   269 h    0.828
   269   1 h    0.879 --   268 o    0.828
   270   1 h    0.906 --   268 o    0.902
   271   8 o    1.873 --   272 h    0.827   273 h    0.802
   272   1 h    0.893 --   271 o    0.827
   273   1 h    0.878 --   271 o    0.802
   274   8 o    1.833 --   275 h    0.858   276 h    0.813
   275   1 h    0.892 --   274 o    0.858
   276   1 h    0.876 --   274 o    0.813
   277   8 o    1.853 --   278 h    0.893   279 h    0.808
   278   1 h    0.905 --   277 o    0.893
   279   1 h    0.880 --   277 o    0.808
   280   8 o    1.881 --   281 h    0.819   282 h    0.812
   281   1 h    0.878 --   280 o    0.819
   282   1 h    0.877 --   280 o    0.812
   283   8 o    1.871 --   285 h    0.867   284 h    0.818
   284   1 h    0.882 --   283 o    0.818
   285   1 h    0.895 --   283 o    0.867
   286   8 o    1.836 --   288 h    0.864   287 h    0.799
   287   1 h    0.873 --   286 o    0.799
   288   1 h    0.896 --   286 o    0.864
   289   8 o    1.814 --   291 h    0.846   290 h    0.819
   290   1 h    0.880 --   289 o    0.819
   291   1 h    0.886 --   289 o    0.846
   292   8 o    1.808 --   293 h    0.845   294 h    0.841
   293   1 h    0.887 --   292 o    0.845
   294   1 h    0.889 --   292 o    0.841
   295   8 o    1.826 --   297 h    0.864   296 h    0.774
   296   1 h    0.866 --   295 o    0.774
   297   1 h    0.901 --   295 o    0.864
   298   8 o    1.809 --   300 h    0.830   299 h    0.795
   299   1 h    0.883 --   298 o    0.795
   300   1 h    0.887 --   298 o    0.830
   301   8 o    1.861 --   302 h    0.851   303 h    0.814
   302   1 h    0.894 --   301 o    0.851
   303   1 h    0.879 --   301 o    0.814
   304   8 o    1.848 --   305 h    0.883   306 h    0.858
   305   1 h    0.894 --   304 o    0.883
   306   1 h    0.887 --   304 o    0.858
   307   8 o    1.865 --   308 h    0.839   309 h    0.809
   308   1 h    0.892 --   307 o    0.839
   309   1 h    0.874 --   307 o    0.809
   310   8 o    1.868 --   311 h    0.824   312 h    0.801
   311   1 h    0.880 --   310 o    0.824
   312   1 h    0.874 --   310 o    0.801
   313   8 o    1.818 --   314 h    0.853   315 h    0.806
   314   1 h    0.898 --   313 o    0.853
   315   1 h    0.872 --   313 o    0.806
   316   8 o    1.844 --   318 h    0.887   317 h    0.830
   317   1 h    0.879 --   316 o    0.830
   318   1 h    0.893 --   316 o    0.887
   319   8 o    1.841 --   321 h    0.864   320 h    0.761
   320   1 h    0.866 --   319 o    0.761
   321   1 h    0.899 --   319 o    0.864
   322   8 o    1.881 --   323 h    0.822   324 h    0.760
   323   1 h    0.881 --   322 o    0.822
   324   1 h    0.864 --   322 o    0.760
   325   8 o    1.813 --   326 h    0.861   327 h    0.821
   326   1 h    0.889 --   325 o    0.861
   327   1 h    0.878 --   325 o    0.821
   328   8 o    1.818 --   330 h    0.902   329 h    0.778
   329   1 h    0.871 --   328 o    0.778
   330   1 h    0.908 --   328 o    0.902
   331   8 o    1.859 --   332 h    0.839   333 h    0.799
   332   1 h    0.885 --   331 o    0.839
   333   1 h    0.870 --   331 o    0.799
   334   8 o    1.873 --   336 h    0.838   335 h    0.804
   335   1 h    0.887 --   334 o    0.804
   336   1 h    0.878 --   334 o    0.838
   337   8 o    1.864 --   339 h    0.838   338 h    0.815
   338   1 h    0.874 --   337 o    0.815
   339   1 h    0.880 --   337 o    0.838
   340   8 o    1.829 --   341 h    0.888   342 h    0.816
   341   1 h    0.902 --   340 o    0.888
   342   1 h    0.887 --   340 o    0.816
   343   8 o    1.848 --   344 h    0.830   345 h    0.813
   344   1 h    0.875 --   343 o    0.830
   345   1 h    0.877 --   343 o    0.813
   346   8 o    1.813 --   348 h    0.827   347 h    0.802
   347   1 h    0.886 --   346 o    0.802
   348   1 h    0.889 --   346 o    0.827
   349   8 o    1.856 --   351 h    0.854   350 h    0.809
   350   1 h    0.877 --   349 o    0.809
   351   1 h    0.887 --   349 o    0.854
   352   8 o    1.815 --   354 h    0.875   353 h    0.839
   353   1 h    0.888 --   352 o    0.839
   354   1 h    0.896 --   352 o    0.875
   355   8 o    1.836 --   357 h    0.863   356 h    0.834
   356   1 h    0.878 --   355 o    0.834
   357   1 h    0.891 --   355 o    0.863
   358   8 o    1.835 --   360 h    0.880   359 h    0.805
   359   1 h    0.881 --   358 o    0.805
   360   1 h    0.899 --   358 o    0.880
   361   8 o    1.842 --   362 h    0.866   363 h    0.789
   362   1 h    0.898 --   361 o    0.866
   363   1 h    0.866 --   361 o    0.789
   364   8 o    1.824 --   365 h    0.838   366 h    0.822
[...]
   369   1 h    0.883 --   367 o    0.825
   370   8 o    1.800 --   372 h    0.860   371 h    0.836
   371   1 h    0.887 --   370 o    0.836
   372   1 h    0.891 --   370 o    0.860
   373   8 o    1.809 --   374 h    0.893   375 h    0.831
   374   1 h    0.901 --   373 o    0.893
   375   1 h    0.882 --   373 o    0.831
   376   8 o    1.877 --   377 h    0.807   378 h    0.781
   377   1 h    0.891 --   376 o    0.807
   378   1 h    0.870 --   376 o    0.781
   379   8 o    1.799 --   380 h    0.830   381 h    0.806
   380   1 h    0.891 --   379 o    0.830
   381   1 h    0.875 --   379 o    0.806
   382   8 o    1.855 --   384 h    0.829   383 h    0.828
   383   1 h    0.891 --   382 o    0.828
   384   1 h    0.876 --   382 o    0.829
   385   8 o    1.843 --   387 h    0.848   386 h    0.790
   386   1 h    0.870 --   385 o    0.790
   387   1 h    0.894 --   385 o    0.848
   388   8 o    1.890 --   389 h    0.838   390 h    0.815
   389   1 h    0.882 --   388 o    0.838
   390   1 h    0.875 --   388 o    0.815
   391   8 o    1.844 --   392 h    0.877   393 h    0.799
   392   1 h    0.896 --   391 o    0.877
   393   1 h    0.867 --   391 o    0.799
   394   8 o    1.809 --   396 h    0.873   395 h    0.838
   395   1 h    0.883 --   394 o    0.838
   396   1 h    0.892 --   394 o    0.873
   397   8 o    1.827 --   399 h    0.893   398 h    0.762
   398   1 h    0.865 --   397 o    0.762
   399   1 h    0.906 --   397 o    0.893
   400   8 o    1.840 --   402 h    0.852   401 h    0.814
   401   1 h    0.888 --   400 o    0.814
   402   1 h    0.891 --   400 o    0.852
   403   8 o    1.881 --   405 h    0.824   404 h    0.817
   404   1 h    0.880 --   403 o    0.817
   405   1 h    0.882 --   403 o    0.824
   406   8 o    1.863 --   407 h    0.833   408 h    0.819
   407   1 h    0.889 --   406 o    0.833
   408   1 h    0.886 --   406 o    0.819
   409   8 o    1.841 --   410 h    0.855   411 h    0.825
   410   1 h    0.889 --   409 o    0.855
   411   1 h    0.878 --   409 o    0.825
   412   8 o    1.839 --   414 h    0.842   413 h    0.822
   413   1 h    0.881 --   412 o    0.822
   414   1 h    0.882 --   412 o    0.842
   415   8 o    1.870 --   417 h    0.833   416 h    0.821
   416   1 h    0.882 --   415 o    0.821
   417   1 h    0.892 --   415 o    0.833
   418   8 o    1.872 --   419 h    0.817   420 h    0.804
   419   1 h    0.871 --   418 o    0.817
   420   1 h    0.876 --   418 o    0.804
   421   8 o    1.842 --   422 h    0.843   423 h    0.795
   422   1 h    0.900 --   421 o    0.843
   423   1 h    0.881 --   421 o    0.795
   424   8 o    1.819 --   425 h    0.845   426 h    0.839
   425   1 h    0.885 --   424 o    0.845
   426   1 h    0.892 --   424 o    0.839
   427   8 o    1.824 --   428 h    0.861   429 h    0.840
   428   1 h    0.896 --   427 o    0.861
   429   1 h    0.886 --   427 o    0.840
   430   8 o    1.826 --   431 h    0.848   432 h    0.838
   431   1 h    0.882 --   430 o    0.848
   432   1 h    0.886 --   430 o    0.838
   433   8 o    1.826 --   435 h    0.823   434 h    0.813
   434   1 h    0.885 --   433 o    0.813
   435   1 h    0.881 --   433 o    0.823
   436   8 o    1.836 --   438 h    0.844   437 h    0.840
   437   1 h    0.886 --   436 o    0.840
   438   1 h    0.893 --   436 o    0.844
   439   8 o    1.828 --   441 h    0.861   440 h    0.815
   440   1 h    0.871 --   439 o    0.815
   441   1 h    0.891 --   439 o    0.861
   442   8 o    1.854 --   444 h    0.830   443 h    0.828
   443   1 h    0.889 --   442 o    0.828
   444   1 h    0.883 --   442 o    0.830
   445   8 o    1.826 --   446 h    0.841   447 h    0.817
   446   1 h    0.890 --   445 o    0.841
   447   1 h    0.882 --   445 o    0.817
   448   8 o    1.825 --   449 h    0.851   450 h    0.830
   449   1 h    0.897 --   448 o    0.851
   450   1 h    0.894 --   448 o    0.830
   451   8 o    1.881 --   453 h    0.814   452 h    0.778
   452   1 h    0.869 --   451 o    0.778
   453   1 h    0.879 --   451 o    0.814
   454   8 o    1.897 --   455 h    0.840   456 h    0.773
   455   1 h    0.882 --   454 o    0.840
   456   1 h    0.864 --   454 o    0.773
   457   8 o    1.855 --   458 h    0.833   459 h    0.789
   458   1 h    0.889 --   457 o    0.833
   459   1 h    0.873 --   457 o    0.789
   460   8 o    1.844 --   461 h    0.836   462 h    0.826
   461   1 h    0.891 --   460 o    0.836
   462   1 h    0.890 --   460 o    0.826
   463   8 o    1.856 --   465 h    0.849   464 h    0.783
   464   1 h    0.874 --   463 o    0.783
   465   1 h    0.891 --   463 o    0.849
   466   8 o    1.848 --   467 h    0.855   468 h    0.837
   467   1 h    0.892 --   466 o    0.855
   468   1 h    0.888 --   466 o    0.837
   469   8 o    1.881 --   471 h    0.836   470 h    0.816
   470   1 h    0.871 --   469 o    0.816
   471   1 h    0.883 --   469 o    0.836
   472   8 o    1.819 --   473 h    0.860   474 h    0.858
   473   1 h    0.888 --   472 o    0.860
   474   1 h    0.887 --   472 o    0.858
   475   8 o    1.836 --   477 h    0.827   476 h    0.820
   476   1 h    0.878 --   475 o    0.820
   477   1 h    0.878 --   475 o    0.827
   478   8 o    1.851 --   480 h    0.888   479 h    0.808
   479   1 h    0.872 --   478 o    0.808
   480   1 h    0.901 --   478 o    0.888
   481   8 o    1.812 --   483 h    0.845   482 h    0.843
   482   1 h    0.888 --   481 o    0.843
   483   1 h    0.886 --   481 o    0.845
   484   8 o    1.835 --   485 h    0.840   486 h    0.827
   485   1 h    0.889 --   484 o    0.840
   486   1 h    0.889 --   484 o    0.827
   487   8 o    1.846 --   488 h    0.840   489 h    0.819
   488   1 h    0.896 --   487 o    0.840
   489   1 h    0.873 --   487 o    0.819
   490   8 o    1.844 --   492 h    0.845   491 h    0.845
   491   1 h    0.899 --   490 o    0.845
   492   1 h    0.891 --   490 o    0.845
   493   8 o    1.792 --   494 h    0.861   495 h    0.836
   494   1 h    0.893 --   493 o    0.861
   495   1 h    0.886 --   493 o    0.836
   496   8 o    1.824 --   498 h    0.875   497 h    0.825
   497   1 h    0.878 --   496 o    0.825
   498   1 h    0.895 --   496 o    0.875
   499   8 o    1.855 --   500 h    0.858   501 h    0.803
   500   1 h    0.896 --   499 o    0.858
   501   1 h    0.862 --   499 o    0.803
   502   8 o    1.811 --   503 h    0.864   504 h    0.813
   503   1 h    0.894 --   502 o    0.864
   504   1 h    0.887 --   502 o    0.813
   505   8 o    1.838 --   506 h    0.866   507 h    0.806
   506   1 h    0.893 --   505 o    0.866
   507   1 h    0.880 --   505 o    0.806
   508   8 o    1.846 --   510 h    0.839   509 h    0.793
   509   1 h    0.876 --   508 o    0.793
   510   1 h    0.894 --   508 o    0.839
   511   8 o    1.854 --   512 h    0.823   513 h    0.794
   512   1 h    0.886 --   511 o    0.823
   513   1 h    0.873 --   511 o    0.794
   514   8 o    1.868 --   516 h    0.832   515 h    0.798
   515   1 h    0.872 --   514 o    0.798
   516   1 h    0.888 --   514 o    0.832
   517   8 o    1.850 --   518 h    0.897   519 h    0.814
   518   1 h    0.902 --   517 o    0.897
   519   1 h    0.878 --   517 o    0.814
   520   8 o    1.842 --   522 h    0.860   521 h    0.834
   521   1 h    0.878 --   520 o    0.834
   522   1 h    0.889 --   520 o    0.860
   523   8 o    1.803 --   524 h    0.856   525 h    0.844
   524   1 h    0.890 --   523 o    0.856
   525   1 h    0.889 --   523 o    0.844
   526   8 o    1.821 --   527 h    0.877   528 h    0.850
   527   1 h    0.894 --   526 o    0.877
   528   1 h    0.881 --   526 o    0.850
   529   8 o    1.886 --   531 h    0.826   530 h    0.808
   530   1 h    0.880 --   529 o    0.808
   531   1 h    0.878 --   529 o    0.826
   532   8 o    1.821 --   534 h    0.882   533 h    0.791
   533   1 h    0.864 --   532 o    0.791
   534   1 h    0.899 --   532 o    0.882
   535   8 o    1.842 --   537 h    0.863   536 h    0.811
   536   1 h    0.869 --   535 o    0.811
   537   1 h    0.895 --   535 o    0.863
   538   8 o    1.827 --   539 h    0.850   540 h    0.812
   539   1 h    0.896 --   538 o    0.850
   540   1 h    0.873 --   538 o    0.812
   541   8 o    1.872 --   543 h    0.822   542 h    0.814
   542   1 h    0.886 --   541 o    0.814
   543   1 h    0.886 --   541 o    0.822
   544   8 o    1.832 --   546 h    0.829   545 h    0.813
   545   1 h    0.878 --   544 o    0.813
   546   1 h    0.887 --   544 o    0.829
   547   8 o    1.854 --   549 h    0.832   548 h    0.824
   548   1 h    0.893 --   547 o    0.824
   549   1 h    0.888 --   547 o    0.832
   550   8 o    1.854 --   551 h    0.896   552 h    0.796
   551   1 h    0.901 --   550 o    0.896
   552   1 h    0.872 --   550 o    0.796
   553   8 o    1.821 --   554 h    0.892   555 h    0.803
   554   1 h    0.901 --   553 o    0.892
   555   1 h    0.879 --   553 o    0.803
   556   8 o    1.861 --   557 h    0.859   558 h    0.779
   557   1 h    0.898 --   556 o    0.859
   558   1 h    0.872 --   556 o    0.779
   559   8 o    1.820 --   561 h    0.875   560 h    0.789
   560   1 h    0.874 --   559 o    0.789
   561   1 h    0.899 --   559 o    0.875
   562   8 o    1.847 --   563 h    0.817   564 h    0.806
   563   1 h    0.882 --   562 o    0.817
   564   1 h    0.872 --   562 o    0.806
   565   8 o    1.818 --   566 h    0.841   567 h    0.782
   566   1 h    0.891 --   565 o    0.841
   567   1 h    0.876 --   565 o    0.782
   568   8 o    1.832 --   570 h    0.864   569 h    0.811
   569   1 h    0.873 --   568 o    0.811
   570   1 h    0.896 --   568 o    0.864
   571   8 o    1.845 --   572 h    0.827   573 h    0.814
   572   1 h    0.886 --   571 o    0.827
   573   1 h    0.882 --   571 o    0.814
   574   8 o    1.808 --   575 h    0.872   576 h    0.810
   575   1 h    0.896 --   574 o    0.872
   576   1 h    0.879 --   574 o    0.810
   577   8 o    1.833 --   578 h    0.898   579 h    0.778
   578   1 h    0.907 --   577 o    0.898
   579   1 h    0.865 --   577 o    0.778
   580   8 o    1.812 --   582 h    0.865   581 h    0.809
   581   1 h    0.883 --   580 o    0.809
   582   1 h    0.895 --   580 o    0.865
   583   8 o    1.873 --   584 h    0.863   585 h    0.771
   584   1 h    0.889 --   583 o    0.863
   585   1 h    0.866 --   583 o    0.771
   586   8 o    1.824 --   587 h    0.843   588 h    0.840
   587   1 h    0.891 --   586 o    0.843
   588   1 h    0.897 --   586 o    0.840
   589   8 o    1.870 --   590 h    0.815   591 h    0.784
   590   1 h    0.888 --   589 o    0.815
   591   1 h    0.875 --   589 o    0.784
   592   8 o    1.841 --   593 h    0.892   594 h    0.821
   593   1 h    0.903 --   592 o    0.892
   594   1 h    0.882 --   592 o    0.821
   595   8 o    1.835 --   597 h    0.888   596 h    0.817
   596   1 h    0.871 --   595 o    0.817
   597   1 h    0.898 --   595 o    0.888
   598   8 o    1.833 --   600 h    0.873   599 h    0.810
   599   1 h    0.867 --   598 o    0.810
   600   1 h    0.898 --   598 o    0.873
   601   8 o    1.879 --   602 h    0.892   603 h    0.811
   602   1 h    0.900 --   601 o    0.892
   603   1 h    0.880 --   601 o    0.811
   604   8 o    1.859 --   606 h    0.848   605 h    0.811
   605   1 h    0.872 --   604 o    0.811
   606   1 h    0.893 --   604 o    0.848
   607   8 o    1.846 --   608 h    0.832   609 h    0.798
   608   1 h    0.887 --   607 o    0.832
   609   1 h    0.862 --   607 o    0.798
   610   8 o    1.884 --   611 h    0.814   612 h    0.804
   611   1 h    0.877 --   610 o    0.814
   612   1 h    0.874 --   610 o    0.804
   613   8 o    1.818 --   615 h    0.848   614 h    0.836
   614   1 h    0.886 --   613 o    0.836
   615   1 h    0.889 --   613 o    0.848
   616   8 o    1.819 --   617 h    0.869   618 h    0.792
   617   1 h    0.897 --   616 o    0.869
   618   1 h    0.876 --   616 o    0.792
   619   8 o    1.821 --   620 h    0.874   621 h    0.837
   620   1 h    0.895 --   619 o    0.874
   621   1 h    0.887 --   619 o    0.837
   622   8 o    1.819 --   624 h    0.821   623 h    0.815
   623   1 h    0.883 --   622 o    0.815
   624   1 h    0.887 --   622 o    0.821
   625   8 o    1.837 --   626 h    0.853   627 h    0.846
   626   1 h    0.888 --   625 o    0.853
   627   1 h    0.882 --   625 o    0.846
   628   8 o    1.854 --   629 h    0.837   630 h    0.826
   629   1 h    0.875 --   628 o    0.837
   630   1 h    0.884 --   628 o    0.826
   631   8 o    1.860 --   633 h    0.814   632 h    0.798
   632   1 h    0.872 --   631 o    0.798
   633   1 h    0.878 --   631 o    0.814
   634   8 o    1.847 --   636 h    0.822   635 h    0.800
   635   1 h    0.868 --   634 o    0.800
   636   1 h    0.883 --   634 o    0.822
   637   8 o    1.809 --   638 h    0.859   639 h    0.807
   638   1 h    0.891 --   637 o    0.859
   639   1 h    0.869 --   637 o    0.807
   640   8 o    1.852 --   642 h    0.866   641 h    0.846
   641   1 h    0.886 --   640 o    0.846
   642   1 h    0.888 --   640 o    0.866
   643   8 o    1.872 --   645 h    0.842   644 h    0.818
   644   1 h    0.881 --   643 o    0.818
   645   1 h    0.882 --   643 o    0.842
   646   8 o    1.835 --   647 h    0.845   648 h    0.797
   647   1 h    0.896 --   646 o    0.845
   648   1 h    0.885 --   646 o    0.797
   649   8 o    1.838 --   651 h    0.840   650 h    0.803
   650   1 h    0.874 --   649 o    0.803
   651   1 h    0.894 --   649 o    0.840
   652   8 o    1.826 --   654 h    0.864   653 h    0.820
   653   1 h    0.883 --   652 o    0.820
   654   1 h    0.894 --   652 o    0.864
   655   8 o    1.819 --   656 h    0.876   657 h    0.813
   656   1 h    0.901 --   655 o    0.876
   657   1 h    0.882 --   655 o    0.813
   658   8 o    1.825 --   660 h    0.868   659 h    0.793
   659   1 h    0.865 --   658 o    0.793
   660   1 h    0.893 --   658 o    0.868
   661   8 o    1.827 --   663 h    0.826   662 h    0.819
   662   1 h    0.885 --   661 o    0.819
   663   1 h    0.890 --   661 o    0.826
   664   8 o    1.839 --   666 h    0.845   665 h    0.794
   665   1 h    0.878 --   664 o    0.794
   666   1 h    0.891 --   664 o    0.845
   667   8 o    1.833 --   669 h    0.845   668 h    0.812
   668   1 h    0.881 --   667 o    0.812
   669   1 h    0.888 --   667 o    0.845
   670   8 o    1.856 --   672 h    0.816   671 h    0.811
   671   1 h    0.872 --   670 o    0.811
   672   1 h    0.877 --   670 o    0.816
   673   8 o    1.838 --   674 h    0.851   675 h    0.849
   674   1 h    0.885 --   673 o    0.851
   675   1 h    0.884 --   673 o    0.849
   676   8 o    1.884 --   678 h    0.852   677 h    0.822
   677   1 h    0.881 --   676 o    0.822
   678   1 h    0.886 --   676 o    0.852
   679   8 o    1.831 --   680 h    0.891   681 h    0.827
   680   1 h    0.902 --   679 o    0.891
   681   1 h    0.885 --   679 o    0.827
   682   8 o    1.892 --   683 h    0.840   684 h    0.825
   683   1 h    0.883 --   682 o    0.840
   684   1 h    0.874 --   682 o    0.825
   685   8 o    1.837 --   687 h    0.840   686 h    0.803
   686   1 h    0.875 --   685 o    0.803
   687   1 h    0.894 --   685 o    0.840
   688   8 o    1.852 --   689 h    0.862   690 h    0.809
   689   1 h    0.890 --   688 o    0.862
   690   1 h    0.874 --   688 o    0.809
   691   8 o    1.809 --   693 h    0.850   692 h    0.813
   692   1 h    0.872 --   691 o    0.813
   693   1 h    0.898 --   691 o    0.850
   694   8 o    1.839 --   695 h    0.873   696 h    0.804
   695   1 h    0.897 --   694 o    0.873
   696   1 h    0.868 --   694 o    0.804
   697   8 o    1.855 --   699 h    0.839   698 h    0.809
   698   1 h    0.870 --   697 o    0.809
   699   1 h    0.888 --   697 o    0.839
   700   8 o    1.866 --   702 h    0.806   701 h    0.799
   701   1 h    0.870 --   700 o    0.799
   702   1 h    0.887 --   700 o    0.806
   703   8 o    1.849 --   705 h    0.833   704 h    0.833
   704   1 h    0.896 --   703 o    0.833
   705   1 h    0.888 --   703 o    0.833
   706   8 o    1.826 --   707 h    0.873   708 h    0.809
   707   1 h    0.893 --   706 o    0.873
   708   1 h    0.872 --   706 o    0.809
   709   8 o    1.885 --   711 h    0.835   710 h    0.818
   710   1 h    0.888 --   709 o    0.818
   711   1 h    0.893 --   709 o    0.835
   712   8 o    1.868 --   713 h    0.857   714 h    0.783
   713   1 h    0.891 --   712 o    0.857
   714   1 h    0.866 --   712 o    0.783
   715   8 o    1.814 --   716 h    0.867   717 h    0.855
   716   1 h    0.891 --   715 o    0.867
   717   1 h    0.886 --   715 o    0.855
   718   8 o    1.853 --   719 h    0.894   720 h    0.848
   719   1 h    0.899 --   718 o    0.894
   720   1 h    0.882 --   718 o    0.848
   721   8 o    1.826 --   723 h    0.850   722 h    0.836
   722   1 h    0.886 --   721 o    0.836
   723   1 h    0.889 --   721 o    0.850
   724   8 o    1.883 --   726 h    0.824   725 h    0.818
   725   1 h    0.892 --   724 o    0.818
   726   1 h    0.887 --   724 o    0.824
   727   8 o    1.819 --   728 h    0.864   729 h    0.805
   728   1 h    0.892 --   727 o    0.864
   729   1 h    0.880 --   727 o    0.805
   730   8 o    1.865 --   731 h    0.843   732 h    0.835
   731   1 h    0.895 --   730 o    0.843
   732   1 h    0.888 --   730 o    0.835
   733   8 o    1.837 --   734 h    0.860   735 h    0.833
   734   1 h    0.888 --   733 o    0.860
   735   1 h    0.881 --   733 o    0.833
   736   8 o    1.835 --   737 h    0.871   738 h    0.787
   737   1 h    0.897 --   736 o    0.871
   738   1 h    0.870 --   736 o    0.787
   739   8 o    1.835 --   741 h    0.875   740 h    0.845
   740   1 h    0.885 --   739 o    0.845
   741   1 h    0.891 --   739 o    0.875
   742   8 o    1.824 --   744 h    0.896   743 h    0.803
   743   1 h    0.873 --   742 o    0.803
   744   1 h    0.902 --   742 o    0.896
   745   8 o    1.860 --   746 h    0.827   747 h    0.822
   746   1 h    0.884 --   745 o    0.827
   747   1 h    0.882 --   745 o    0.822
   748   8 o    1.893 --   749 h    0.808   750 h    0.779   185 h    0.109
   749   1 h    0.882 --   748 o    0.808
   750   1 h    0.873 --   748 o    0.779
   751   8 o    1.835 --   753 h    0.906   752 h    0.840
   752   1 h    0.881 --   751 o    0.840
   753   1 h    0.909 --   751 o    0.906
   754   8 o    1.777 --   755 h    0.887   756 h    0.869
   755   1 h    0.896 --   754 o    0.887
   756   1 h    0.888 --   754 o    0.869
 ---------------------------------------------------------------------------

Topologies differ in total number of bonds
Writing topology from bond orders to xtbtopo.mol

molecular dipole:
                 x           y           z       tot (Debye)
 q only:        2.435      -0.369      -5.019
   full:        3.556      -0.222      -6.384      18.583
molecular quadrupole (traceless):
                xx          xy          yy          xz          yz          zz
 q only:       48.952      40.444     -34.784      22.446       9.747     -14.168
  q+dip:       54.619      53.118     -40.880      42.800       4.928     -13.738
   full:       56.332      53.141     -42.283      44.255       3.376     -14.049


           -------------------------------------------------
          | TOTAL ENERGY            -1283.557071964145 Eh   |
          | GRADIENT NORM               0.117718054717 Eh/α |
          | HOMO-LUMO GAP               6.949797245840 eV   |
           -------------------------------------------------

------------------------------------------------------------------------
 * finished run on 2022/11/24 at 12:21:39.644     
------------------------------------------------------------------------
 total:
 * wall-time:     0 d,  0 h,  0 min, 22.961 sec
 *  cpu-time:     0 d,  0 h,  0 min, 36.753 sec
 * ratio c/w:     1.601 speedup
 SCF:
 * wall-time:     0 d,  0 h,  0 min, 21.910 sec
 *  cpu-time:     0 d,  0 h,  0 min, 35.026 sec
 * ratio c/w:     1.599 speedup

