      -----------------------------------------------------------      
     |                   =====================                   |     
     |                           x T B                           |     
     |                   =====================                   |     
     |                         S. Grimme                         |     
     |          Mulliken Center for Theoretical Chemistry        |     
     |                    University of Bonn                     |     
      -----------------------------------------------------------      

   * xtb version 6.5.1 (579679a) compiled by 'ehlert@majestix' on 2022-07-11

   xtb is free software: you can redistribute it and/or modify it under
   the terms of the GNU Lesser General Public License as published by
   the Free Software Foundation, either version 3 of the License, or
   (at your option) any later version.
   
   xtb is distributed in the hope that it will be useful,
   but WITHOUT ANY WARRANTY; without even the implied warranty of
   MERCHANTABILITY or FITNESS FOR A PARTICULAR PURPOSE.  See the
   GNU Lesser General Public License for more details.
   
   Cite this work as:
   * C. Bannwarth, E. Caldeweyher, S. Ehlert, A. Hansen, P. Pracht,
     J. Seibert, S. Spicher, S. Grimme, WIREs Comput. Mol. Sci., 2020, 11,
     e01493. DOI: 10.1002/wcms.1493
   
   for GFN2-xTB:
   * C. Bannwarth, S. Ehlert and S. Grimme., J. Chem. Theory Comput., 2019,
     15, 1652-1671. DOI: 10.1021/acs.jctc.8b01176
   for GFN1-xTB:
   * S. Grimme, C. Bannwarth, P. Shushkov, J. Chem. Theory Comput., 2017,
     13, 1989-2009. DOI: 10.1021/acs.jctc.7b00118
   for GFN0-xTB:
   * P. Pracht, E. Caldeweyher, S. Ehlert, S. Grimme, ChemRxiv, 2019, preprint.
     DOI: 10.26434/chemrxiv.8326202.v1
   for GFN-FF:
   * S. Spicher and S. Grimme, Angew. Chem. Int. Ed., 2020, 59, 15665-15673.
     DOI: 10.1002/anie.202004239
   
   for ALPB and GBSA implicit solvation:
   * S. Ehlert, M. Stahn, S. Spicher, S. Grimme, J. Chem. Theory Comput.,
     2021, 17, 4250-4261. DOI: 10.1021/acs.jctc.1c00471
   
   for DFT-D4:
   * E. Caldeweyher, C. Bannwarth and S. Grimme, J. Chem. Phys., 2017,
     147, 034112. DOI: 10.1063/1.4993215
   * E. Caldeweyher, S. Ehlert, A. Hansen, H. Neugebauer, S. Spicher,
     C. Bannwarth and S. Grimme, J. Chem. Phys., 2019, 150, 154122.
     DOI: 10.1063/1.5090222
   * E. Caldeweyher, J.-M. Mewes, S. Ehlert and S. Grimme, Phys. Chem. Chem. Phys.
     2020, 22, 8499-8512. DOI: 10.1039/D0CP00502A
   
   for sTDA-xTB:
   * S. Grimme and C. Bannwarth, J. Chem. Phys., 2016, 145, 054103.
     DOI: 10.1063/1.4959605
   
   in the mass-spec context:
   * V. Asgeirsson, C. Bauer and S. Grimme, Chem. Sci., 2017, 8, 4879.
     DOI: 10.1039/c7sc00601b
   * J. Koopman and S. Grimme, ACS Omega 2019, 4, 12, 15120-15133.
     DOI: 10.1021/acsomega.9b02011
   
   for metadynamics refer to:
   * S. Grimme, J. Chem. Theory Comput., 2019, 155, 2847-2862
     DOI: 10.1021/acs.jctc.9b00143
   
   for SPH calculations refer to:
   * S. Spicher and S. Grimme, J. Chem. Theory Comput., 2021, 17, 1701-1714
     DOI: 10.1021/acs.jctc.0c01306
   
   with help from (in alphabetical order)
   P. Atkinson, C. Bannwarth, F. Bohle, G. Brandenburg, E. Caldeweyher
   M. Checinski, S. Dohm, S. Ehlert, S. Ehrlich, I. Gerasimov, C. Hölzer
   A. Katbashev, J. Koopman, C. Lavigne, S. Lehtola, F. März, M. Müller,
   F. Musil, H. Neugebauer, J. Pisarek, C. Plett, P. Pracht, F. Pultar,
   J. Seibert, P. Shushkov, S. Spicher, M. Stahn, M. Steiner, T. Strunk,
   J. Stückrath, T. Rose, and J. Unsleber
   
 * started run on 2022/11/24 at 12:21:40.835     

           -------------------------------------------------
          |                Calculation Setup                |
           -------------------------------------------------

          program call               : xtb solvent_cluster.coord --gfn2 --sp --lmo --chrg 0
          hostname                   : cn0430
          coordinate file            : solvent_cluster.coord
          omp threads                :                     2

   ID    Z sym.   atoms
    1    8 o      1, 4, 7, 10, 13, 16, 19, 22, 25, 28, 31, 34, 37, 40, 43,
                  46, 49, 52, 55, 58, 61, 64, 67, 70, 73, 76, 79, 82, 85, 88,
                  91, 94, 97, 100, 103, 106, 109, 112, 115, 118, 121, 124,
                  127, 130, 133, 136, 139, 142, 145, 148, 151, 154, 157, 160,
                  163, 166, 169, 172, 175, 178, 181, 184, 187, 190, 193, 196,
                  199, 202, 205, 208, 211, 214, 217, 220, 223, 226, 229, 232,
                  235, 238, 241, 244, 247, 250, 253, 256, 259, 262, 265, 268,
                  271, 274, 277, 280, 283, 286, 289, 292, 295, 298, 301, 304,
                  307, 310, 313, 316, 319, 322, 325, 328, 331, 334, 337, 340,
                  343, 346, 349, 352, 355, 358, 361, 364, 367, 370, 373, 376,
                  379, 382, 385, 388, 391, 394, 397, 400, 403, 406, 409, 412,
                  415, 418, 421, 424, 427, 430, 433, 436, 439, 442, 445, 448,
                  451, 454, 457, 460, 463, 466, 469, 472, 475, 478, 481, 484,
                  487, 490, 493, 496, 499, 502, 505, 508, 511, 514, 517, 520,
                  523, 526, 529, 532, 535, 538, 541, 544, 547, 550, 553, 556,
                  559, 562, 565, 568, 571, 574, 577, 580, 583, 586, 589, 592,
                  595, 598, 601, 604, 607, 610, 613, 616, 619, 622, 625, 628,
                  631, 634, 637, 640, 643, 646, 649, 652, 655, 658, 661, 664,
                  667, 670, 673, 676, 679, 682, 685, 688, 691, 694, 697, 700,
                  703, 706, 709, 712, 715, 718, 721, 724, 727, 730, 733, 736,
                  739, 742, 745, 748, 751, 754
    2    1 h      2, 3, 5, 6, 8, 9, 11, 12, 14, 15, 17, 18, 20, 21, 23, 24,
                  26, 27, 29, 30, 32, 33, 35, 36, 38, 39, 41, 42, 44, 45, 47,
                  48, 50, 51, 53, 54, 56, 57, 59, 60, 62, 63, 65, 66, 68, 69,
                  71, 72, 74, 75, 77, 78, 80, 81, 83, 84, 86, 87, 89, 90, 92,
                  93, 95, 96, 98, 99, 101, 102, 104, 105, 107, 108, 110, 111,
                  113, 114, 116, 117, 119, 120, 122, 123, 125, 126, 128, 129,
                  131, 132, 134, 135, 137, 138, 140, 141, 143, 144, 146, 147,
                  149, 150, 152, 153, 155, 156, 158, 159, 161, 162, 164, 165,
                  167, 168, 170, 171, 173, 174, 176, 177, 179, 180, 182, 183,
                  185, 186, 188, 189, 191, 192, 194, 195, 197, 198, 200, 201,
                  203, 204, 206, 207, 209, 210, 212, 213, 215, 216, 218, 219,
                  221, 222, 224, 225, 227, 228, 230, 231, 233, 234, 236, 237,
                  239, 240, 242, 243, 245, 246, 248, 249, 251, 252, 254, 255,
                  257, 258, 260, 261, 263, 264, 266, 267, 269, 270, 272, 273,
                  275, 276, 278, 279, 281, 282, 284, 285, 287, 288, 290, 291,
                  293, 294, 296, 297, 299, 300, 302, 303, 305, 306, 308, 309,
                  311, 312, 314, 315, 317, 318, 320, 321, 323, 324, 326, 327,
                  329, 330, 332, 333, 335, 336, 338, 339, 341, 342, 344, 345,
                  347, 348, 350, 351, 353, 354, 356, 357, 359, 360, 362, 363,
                  365, 366, 368, 369, 371, 372, 374, 375, 377, 378, 380, 381,
                  383, 384, 386, 387, 389, 390, 392, 393, 395, 396, 398, 399,
                  401, 402, 404, 405, 407, 408, 410, 411, 413, 414, 416, 417,
                  419, 420, 422, 423, 425, 426, 428, 429, 431, 432, 434, 435,
                  437, 438, 440, 441, 443, 444, 446, 447, 449, 450, 452, 453,
                  455, 456, 458, 459, 461, 462, 464, 465, 467, 468, 470, 471,
                  473, 474, 476, 477, 479, 480, 482, 483, 485, 486, 488, 489,
                  491, 492, 494, 495, 497, 498, 500, 501, 503, 504, 506, 507,
                  509, 510, 512, 513, 515, 516, 518, 519, 521, 522, 524, 525,
                  527, 528, 530, 531, 533, 534, 536, 537, 539, 540, 542, 543,
                  545, 546, 548, 549, 551, 552, 554, 555, 557, 558, 560, 561,
                  563, 564, 566, 567, 569, 570, 572, 573, 575, 576, 578, 579,
                  581, 582, 584, 585, 587, 588, 590, 591, 593, 594, 596, 597,
                  599, 600, 602, 603, 605, 606, 608, 609, 611, 612, 614, 615,
                  617, 618, 620, 621, 623, 624, 626, 627, 629, 630, 632, 633,
                  635, 636, 638, 639, 641, 642, 644, 645, 647, 648, 650, 651,
                  653, 654, 656, 657, 659, 660, 662, 663, 665, 666, 668, 669,
                  671, 672, 674, 675, 677, 678, 680, 681, 683, 684, 686, 687,
                  689, 690, 692, 693, 695, 696, 698, 699, 701, 702, 704, 705,
                  707, 708, 710, 711, 713, 714, 716, 717, 719, 720, 722, 723,
                  725, 726, 728, 729, 731, 732, 734, 735, 737, 738, 740, 741,
                  743, 744, 746, 747, 749, 750, 752, 753, 755, 756

molecular fragmentation (1/2 indicates fragments):
111222222222222222222222222222222222222222222222222222222222222222222222
222222222222222222222222222222222222222222222222222222222222222222222222
222222222222222222222222222222222222222222222222222222222222222222222222
222222222222222222222222222222222222222222222222222222222222222222222222
222222222222222222222222222222222222222222222222222222222222222222222222
222222222222222222222222222222222222222222222222222222222222222222222222
222222222222222222222222222222222222222222222222222222222222222222222222
222222222222222222222222222222222222222222222222222222222222222222222222
222222222222222222222222222222222222222222222222222222222222222222222222
222222222222222222222222222222222222222222222222222222222222222222222222
222222222222222222222222222222222222
# atoms in fragment 1/2:     3   753
 fragment masses (1/2) :       18.02     4521.84
CMA distance (Bohr)    :  19.125
constraining FC (au)   :  0.0500

           -------------------------------------------------
          |                 G F N 2 - x T B                 |
           -------------------------------------------------

        Reference                      10.1021/acs.jctc.8b01176
      * Hamiltonian:
        H0-scaling (s, p, d)           1.850000    2.230000    2.230000
        zeta-weighting                 0.500000
      * Dispersion:
        s8                             2.700000
        a1                             0.520000
        a2                             5.000000
        s9                             5.000000
      * Repulsion:
        kExp                           1.500000    1.000000
        rExp                           1.000000
      * Coulomb:
        alpha                          2.000000
        third order                    shell-resolved
        anisotropic                    true
        a3                             3.000000
        a5                             4.000000
        cn-shift                       1.200000
        cn-exp                         4.000000
        max-rad                        5.000000


          ...................................................
          :                      SETUP                      :
          :.................................................:
          :  # basis functions                1512          :
          :  # atomic orbitals                1512          :
          :  # shells                         1008          :
          :  # electrons                      2016          :
          :  max. iterations                   250          :
          :  Hamiltonian                  GFN2-xTB          :
          :  restarted?                      false          :
          :  GBSA solvation                  false          :
          :  PC potential                    false          :
          :  electronic temp.          300.0000000     K    :
          :  accuracy                    1.0000000          :
          :  -> integral cutoff          0.2500000E+02      :
          :  -> integral neglect         0.1000000E-07      :
          :  -> SCF convergence          0.1000000E-05 Eh   :
          :  -> wf. convergence          0.1000000E-03 e    :
          :  Broyden damping             0.4000000          :
          ...................................................

 iter      E             dE          RMSdq      gap      omega  full diag
   1  -1290.9714782 -0.129097E+04  0.407E+00    8.49       0.0  T
   2  -1291.0529522 -0.814740E-01  0.242E+00    7.25       1.0  T
   3  -1291.0848310 -0.318788E-01  0.213E-01    5.35       1.0  T
   4  -1291.0904548 -0.562380E-02  0.465E-02    5.91       1.0  T
   5  -1291.0905409 -0.861671E-04  0.309E-02    5.82       1.0  T
   6  -1291.0905816 -0.406779E-04  0.469E-03    5.86       1.0  T
   7  -1291.0905846 -0.294515E-05  0.758E-04    5.86       4.8  T
   8  -1291.0905846 -0.305188E-07  0.392E-04    5.86       9.3  T
   9  -1291.0905846 -0.148611E-07  0.664E-05    5.86      54.7  T

   *** convergence criteria satisfied after 9 iterations ***

         #    Occupation            Energy/Eh            Energy/eV
      -------------------------------------------------------------
         1        2.0000           -0.6895913             -18.7647
       ...           ...                  ...                  ...
      1002        2.0000           -0.3452784              -9.3955
      1003        2.0000           -0.3402323              -9.2582
      1004        2.0000           -0.3398049              -9.2466
      1005        2.0000           -0.3383189              -9.2061
      1006        2.0000           -0.3346408              -9.1060
      1007        2.0000           -0.3292277              -8.9587
      1008        2.0000           -0.3052414              -8.3060 (HOMO)
      1009                         -0.0899828              -2.4486 (LUMO)
      1010                         -0.0765140              -2.0821
      1011                         -0.0657628              -1.7895
      1012                         -0.0639543              -1.7403
      1013                         -0.0545277              -1.4838
       ...                                ...                  ...
      1512                          0.4934494              13.4274
      -------------------------------------------------------------
                  HL-Gap            0.2152586 Eh            5.8575 eV
             Fermi-level           -0.1976121 Eh           -5.3773 eV
 
 localization/xTB-IFF output generation
 averaging CT terms over            1  occ. levels
 averaging CT terms over            1  virt. levels
 dipole moment from electron density (au)
     X       Y       Z   
   3.3362  -0.2974  -5.6888  total (Debye):   16.780
cpu  time for init local    0.78 s
wall time for init local    0.39 s
 doing rotations ...
 initialization of trafo matrix to unity

 converged in     18 iterations, threshold :   0.99997990D-06
 doing transformations ...
 lmo centers(Z=2) and atoms on file <lmocent.coord>
 LMO Fii/eV  ncent    charge center   contributions...
    1 LP   *******   0.00   6.09452  -0.18374  -5.94219  175O : 44.78  271O : 44.02   52O : 41.79  286O : 34.28  454O : 24.10  124O : 22.77   67O : 21.98  463O : 21.42   25O : 20.34  232O : 18.92  130O : 18.65  106O : 18.41
  691O : 17.63  655O : 16.61  403O : 16.37  604O : 15.83   37O : 15.74  598O : 15.35  496O : 15.29   16O : 15.19  715O : 14.35  544O : 14.17  121O : 13.77   82O : 13.71
   40O : 13.62   34O : 13.54    4O : 13.34  592O : 13.13  733O : 13.12  676O : 12.84  115O : 12.11  451O : 12.04  520O : 11.97   64O : 11.65  442O : 11.64  217O : 11.62
  103O : 11.46  148O : 11.36  304O : 11.31  736O : 10.94   19O : 10.90  322O : 10.35  346O : 10.25  244O : 10.08  634O : 10.06  679O :  9.98  529O :  9.79  646O :  9.72
   46O :  9.59  517O :  9.59  490O :  9.57  337O :  9.54   28O :  9.10   70O :  9.08  478O :  8.92  394O :  8.81  685O :  8.71  745O :  8.68  274O :  8.57  574O :  8.42
  688O :  8.34   49O :  8.33  325O :  8.25  460O :  8.20  610O :  8.08  223O :  8.01   94O :  7.95  307O :  7.88  514O :  7.86  481O :  7.80  259O :  7.71  448O :  7.63
  181O :  7.54  637O :  7.48   43O :  7.47  751O :  7.42  397O :  7.41  247O :  7.41  118O :  7.32  562O :  7.26  709O :  7.13   10O :  7.06  421O :  7.00  631O :  6.84
  583O :  6.79   88O :  6.79    7O :  6.75  100O :  6.74  109O :  6.68  211O :  6.65  262O :  6.64  754O :  6.54  355O :  6.49  184O :  6.39  472O :  6.37  151O :  6.28
  391O :  6.27  427O :  6.24  559O :  6.23  367O :  6.17  250O :  6.16  199O :  6.15  352O :  6.08  145O :  6.01  502O :  6.01  334O :  5.89  241O :  5.88  202O :  5.88
  475O :  5.87  301O :  5.83   58O :  5.68  238O :  5.67   73O :  5.66  418O :  5.49  424O :  5.48  628O :  5.44  208O :  5.42  157O :  5.41  376O :  5.41  256O :  5.38
  658O :  5.30  439O :  5.29  640O :  5.25  187O :  5.24  178O :  5.19  580O :  5.16  319O :  5.11  433O :  5.08  142O :  5.06  532O :  5.01  499O :  4.99   91O :  4.97
  535O :  4.96  553O :  4.92  289O :  4.80  436O :  4.78  190O :  4.74  556O :  4.72  373O :  4.61  226O :  4.58   61O :  4.55  298O :  4.53  526O :  4.46  154O :  4.46
  457O :  4.44  595O :  4.40  313O :  4.33  364O :  4.32  328O :  4.29  409O :  4.27  280O :  4.27  196O :  4.24  739O :  4.20  505O :  4.19   13O :  4.19  694O :  4.18
  229O :  4.11  607O :  4.09  406O :  4.05  619O :  3.99  466O :  3.94  571O :  3.90  316O :  3.89  670O :  3.87   76O :  3.79  277O :  3.72  343O :  3.68  484O :  3.67
  697O :  3.67  703O :  3.62  283O :  3.62  139O :  3.58  400O :  3.58  385O :  3.56  220O :  3.51   31O :  3.50  613O :  3.47  430O :  3.40  508O :  3.40  412O :  3.35
  268O :  3.31  649O :  3.31  379O :  3.22  511O :  3.10  721O :  3.10  253O :  3.06  133O :  3.03  565O :  2.93  625O :  2.92  169O :  2.89  487O :  2.85  160O :  2.75
  136O :  2.73  205O :  2.73  126H :  2.67  404H :  2.66  622O :  2.62  652O :  2.60  469O :  2.58  541O :  2.57  523O :  2.49  718O :  2.45  616O :  2.45  706O :  2.42
  748O :  2.31  493O :  2.28  735H :  2.23  742O :  2.18  586O :  2.16  673O :  2.14    1O :  2.13  664O :  2.09   63H :  2.07  443H :  2.05  112O :  2.04  450H :  2.03
  682O :  1.99  538O :  1.99  455H :  1.97   55O :  1.93  144H :  1.93  415O :  1.91  131H :  1.90  163O :  1.89  700O :  1.88  295O :  1.79  730O :  1.78  547O :  1.76
  667O :  1.73  292O :  1.72  189H :  1.72  712O :  1.69  737H :  1.66  724O :  1.65   83H :  1.65  176H :  1.60   84H :  1.60  589O :  1.60  456H :  1.58  382O :  1.55
   79O :  1.48  166O :  1.48   72H :  1.42  606H :  1.42   20H :  1.41  340O :  1.36   26H :  1.32  287H :  1.32   44H :  1.31  224H :  1.29  265O :  1.28  498H :  1.25
  153H :  1.25  521H :  1.24  120H :  1.24  279H :  1.23  258H :  1.22   78H :  1.19  388O :  1.18  335H :  1.14   51H :  1.14   97O :  1.13  310O :  1.10   38H :  1.09
  370O :  1.09  609H :  1.08  738H :  1.08  353H :  1.03  661O :  1.01  361O :  1.01  405H :  0.99  630H :  0.99  601O :  0.97   93H :  0.97  464H :  0.95  182H :  0.95
   53H :  0.95  689H :  0.94  233H :  0.93  356H :  0.93   68H :  0.93  577O :  0.92   71H :  0.92    3H :  0.91  582H :  0.89  396H :  0.89  440H :  0.88  468H :  0.87
  428H :  0.87  156H :  0.87  345H :  0.86  695H :  0.86   21H :  0.85  101H :  0.83  426H :  0.83  219H :  0.80  264H :  0.79  672H :  0.79  214O :  0.79  590H :  0.79
   47H :  0.75  483H :  0.74  349O :  0.74   39H :  0.73  127O :  0.73  473H :  0.72   22O :  0.71  254H :  0.71  727O :  0.71  643O :  0.70  568O :  0.68  348H :  0.67
  107H :  0.67  465H :  0.67  172O :  0.67  537H :  0.67  533H :  0.66  656H :  0.65  326H :  0.65  216H :  0.65  331O :  0.65  306H :  0.64  125H :  0.63  539H :  0.63
  281H :  0.62  339H :  0.62  222H :  0.61  198H :  0.61  593H :  0.61  123H :  0.61  347H :  0.61  417H :  0.61   85O :  0.60  423H :  0.59  338H :  0.59   48H :  0.58
  445O :  0.58  600H :  0.57  288H :  0.57  588H :  0.56  474H :  0.55  693H :  0.55  210H :  0.55  558H :  0.54   74H :  0.54  235O :  0.54  140H :  0.54  506H :  0.54
   87H :  0.53  384H :  0.53  550O :  0.52  358O :  0.51  186H :  0.50  669H :  0.50   66H :  0.50  231H :  0.50  710H :  0.50  716H :  0.49  193O :  0.49  357H :  0.49
  411H :  0.48  668H :  0.47  104H :  0.47  299H :  0.46  398H :  0.46  519H :  0.46  554H :  0.46   95H :  0.46   11H :  0.46  284H :  0.45  576H :  0.44   59H :  0.44
   15H :  0.44  369H :  0.43  666H :  0.43   99H :  0.43  575H :  0.41  495H :  0.40  300H :  0.39  290H :  0.38    8H :  0.38  180H :  0.38  213H :  0.38  174H :  0.38
  393H :  0.37  752H :  0.37  377H :  0.37   56H :  0.35  605H :  0.35  315H :  0.35  152H :  0.34  366H :  0.34  368H :  0.34  707H :  0.34  276H :  0.34  407H :  0.33
   18H :  0.33  236H :  0.33  242H :  0.32  717H :  0.32  234H :  0.32  161H :  0.32   24H :  0.32  726H :  0.31  543H :  0.31  383H :  0.31  524H :  0.30  243H :  0.29
  437H :  0.29  294H :  0.29  429H :  0.29  375H :  0.28  293H :  0.28  749H :  0.27  165H :  0.27  425H :  0.27  698H :  0.27  705H :  0.27  723H :  0.27  492H :  0.27
  435H :  0.26  719H :  0.26   33H :  0.26  206H :  0.26  461H :  0.26  119H :  0.25    9H :  0.25  522H :  0.25  686H :  0.25  611H :  0.25   90H :  0.25  399H :  0.24
  204H :  0.24  392H :  0.24  671H :  0.24    5H :  0.24  143H :  0.23  260H :  0.23  632H :  0.23  155H :  0.23   92H :  0.23  332H :  0.22  636H :  0.22  314H :  0.22
  638H :  0.22  168H :  0.22  626H :  0.22  650H :  0.22  453H :  0.21  110H :  0.21  711H :  0.21  635H :  0.20  713H :  0.20  354H :  0.20  135H :  0.20  270H :  0.19
  659H :  0.19  365H :  0.19  191H :  0.19  504H :  0.19  336H :  0.19  170H :  0.19  725H :  0.18  431H :  0.18  363H :  0.18  651H :  0.18  516H :  0.18  432H :  0.18
  594H :  0.17  218H :  0.17  462H :  0.17  378H :  0.17  623H :  0.17  704H :  0.17  329H :  0.17  591H :  0.17  150H :  0.17  147H :  0.17  578H :  0.16  662H :  0.16
  402H :  0.16  494H :  0.16  321H :  0.15  225H :  0.15  246H :  0.15  434H :  0.15  116H :  0.15  680H :  0.15  341H :  0.15  741H :  0.15  333H :  0.15  344H :  0.15
  476H :  0.15  527H :  0.14  587H :  0.14  701H :  0.14  507H :  0.14  183H :  0.14  282H :  0.14  569H :  0.14  612H :  0.13  615H :  0.13  653H :  0.13  641H :  0.13
  500H :  0.13  753H :  0.13  528H :  0.13  621H :  0.13  614H :  0.12  687H :  0.12  360H :  0.12  227H :  0.12  479H :  0.12  362H :  0.12  303H :  0.12  501H :  0.12
  480H :  0.11  240H :  0.11  102H :  0.11  563H :  0.11  410H :  0.11  132H :  0.11  722H :  0.11  117H :  0.11  449H :  0.11  408H :  0.11   54H :  0.11  134H :  0.11
  261H :  0.11   89H :  0.11  642H :  0.10  624H :  0.10    2H :  0.10  149H :  0.10  573H :  0.10  159H :  0.10  318H :  0.10  629H :  0.09  536H :  0.09  177H :  0.09
   36H :  0.09  708H :  0.09  746H :  0.09  158H :  0.09  311H :  0.09  720H :  0.09  660H :  0.09  194H :  0.08  681H :  0.08   27H :  0.08   12H :  0.08  555H :  0.08
  359H :  0.08   23H :  0.08  266H :  0.08   30H :  0.08  269H :  0.08  489H :  0.08  413H :  0.08  482H :  0.08  564H :  0.08  342H :  0.08  245H :  0.07   17H :  0.07
  585H :  0.07  188H :  0.07  414H :  0.07  386H :  0.07
    2 LP   *******   0.00 -12.02565  -8.29629   1.70576  271O : 48.07   52O : 41.37  175O : 41.10  286O : 33.94  454O : 23.86  124O : 22.55   67O : 21.76  463O : 21.21   25O : 20.13  232O : 18.70  130O : 18.46  106O : 18.23
  691O : 17.45  655O : 16.45  403O : 16.19  604O : 15.68   37O : 15.57  598O : 15.15  496O : 15.14   16O : 14.61  715O : 14.20  544O : 14.02  121O : 13.63   82O : 13.58
   40O : 13.49   34O : 13.41    4O : 13.21  592O : 13.00  733O : 12.99  676O : 12.71  115O : 11.99  451O : 11.92  520O : 11.85   64O : 11.54  442O : 11.52  217O : 11.51
  103O : 11.35  148O : 11.25  304O : 11.19  736O : 10.83   19O : 10.79  322O : 10.25  346O : 10.15  244O :  9.98  634O :  9.96  679O :  9.88  529O :  9.69  646O :  9.62
   46O :  9.50  517O :  9.49  490O :  9.47  337O :  9.45   28O :  9.01   70O :  8.99  478O :  8.83  394O :  8.72  685O :  8.62  745O :  8.59  274O :  8.48  574O :  8.34
  688O :  8.26   49O :  8.25  325O :  8.17  460O :  8.13  610O :  8.00  223O :  7.94   94O :  7.84  307O :  7.80  514O :  7.78  481O :  7.72  259O :  7.64  448O :  7.55
  181O :  7.46  637O :  7.40   43O :  7.40  751O :  7.34  397O :  7.34  247O :  7.34  118O :  7.25  562O :  7.20  709O :  7.06   10O :  6.99  421O :  6.93  631O :  6.77
  583O :  6.73   88O :  6.71    7O :  6.69  100O :  6.66  109O :  6.61  211O :  6.59  262O :  6.58  754O :  6.48  355O :  6.43  184O :  6.32  472O :  6.30  151O :  6.22
  391O :  6.21  427O :  6.18  559O :  6.16  367O :  6.11  250O :  6.10  199O :  6.09  352O :  6.02  145O :  5.95  502O :  5.95  334O :  5.83  241O :  5.82  202O :  5.82
  475O :  5.80  301O :  5.77   58O :  5.62  238O :  5.62   73O :  5.60  418O :  5.43  424O :  5.43  628O :  5.39  208O :  5.37  157O :  5.36  376O :  5.36  256O :  5.33
  658O :  5.25  439O :  5.24  640O :  5.20  187O :  5.20  178O :  5.13  580O :  5.12  319O :  5.06  433O :  5.02  142O :  5.01  532O :  4.96  499O :  4.94   91O :  4.93
  535O :  4.91  553O :  4.87  289O :  4.75  436O :  4.73  190O :  4.69  556O :  4.67  373O :  4.56  226O :  4.54  298O :  4.49   61O :  4.48  526O :  4.42  154O :  4.41
  457O :  4.40  595O :  4.36  364O :  4.31  313O :  4.29  328O :  4.25  409O :  4.23  280O :  4.23  196O :  4.20  739O :  4.16  505O :  4.15   13O :  4.15  694O :  4.13
  607O :  4.04  406O :  4.01  229O :  4.00  571O :  3.99  619O :  3.95  466O :  3.91  316O :  3.85  670O :  3.78   76O :  3.75  277O :  3.69  343O :  3.64  697O :  3.63
  703O :  3.59  283O :  3.58  139O :  3.56  400O :  3.54  484O :  3.53  385O :  3.53  220O :  3.48   31O :  3.46  613O :  3.43  508O :  3.37  430O :  3.37  412O :  3.31
  268O :  3.28  649O :  3.27  379O :  3.19  511O :  3.07  721O :  3.07  253O :  3.03  133O :  3.00  565O :  2.90  625O :  2.89  169O :  2.86  487O :  2.82  160O :  2.72
  136O :  2.70  205O :  2.70  126H :  2.64  404H :  2.64  622O :  2.59  652O :  2.57  469O :  2.55  541O :  2.54  523O :  2.46  718O :  2.43  616O :  2.42  706O :  2.40
  748O :  2.28  493O :  2.25  735H :  2.21  742O :  2.15  586O :  2.14  673O :  2.12    1O :  2.10  664O :  2.07  443H :  2.06   63H :  2.05  112O :  2.01  450H :  2.01
  682O :  1.97  538O :  1.97  455H :  1.95   55O :  1.92  144H :  1.91  415O :  1.89  131H :  1.89  700O :  1.86  163O :  1.78  295O :  1.77  730O :  1.76  547O :  1.74
  176H :  1.73  667O :  1.71  292O :  1.70  189H :  1.70  712O :  1.67  737H :  1.64   83H :  1.64  724O :  1.63   84H :  1.59  589O :  1.58  456H :  1.56  382O :  1.53
   79O :  1.47  166O :  1.47   72H :  1.41  606H :  1.40   20H :  1.40  340O :  1.35   26H :  1.31  287H :  1.31   44H :  1.30  224H :  1.27  265O :  1.27  498H :  1.24
  153H :  1.23  521H :  1.23  120H :  1.23  279H :  1.22  258H :  1.21   78H :  1.18  388O :  1.17  335H :  1.13   51H :  1.13   97O :  1.12  310O :  1.09   38H :  1.08
  370O :  1.08  609H :  1.07  738H :  1.07  353H :  1.02  661O :  1.01  361O :  1.00  405H :  0.99  630H :  0.98  601O :  0.96   93H :  0.96  464H :  0.94   53H :  0.94
  689H :  0.93  182H :  0.93  233H :  0.93  356H :  0.92  577O :  0.91   71H :  0.91    3H :  0.90  582H :  0.89  396H :  0.88  440H :  0.87  468H :  0.86  428H :  0.86
  156H :  0.86  672H :  0.86  345H :  0.85  695H :  0.85   21H :  0.84  426H :  0.82  101H :  0.82  219H :  0.79  264H :  0.79  590H :  0.78  214O :  0.75   47H :  0.75
  483H :  0.73  349O :  0.73  127O :  0.73   39H :  0.73  473H :  0.71   22O :  0.71  254H :  0.70  727O :  0.70  643O :  0.69  568O :  0.67  348H :  0.67  107H :  0.67
  465H :  0.67  172O :  0.66  537H :  0.66  533H :  0.65  656H :  0.65  326H :  0.65  331O :  0.64  306H :  0.64   68H :  0.64  216H :  0.63  125H :  0.63  539H :  0.63
  281H :  0.62  339H :  0.61  222H :  0.61  198H :  0.61  593H :  0.60  347H :  0.60  417H :  0.60  123H :  0.60   85O :  0.59  423H :  0.58  338H :  0.58   48H :  0.58
  445O :  0.57  600H :  0.57  288H :  0.57  588H :  0.55  474H :  0.55  693H :  0.55  210H :  0.54  558H :  0.54   74H :  0.53  140H :  0.53  235O :  0.53  506H :  0.53
   87H :  0.53  384H :  0.53  550O :  0.51  358O :  0.51  186H :  0.50  669H :  0.50   66H :  0.50  710H :  0.49  716H :  0.49  193O :  0.49  357H :  0.49  231H :  0.48
  411H :  0.48  104H :  0.47  668H :  0.47  299H :  0.46  398H :  0.46  519H :  0.45  554H :  0.45   11H :  0.45  284H :  0.44   95H :  0.44  576H :  0.44   59H :  0.43
  369H :  0.43   15H :  0.43  666H :  0.43   99H :  0.42  575H :  0.40  495H :  0.39  300H :  0.39  290H :  0.38  180H :  0.37  213H :  0.37    8H :  0.37  174H :  0.37
  393H :  0.37  752H :  0.36  377H :  0.36  366H :  0.35  605H :  0.34  368H :  0.34  315H :  0.34  152H :  0.34  707H :  0.34  276H :  0.34   18H :  0.33  407H :  0.33
  236H :  0.32   56H :  0.32  242H :  0.32  717H :  0.31  234H :  0.31  161H :  0.31   24H :  0.31  726H :  0.31  543H :  0.31  383H :  0.30  524H :  0.30  243H :  0.29
  437H :  0.29  294H :  0.28  429H :  0.28  375H :  0.28  293H :  0.27  749H :  0.27  435H :  0.27  425H :  0.27  698H :  0.27  165H :  0.27  723H :  0.26  705H :  0.26
  492H :  0.26  719H :  0.26   33H :  0.26  206H :  0.26  461H :  0.26  119H :  0.25    9H :  0.25  522H :  0.25  686H :  0.25  611H :  0.24  399H :  0.24   90H :  0.24
  204H :  0.24  671H :  0.24  392H :  0.24    5H :  0.23  143H :  0.23  260H :  0.23  632H :  0.23  155H :  0.23   92H :  0.23  332H :  0.22  636H :  0.22  314H :  0.22
  638H :  0.22  168H :  0.22  626H :  0.22  650H :  0.21  453H :  0.21  110H :  0.21  711H :  0.21  713H :  0.20  635H :  0.20  354H :  0.20  135H :  0.20  365H :  0.19
  270H :  0.19  659H :  0.19  191H :  0.19  504H :  0.19  336H :  0.19  170H :  0.18  725H :  0.18  431H :  0.18  363H :  0.18  651H :  0.18  516H :  0.18  432H :  0.18
  594H :  0.17  218H :  0.17  462H :  0.17  150H :  0.17  378H :  0.17  704H :  0.17  623H :  0.17  329H :  0.17  591H :  0.17  147H :  0.17  578H :  0.16  662H :  0.16
  402H :  0.16  494H :  0.16  321H :  0.15  434H :  0.15  225H :  0.15  246H :  0.15  116H :  0.15  680H :  0.15  341H :  0.15  741H :  0.15  333H :  0.15  344H :  0.14
  476H :  0.14  527H :  0.14  587H :  0.14  701H :  0.14  507H :  0.14  183H :  0.14  282H :  0.14  569H :  0.14  612H :  0.13  615H :  0.13  653H :  0.13  641H :  0.13
  177H :  0.13  500H :  0.13  753H :  0.12  528H :  0.12  621H :  0.12  614H :  0.12  687H :  0.12  360H :  0.12  227H :  0.12  479H :  0.12  362H :  0.12  501H :  0.11
  563H :  0.11  303H :  0.11  480H :  0.11  102H :  0.11  240H :  0.11  410H :  0.11  132H :  0.11  722H :  0.11  117H :  0.11  449H :  0.11  408H :  0.11   54H :  0.11
  134H :  0.11  261H :  0.11   89H :  0.10  642H :  0.10  624H :  0.10  573H :  0.10    2H :  0.10  149H :  0.10  159H :  0.10  318H :  0.10  629H :  0.09  536H :  0.09
   36H :  0.09  708H :  0.09  746H :  0.09  158H :  0.09  311H :  0.09  720H :  0.09  660H :  0.09  194H :  0.08  681H :  0.08   12H :  0.08   27H :  0.08  555H :  0.08
  564H :  0.08  359H :  0.08   23H :  0.08  266H :  0.08   30H :  0.08  489H :  0.08  269H :  0.08  482H :  0.07  413H :  0.07  342H :  0.07  245H :  0.07  585H :  0.07
  188H :  0.07  414H :  0.07
    3 LP   *******   0.00  -1.18342  -8.48326  12.31985   52O : 40.32  271O : 39.84  175O : 37.57  286O : 31.12  454O : 21.81  124O : 20.61   67O : 19.90  463O : 19.39   25O : 18.41  232O : 17.12  130O : 16.88  106O : 16.67
  691O : 15.95  655O : 15.04  403O : 14.81  604O : 14.33   37O : 14.24  598O : 13.90  496O : 13.84   16O : 13.75  715O : 12.99  544O : 12.82  121O : 12.46   82O : 12.41
   40O : 12.33   34O : 12.26    4O : 12.08  592O : 11.88  733O : 11.87  676O : 11.62  115O : 10.95  451O : 10.90  520O : 10.83   64O : 10.55  442O : 10.53  217O : 10.52
  103O : 10.38  148O : 10.29  304O : 10.24  736O :  9.90   19O :  9.86  322O :  9.37  346O :  9.28  244O :  9.13  634O :  9.11  679O :  9.04  529O :  8.86  646O :  8.80
   46O :  8.69  517O :  8.68  490O :  8.66  337O :  8.63   28O :  8.24   70O :  8.22  478O :  8.07  394O :  7.97  685O :  7.88  745O :  7.86  274O :  7.75  574O :  7.62
   49O :  7.56  688O :  7.55  325O :  7.47  460O :  7.43  610O :  7.31  223O :  7.26   94O :  7.19  307O :  7.13  514O :  7.11  481O :  7.06  259O :  6.98  448O :  6.90
  181O :  6.83  637O :  6.77   43O :  6.76  751O :  6.71  397O :  6.71  247O :  6.71  118O :  6.63  562O :  6.58  709O :  6.45   10O :  6.39  421O :  6.33  631O :  6.19
  583O :  6.15   88O :  6.13    7O :  6.11  100O :  6.09  109O :  6.04  211O :  6.02  262O :  6.02  754O :  5.92  355O :  5.87  184O :  5.78  472O :  5.76  151O :  5.68
  391O :  5.68  427O :  5.65  559O :  5.64  367O :  5.59  250O :  5.58  199O :  5.56  352O :  5.50  145O :  5.44  502O :  5.44  334O :  5.33  241O :  5.32  202O :  5.32
  475O :  5.30  301O :  5.28   58O :  5.14  238O :  5.13   73O :  5.12  208O :  5.03  418O :  4.97  424O :  4.96  628O :  4.93  157O :  4.90  376O :  4.90  256O :  4.87
  658O :  4.80  439O :  4.79  640O :  4.75  187O :  4.75  178O :  4.69  580O :  4.67  319O :  4.62  433O :  4.59  142O :  4.58  532O :  4.53  499O :  4.51   91O :  4.49
  535O :  4.49  553O :  4.45  289O :  4.35  436O :  4.32  190O :  4.29  556O :  4.27  373O :  4.17  226O :  4.15   61O :  4.12  298O :  4.10  526O :  4.04  154O :  4.04
  457O :  4.02  595O :  3.98  364O :  3.94  313O :  3.92  280O :  3.89  328O :  3.88  409O :  3.87  196O :  3.84  739O :  3.80  505O :  3.80   13O :  3.79  694O :  3.78
  607O :  3.70  406O :  3.66  229O :  3.66  571O :  3.65  619O :  3.61  466O :  3.57  316O :  3.52  670O :  3.50   76O :  3.43  277O :  3.37  343O :  3.33  484O :  3.32
  697O :  3.32  703O :  3.28  283O :  3.28  139O :  3.24  400O :  3.24  385O :  3.22  220O :  3.18   31O :  3.17  613O :  3.14  508O :  3.08  430O :  3.08  412O :  3.03
  268O :  3.00  649O :  2.99  379O :  2.91  511O :  2.81  721O :  2.80  253O :  2.77  133O :  2.74  565O :  2.65  625O :  2.64  169O :  2.62  487O :  2.58  160O :  2.49
  136O :  2.47  205O :  2.47  126H :  2.42  404H :  2.41  622O :  2.37  652O :  2.35  469O :  2.34  541O :  2.32  523O :  2.25  718O :  2.22  616O :  2.21  706O :  2.19
  748O :  2.09  493O :  2.07  735H :  2.02  742O :  1.97  673O :  1.94    1O :  1.92  664O :  1.89  586O :  1.89  443H :  1.88   63H :  1.88  112O :  1.84  450H :  1.84
  682O :  1.81  538O :  1.80  455H :  1.78   55O :  1.75  144H :  1.74  131H :  1.72  415O :  1.72  163O :  1.71  700O :  1.69  295O :  1.62  730O :  1.61  547O :  1.59
  176H :  1.59  667O :  1.57  292O :  1.56  189H :  1.55  712O :  1.53  737H :  1.50  724O :  1.49   83H :  1.49   84H :  1.45  589O :  1.45  456H :  1.43  382O :  1.40
   79O :  1.34  166O :  1.34   72H :  1.28  606H :  1.28   20H :  1.28  340O :  1.23  287H :  1.22   26H :  1.20   44H :  1.19  224H :  1.17  265O :  1.16  498H :  1.13
  153H :  1.13  120H :  1.13  521H :  1.13  279H :  1.12  258H :  1.10   78H :  1.08  388O :  1.07   51H :  1.04  335H :  1.03   97O :  1.03  310O :  0.99   38H :  0.99
  370O :  0.98  609H :  0.98  738H :  0.98  353H :  0.93  661O :  0.92  361O :  0.91  405H :  0.90  630H :  0.90  601O :  0.88   93H :  0.87  464H :  0.86  182H :  0.86
  689H :  0.85  233H :  0.85  356H :  0.84  577O :  0.83   71H :  0.83    3H :  0.82  582H :  0.81  396H :  0.80  440H :  0.80  468H :  0.79  428H :  0.79  156H :  0.79
  345H :  0.78  695H :  0.78   21H :  0.77   53H :  0.75  426H :  0.75  101H :  0.75  219H :  0.73  264H :  0.72  672H :  0.72  590H :  0.71  214O :  0.69   47H :  0.68
  588H :  0.67  483H :  0.67  349O :  0.67  127O :  0.66   39H :  0.66  473H :  0.65   22O :  0.65  254H :  0.64  727O :  0.64  643O :  0.63  568O :  0.62  348H :  0.61
  537H :  0.61  107H :  0.61  465H :  0.61  172O :  0.59  533H :  0.59  656H :  0.59  326H :  0.59  306H :  0.58   68H :  0.58  216H :  0.58  125H :  0.57  539H :  0.57
  331O :  0.57  281H :  0.57  339H :  0.56  222H :  0.56  198H :  0.55  593H :  0.55  347H :  0.55  417H :  0.55  123H :  0.54   85O :  0.54  423H :  0.53  338H :  0.53
   48H :  0.53  445O :  0.53  600H :  0.52  474H :  0.50  693H :  0.50  210H :  0.50  558H :  0.49   74H :  0.49  235O :  0.49  140H :  0.49  506H :  0.48   87H :  0.48
  384H :  0.48  550O :  0.47  358O :  0.46  186H :  0.46  669H :  0.46  710H :  0.45   66H :  0.45  716H :  0.45  193O :  0.45  357H :  0.45  231H :  0.44  411H :  0.44
  104H :  0.43  668H :  0.43  288H :  0.42  299H :  0.42  398H :  0.42  519H :  0.41  554H :  0.41   95H :  0.41   11H :  0.41  284H :  0.40  576H :  0.40   59H :  0.40
  369H :  0.40   15H :  0.39  666H :  0.39   99H :  0.39  575H :  0.37  495H :  0.36  300H :  0.35  290H :  0.34  180H :  0.34  213H :  0.34    8H :  0.34  174H :  0.34
  393H :  0.34  752H :  0.33  377H :  0.33  366H :  0.32   56H :  0.32  605H :  0.31  368H :  0.31  315H :  0.31  152H :  0.31  707H :  0.31  276H :  0.31  407H :  0.30
   18H :  0.30  236H :  0.29  242H :  0.29  717H :  0.29  234H :  0.29  161H :  0.29   24H :  0.29  726H :  0.28  543H :  0.28  383H :  0.28  524H :  0.27  243H :  0.26
  437H :  0.26  294H :  0.26  429H :  0.26  375H :  0.25  293H :  0.25  749H :  0.25  165H :  0.24  435H :  0.24  425H :  0.24  698H :  0.24  723H :  0.24  705H :  0.24
  492H :  0.24  719H :  0.24   33H :  0.24  206H :  0.24  461H :  0.23  119H :  0.23    9H :  0.23  522H :  0.23  686H :  0.23  611H :  0.22  399H :  0.22   90H :  0.22
  204H :  0.22  392H :  0.22  671H :  0.21    5H :  0.21  143H :  0.21  260H :  0.21  632H :  0.21  155H :  0.21   92H :  0.21  332H :  0.21  636H :  0.20  314H :  0.20
  638H :  0.20  168H :  0.20  626H :  0.20  650H :  0.20  453H :  0.19  110H :  0.19  711H :  0.19  635H :  0.19  713H :  0.18  354H :  0.18  135H :  0.18  365H :  0.18
  270H :  0.17  659H :  0.17  191H :  0.17  504H :  0.17  336H :  0.17  170H :  0.17  725H :  0.17  431H :  0.17  363H :  0.16  651H :  0.16  516H :  0.16  432H :  0.16
  594H :  0.16  218H :  0.16  462H :  0.16  378H :  0.16  150H :  0.16  704H :  0.15  623H :  0.15  329H :  0.15  591H :  0.15  147H :  0.15  578H :  0.15  662H :  0.15
  402H :  0.15  494H :  0.14  321H :  0.14  434H :  0.14  225H :  0.14  246H :  0.14  680H :  0.14  341H :  0.14  741H :  0.13  344H :  0.13  476H :  0.13  116H :  0.13
  527H :  0.13  333H :  0.13  701H :  0.13  587H :  0.13  507H :  0.13  183H :  0.13  282H :  0.12  569H :  0.12  612H :  0.12  615H :  0.12  653H :  0.12  641H :  0.12
  177H :  0.12  500H :  0.11  753H :  0.11  528H :  0.11  621H :  0.11  614H :  0.11  687H :  0.11  360H :  0.11  227H :  0.11  479H :  0.11  362H :  0.11  501H :  0.10
  563H :  0.10  303H :  0.10  480H :  0.10  102H :  0.10  240H :  0.10  410H :  0.10  132H :  0.10  722H :  0.10  117H :  0.10  449H :  0.10  408H :  0.10  134H :  0.10
  261H :  0.10   89H :  0.10  642H :  0.09  624H :  0.09  573H :  0.09    2H :  0.09  149H :  0.09  159H :  0.09  318H :  0.09  536H :  0.09  629H :  0.09   36H :  0.08
  708H :  0.08  746H :  0.08  158H :  0.08  311H :  0.08  720H :  0.08  660H :  0.08  194H :  0.08   27H :  0.07  681H :  0.07   12H :  0.07  555H :  0.07  359H :  0.07
  564H :  0.07   23H :  0.07  266H :  0.07   30H :  0.07
    4 LP   *******   0.00  44.17062  48.04782 -22.56240  271O : 26.12   52O : 24.80  175O : 24.63  286O : 20.35  463O : 15.08  454O : 14.31  124O : 13.71   67O : 13.05   25O : 12.07  232O : 11.23  130O : 11.07  106O : 10.93
  691O : 10.46  655O :  9.87  403O :  9.71  604O :  9.40   37O :  9.34  598O :  9.11  496O :  9.07   16O :  9.01  715O :  8.51  544O :  8.41  121O :  8.17   82O :  8.16
   40O :  8.10   34O :  8.04    4O :  7.92  592O :  7.79  733O :  7.79  676O :  7.62  115O :  7.19  451O :  7.16  520O :  7.10   64O :  6.91  442O :  6.90  217O :  6.90
  103O :  6.81  148O :  6.74  304O :  6.71  736O :  6.49   19O :  6.47  322O :  6.14  346O :  6.08  244O :  5.99  634O :  5.97  679O :  5.92  529O :  5.81  646O :  5.77
   46O :  5.70  490O :  5.70  517O :  5.69  337O :  5.66   70O :  5.43   28O :  5.40  478O :  5.29  394O :  5.23  685O :  5.17  745O :  5.15  274O :  5.08  574O :  5.00
  688O :  4.95   49O :  4.94  325O :  4.90  460O :  4.87  610O :  4.79  223O :  4.76   94O :  4.72  307O :  4.68  514O :  4.67  481O :  4.63  448O :  4.58  259O :  4.57
  181O :  4.48   43O :  4.45  637O :  4.44  751O :  4.40  247O :  4.40  397O :  4.40  118O :  4.35  562O :  4.32  709O :  4.23   10O :  4.19  421O :  4.15  631O :  4.06
  583O :  4.03   88O :  4.02    7O :  4.01  100O :  3.99  109O :  3.96  211O :  3.95  262O :  3.95  754O :  3.88  355O :  3.85  184O :  3.79  472O :  3.78  391O :  3.74
  151O :  3.73  427O :  3.70  559O :  3.69  367O :  3.67  250O :  3.66  199O :  3.65  352O :  3.61  145O :  3.56  502O :  3.56  241O :  3.49  334O :  3.49  202O :  3.49
  475O :  3.48  301O :  3.46   58O :  3.37  238O :  3.37   73O :  3.36  418O :  3.26  424O :  3.25  628O :  3.23  208O :  3.22  157O :  3.21  376O :  3.21  256O :  3.20
  658O :  3.15  439O :  3.14  640O :  3.11  187O :  3.11  178O :  3.08  580O :  3.06  319O :  3.03  142O :  3.00  433O :  2.99  532O :  2.97  499O :  2.96   91O :  2.95
  535O :  2.94  553O :  2.92  289O :  2.85  436O :  2.84  190O :  2.81  556O :  2.80  373O :  2.73  226O :  2.72   61O :  2.70  298O :  2.69  526O :  2.65  154O :  2.65
  595O :  2.61  364O :  2.58  313O :  2.57  457O :  2.57  328O :  2.55  409O :  2.54  280O :  2.53  196O :  2.52  739O :  2.49  505O :  2.49   13O :  2.48  694O :  2.48
  607O :  2.42  406O :  2.40  229O :  2.40  571O :  2.38  619O :  2.37  466O :  2.34  316O :  2.31  670O :  2.29   76O :  2.25  277O :  2.21  343O :  2.18  484O :  2.18
  703O :  2.15  283O :  2.15  139O :  2.13  400O :  2.13  385O :  2.11  220O :  2.09   31O :  2.08  613O :  2.06  508O :  2.02  430O :  2.02  412O :  1.99  268O :  1.97
  649O :  1.96  379O :  1.91  697O :  1.90  511O :  1.84  721O :  1.84  253O :  1.82  133O :  1.80  565O :  1.74  625O :  1.73  169O :  1.71  487O :  1.69  160O :  1.63
  136O :  1.62  205O :  1.62  126H :  1.61  404H :  1.58  622O :  1.55  652O :  1.54  469O :  1.53  541O :  1.52  523O :  1.48  718O :  1.45  616O :  1.45  706O :  1.44
  748O :  1.37  493O :  1.35  735H :  1.32  742O :  1.29  586O :  1.28  673O :  1.27    1O :  1.26  664O :  1.24  443H :  1.23   63H :  1.23  450H :  1.22  112O :  1.21
  682O :  1.18  538O :  1.18  455H :  1.17   55O :  1.15  144H :  1.14  415O :  1.13  131H :  1.13  163O :  1.12  700O :  1.11  295O :  1.06  730O :  1.05  547O :  1.04
  176H :  1.04  667O :  1.03  292O :  1.02  189H :  1.02  712O :  1.00  737H :  0.98   83H :  0.98  724O :  0.98   84H :  0.95  589O :  0.95  456H :  0.94  382O :  0.92
   79O :  0.88  166O :  0.88  606H :  0.84   20H :  0.84   72H :  0.82  340O :  0.81   26H :  0.79  287H :  0.78   44H :  0.78  224H :  0.76  265O :  0.76  498H :  0.74
  153H :  0.74  120H :  0.74  521H :  0.74  279H :  0.73  258H :  0.72   78H :  0.71  388O :  0.70  335H :  0.68   51H :  0.68   97O :  0.67  370O :  0.66  310O :  0.65
   38H :  0.65  609H :  0.64  738H :  0.64  353H :  0.61  661O :  0.60  361O :  0.60  405H :  0.59  630H :  0.59  601O :  0.58   93H :  0.57  182H :  0.56   53H :  0.56
  689H :  0.56  233H :  0.55  356H :  0.55  577O :  0.54    3H :  0.54   71H :  0.53  582H :  0.53  396H :  0.53  440H :  0.52  468H :  0.52  428H :  0.51  156H :  0.51
  345H :  0.51  695H :  0.51   21H :  0.50  426H :  0.49  101H :  0.49  464H :  0.48  219H :  0.48  264H :  0.47  672H :  0.47  590H :  0.47  214O :  0.45   47H :  0.45
  483H :  0.44  349O :  0.44  127O :  0.44   39H :  0.44  473H :  0.42   22O :  0.42  254H :  0.42  727O :  0.42  643O :  0.41  568O :  0.41  125H :  0.40  348H :  0.40
  107H :  0.40  172O :  0.40  537H :  0.40  533H :  0.39  326H :  0.39  656H :  0.39  331O :  0.38   68H :  0.38  306H :  0.38  216H :  0.38  539H :  0.38  281H :  0.37
  339H :  0.37  222H :  0.36  198H :  0.36  593H :  0.36  347H :  0.36  417H :  0.36  123H :  0.36   85O :  0.35  423H :  0.35  338H :  0.35   48H :  0.35  445O :  0.34
  600H :  0.34  288H :  0.34  465H :  0.34  588H :  0.33  474H :  0.33  693H :  0.33  210H :  0.32  558H :  0.32   74H :  0.32  235O :  0.32  140H :  0.32  506H :  0.32
   87H :  0.32  384H :  0.32  550O :  0.31  358O :  0.31  186H :  0.30  669H :  0.30   66H :  0.30  710H :  0.30  716H :  0.29  193O :  0.29  357H :  0.29  231H :  0.29
  411H :  0.29  104H :  0.28  668H :  0.28  299H :  0.28  398H :  0.27  519H :  0.27  554H :  0.27   95H :  0.27   11H :  0.27  284H :  0.27  576H :  0.26   59H :  0.26
  369H :  0.26   15H :  0.26  666H :  0.25   99H :  0.25  575H :  0.24  495H :  0.24  300H :  0.23  393H :  0.23  290H :  0.23  180H :  0.22  213H :  0.22    8H :  0.22
  174H :  0.22  752H :  0.22  377H :  0.22  366H :  0.21   56H :  0.21  605H :  0.21  368H :  0.21  315H :  0.21  152H :  0.20  707H :  0.20  276H :  0.20  407H :  0.20
   18H :  0.20  236H :  0.19  242H :  0.19  717H :  0.19  234H :  0.19  161H :  0.19   24H :  0.19  726H :  0.18  543H :  0.18  383H :  0.18  524H :  0.18  243H :  0.17
  437H :  0.17  294H :  0.17  429H :  0.17  375H :  0.17  293H :  0.16  749H :  0.16  165H :  0.16  492H :  0.16  425H :  0.16  723H :  0.16  705H :  0.16  719H :  0.16
   33H :  0.16  206H :  0.16  461H :  0.15  435H :  0.15  119H :  0.15    9H :  0.15  522H :  0.15  686H :  0.15  611H :  0.15  399H :  0.14   90H :  0.14  204H :  0.14
  671H :  0.14    5H :  0.14  392H :  0.14  143H :  0.14  260H :  0.14  632H :  0.14  155H :  0.14   92H :  0.14  332H :  0.13  636H :  0.13  314H :  0.13  638H :  0.13
  168H :  0.13  626H :  0.13  650H :  0.13  453H :  0.13  110H :  0.13  711H :  0.12  635H :  0.12  713H :  0.12  354H :  0.12  135H :  0.12  365H :  0.12  270H :  0.11
  659H :  0.11  191H :  0.11  504H :  0.11  336H :  0.11  170H :  0.11  363H :  0.11  725H :  0.11  431H :  0.11  651H :  0.11  516H :  0.11  432H :  0.10  594H :  0.10
  218H :  0.10  462H :  0.10  378H :  0.10  150H :  0.10  704H :  0.10  623H :  0.10  329H :  0.10  591H :  0.10  147H :  0.10  578H :  0.10  662H :  0.10  402H :  0.10
  494H :  0.09  321H :  0.09  225H :  0.09  246H :  0.09  116H :  0.09  680H :  0.09  341H :  0.09  741H :  0.09  333H :  0.09  434H :  0.09  344H :  0.09  476H :  0.09
  527H :  0.09  587H :  0.08  701H :  0.08  507H :  0.08  183H :  0.08  282H :  0.08  569H :  0.08  612H :  0.08  615H :  0.08  698H :  0.08  653H :  0.08  641H :  0.08
  177H :  0.08  500H :  0.08  753H :  0.07  528H :  0.07  621H :  0.07  614H :  0.07  687H :  0.07  360H :  0.07  227H :  0.07  479H :  0.07
    5 LP   *******   0.00  -6.85387 -25.05885   2.87660  271O : 25.14   52O : 23.91  175O : 23.75  286O : 19.60  232O : 14.31  454O : 13.79  124O : 13.03   67O : 12.57  463O : 12.25   25O : 11.63  130O : 10.66  106O : 10.53
  691O : 10.08  655O :  9.50  403O :  9.37  604O :  9.06   37O :  9.01  598O :  8.78  496O :  8.75   16O :  8.68  715O :  8.21  544O :  8.11  121O :  7.88   82O :  7.84
   40O :  7.79   34O :  7.75    4O :  7.63  592O :  7.51  733O :  7.50  676O :  7.35  115O :  6.93  451O :  6.89  520O :  6.85   64O :  6.67  442O :  6.66  217O :  6.65
  103O :  6.56  148O :  6.50  304O :  6.47  736O :  6.26   19O :  6.23  322O :  5.92  346O :  5.86  244O :  5.77  634O :  5.75  679O :  5.71  529O :  5.60  646O :  5.56
   46O :  5.49  517O :  5.49  490O :  5.47  337O :  5.46   28O :  5.20   70O :  5.20  478O :  5.10  394O :  5.04  685O :  4.98  745O :  4.97  274O :  4.90  574O :  4.82
  688O :  4.77   49O :  4.77  325O :  4.72  460O :  4.70  610O :  4.62  223O :  4.59   94O :  4.55  307O :  4.51  514O :  4.50  481O :  4.46  259O :  4.41  448O :  4.36
  181O :  4.31  637O :  4.28   43O :  4.28  751O :  4.24  397O :  4.24  247O :  4.24  118O :  4.19  562O :  4.16  709O :  4.08   10O :  4.04  421O :  4.00  631O :  3.91
  583O :  3.89   88O :  3.88    7O :  3.86  100O :  3.85  109O :  3.82  211O :  3.81  262O :  3.80  754O :  3.74  355O :  3.71  184O :  3.65  472O :  3.64  151O :  3.59
  391O :  3.59  427O :  3.57  559O :  3.56  367O :  3.53  250O :  3.53  199O :  3.52  352O :  3.48  145O :  3.44  502O :  3.44  334O :  3.37  241O :  3.36  202O :  3.36
  475O :  3.35  301O :  3.34   58O :  3.25  238O :  3.24   73O :  3.24  418O :  3.14  424O :  3.13  628O :  3.11  208O :  3.10  157O :  3.10  376O :  3.09  256O :  3.08
  658O :  3.03  439O :  3.03  187O :  3.00  640O :  3.00  178O :  2.97  580O :  2.95  319O :  2.92  433O :  2.90  142O :  2.89  532O :  2.87  499O :  2.85   91O :  2.84
  535O :  2.84  553O :  2.81  289O :  2.75  436O :  2.73  190O :  2.71  556O :  2.70  373O :  2.64  226O :  2.62   61O :  2.60  298O :  2.59  154O :  2.55  526O :  2.55
  457O :  2.54  595O :  2.52  364O :  2.49  313O :  2.48  328O :  2.45  280O :  2.44  409O :  2.44  196O :  2.43  739O :  2.40  505O :  2.40   13O :  2.40  694O :  2.39
  607O :  2.34  406O :  2.31  229O :  2.31  571O :  2.31  619O :  2.28  466O :  2.26  316O :  2.23  670O :  2.21   76O :  2.17  277O :  2.13  484O :  2.11  343O :  2.10
  697O :  2.10  703O :  2.08  283O :  2.07  139O :  2.06  400O :  2.05  385O :  2.04  220O :  2.01   31O :  2.00  613O :  1.98  508O :  1.95  430O :  1.95  412O :  1.91
  268O :  1.90  649O :  1.89  379O :  1.84  511O :  1.77  721O :  1.77  253O :  1.75  133O :  1.73  565O :  1.67  625O :  1.67  169O :  1.65  487O :  1.63  160O :  1.57
  136O :  1.56  205O :  1.56  126H :  1.53  404H :  1.52  622O :  1.50  652O :  1.48  469O :  1.48  541O :  1.47  523O :  1.42  718O :  1.40  616O :  1.40  706O :  1.39
  748O :  1.32  493O :  1.30  735H :  1.28  742O :  1.25  586O :  1.24  673O :  1.23    1O :  1.22  443H :  1.19   63H :  1.18  664O :  1.18  112O :  1.16  450H :  1.16
  682O :  1.14  538O :  1.14  455H :  1.13  144H :  1.10  415O :  1.09  131H :  1.09  163O :  1.08  700O :  1.07   55O :  1.04  295O :  1.02  730O :  1.02  547O :  1.01
  176H :  1.00  292O :  0.99  667O :  0.98  189H :  0.98  712O :  0.97  737H :  0.95   83H :  0.94  724O :  0.94   84H :  0.92  589O :  0.92  456H :  0.90  382O :  0.89
   79O :  0.85  166O :  0.85   72H :  0.81  606H :  0.81   20H :  0.81  340O :  0.78   26H :  0.76  287H :  0.76   44H :  0.75  224H :  0.74  265O :  0.73  120H :  0.71
  498H :  0.71  153H :  0.71  521H :  0.71  279H :  0.71  258H :  0.70   78H :  0.68  388O :  0.67  335H :  0.65   51H :  0.65   97O :  0.65  310O :  0.63   38H :  0.63
  370O :  0.62  609H :  0.62  738H :  0.62  353H :  0.59  661O :  0.58  361O :  0.58  405H :  0.57  630H :  0.57  601O :  0.55   93H :  0.55  464H :  0.54  182H :  0.54
   53H :  0.54  689H :  0.54  356H :  0.53  577O :  0.53   71H :  0.52    3H :  0.52  582H :  0.51  396H :  0.51  440H :  0.50  468H :  0.50  428H :  0.50  156H :  0.50
  345H :  0.49  695H :  0.49   21H :  0.49  101H :  0.47  426H :  0.47  219H :  0.46  264H :  0.45  672H :  0.45  590H :  0.45  233H :  0.44  214O :  0.43   47H :  0.43
  483H :  0.42  349O :  0.42   39H :  0.42  127O :  0.42  473H :  0.41   22O :  0.41  254H :  0.41  727O :  0.40  643O :  0.40  568O :  0.39  348H :  0.39  107H :  0.38
  465H :  0.38  172O :  0.38  537H :  0.38  533H :  0.38  656H :  0.37  326H :  0.37  331O :  0.37  306H :  0.37   68H :  0.37  216H :  0.36  125H :  0.36  539H :  0.36
  281H :  0.36  339H :  0.35  222H :  0.35  198H :  0.35  593H :  0.35  347H :  0.35  417H :  0.35  123H :  0.34   85O :  0.34  423H :  0.34  338H :  0.33   48H :  0.33
  445O :  0.33  600H :  0.33  288H :  0.33  588H :  0.32  474H :  0.32  693H :  0.32  210H :  0.31  558H :  0.31   74H :  0.31  235O :  0.31  506H :  0.31   87H :  0.31
  140H :  0.30  384H :  0.30  550O :  0.29  358O :  0.29  186H :  0.29   66H :  0.29  710H :  0.29  669H :  0.28  716H :  0.28  193O :  0.28  357H :  0.28  231H :  0.28
  411H :  0.28  668H :  0.27  104H :  0.27  299H :  0.27  398H :  0.26  519H :  0.26  554H :  0.26   95H :  0.26   11H :  0.26  284H :  0.26  576H :  0.25   59H :  0.25
  369H :  0.25   15H :  0.25  666H :  0.25   99H :  0.24  575H :  0.23  495H :  0.23  300H :  0.22  290H :  0.22  180H :  0.22  213H :  0.22    8H :  0.22  174H :  0.21
  393H :  0.21  752H :  0.21  377H :  0.21  366H :  0.20  605H :  0.20  368H :  0.20  315H :  0.20  152H :  0.20   56H :  0.20  707H :  0.20  276H :  0.19  407H :  0.19
   18H :  0.19  236H :  0.19  242H :  0.18  717H :  0.18  161H :  0.18   24H :  0.18  726H :  0.18  543H :  0.18  383H :  0.18  524H :  0.17  243H :  0.17  437H :  0.17
  294H :  0.16  429H :  0.16  375H :  0.16  293H :  0.16  749H :  0.16  165H :  0.15  435H :  0.15  698H :  0.15  425H :  0.15  723H :  0.15  705H :  0.15  492H :  0.15
  719H :  0.15   33H :  0.15  206H :  0.15  461H :  0.15    9H :  0.14  119H :  0.14  522H :  0.14  686H :  0.14  611H :  0.14  399H :  0.14   90H :  0.14  204H :  0.14
  392H :  0.14  671H :  0.14    5H :  0.14  143H :  0.13  260H :  0.13  632H :  0.13  155H :  0.13   92H :  0.13  332H :  0.13  636H :  0.13  314H :  0.13  638H :  0.13
  168H :  0.13  626H :  0.12  234H :  0.12  650H :  0.12  453H :  0.12  110H :  0.12  711H :  0.12  635H :  0.12  713H :  0.12  354H :  0.11  135H :  0.11  365H :  0.11
  270H :  0.11  659H :  0.11  191H :  0.11  504H :  0.11  336H :  0.11  170H :  0.11  725H :  0.10  431H :  0.10  363H :  0.10  651H :  0.10  516H :  0.10  432H :  0.10
  594H :  0.10  218H :  0.10  462H :  0.10  150H :  0.10  378H :  0.10  704H :  0.10  623H :  0.10  329H :  0.10  591H :  0.10  147H :  0.10  578H :  0.09  662H :  0.09
  402H :  0.09  494H :  0.09  701H :  0.09  321H :  0.09  434H :  0.09  225H :  0.09  246H :  0.09  116H :  0.09  680H :  0.09  341H :  0.09  741H :  0.08  333H :  0.08
  344H :  0.08  476H :  0.08  527H :  0.08  587H :  0.08  507H :  0.08  183H :  0.08  282H :  0.08  615H :  0.08  612H :  0.08  653H :  0.07  641H :  0.07  177H :  0.07
  500H :  0.07  753H :  0.07  569H :  0.07  528H :  0.07  621H :  0.07  614H :  0.07  687H :  0.07
    6 LP   *******   0.00  11.44333  -4.50047  37.99673  271O : 23.75   52O : 22.72  175O : 22.40  286O : 19.97  454O : 13.01  124O : 12.29   67O : 11.86  463O : 11.56   25O : 10.72  232O : 10.21  130O : 10.06  106O :  9.94
  691O :  9.51  655O :  8.97  403O :  8.80  604O :  8.55   37O :  8.50  598O :  8.29  496O :  8.25   16O :  8.20  715O :  7.74  544O :  7.65  121O :  7.43   82O :  7.40
   40O :  7.35   34O :  7.31    4O :  7.20  592O :  7.09  733O :  7.08  676O :  6.93  115O :  6.53  451O :  6.50  520O :  6.46   64O :  6.29  442O :  6.28  217O :  6.27
  103O :  6.19  148O :  6.13  304O :  6.10  736O :  5.90   19O :  5.88  322O :  5.59  346O :  5.53  244O :  5.44  634O :  5.43  679O :  5.38  529O :  5.28  646O :  5.25
   46O :  5.18  517O :  5.18  490O :  5.16  337O :  5.15   28O :  4.91   70O :  4.90  478O :  4.81  394O :  4.75  685O :  4.70  745O :  4.68  274O :  4.62  574O :  4.55
  688O :  4.50   49O :  4.49  325O :  4.45  460O :  4.43  610O :  4.36  223O :  4.33   94O :  4.29  307O :  4.25  514O :  4.24  481O :  4.21  259O :  4.16  448O :  4.12
  181O :  4.08  637O :  4.04   43O :  4.03  751O :  4.00  397O :  4.00  247O :  4.00  118O :  3.98  709O :  3.92  562O :  3.92   10O :  3.81  421O :  3.77  631O :  3.69
  583O :  3.67   88O :  3.66    7O :  3.64  100O :  3.63  109O :  3.60  211O :  3.59  262O :  3.59  754O :  3.53  355O :  3.50  184O :  3.45  472O :  3.44  151O :  3.39
  391O :  3.39  427O :  3.37  559O :  3.36  367O :  3.33  250O :  3.33  199O :  3.32  352O :  3.28  145O :  3.24  502O :  3.24  334O :  3.18  241O :  3.17  202O :  3.17
  475O :  3.16  301O :  3.15   58O :  3.07  238O :  3.06   73O :  3.05  418O :  2.96  424O :  2.96  628O :  2.94  157O :  2.92  376O :  2.92  208O :  2.92  256O :  2.91
  658O :  2.86  439O :  2.86  187O :  2.83  640O :  2.83  178O :  2.80  580O :  2.78  319O :  2.76  433O :  2.74  142O :  2.73  532O :  2.70  499O :  2.69   91O :  2.68
  535O :  2.68  553O :  2.65  289O :  2.59  436O :  2.58  190O :  2.56  556O :  2.55  373O :  2.49  226O :  2.47   61O :  2.46  298O :  2.45  526O :  2.41  154O :  2.41
  457O :  2.40  595O :  2.37  364O :  2.35  313O :  2.34  328O :  2.31  280O :  2.31  409O :  2.31  196O :  2.29  739O :  2.27  505O :  2.26   13O :  2.26  694O :  2.25
  607O :  2.20  406O :  2.18  229O :  2.18  571O :  2.18  619O :  2.15  466O :  2.13  316O :  2.10  670O :  2.08   76O :  2.05  277O :  2.01  343O :  1.98  484O :  1.98
  697O :  1.98  703O :  1.96  283O :  1.95  400O :  1.93  139O :  1.93  385O :  1.92  220O :  1.90   31O :  1.89  613O :  1.87  508O :  1.84  430O :  1.84  412O :  1.81
  268O :  1.79  649O :  1.78  379O :  1.74  511O :  1.67  721O :  1.67  253O :  1.65  133O :  1.64  565O :  1.58  625O :  1.58  169O :  1.56  487O :  1.54  160O :  1.49
  136O :  1.47  205O :  1.47  126H :  1.44  404H :  1.43  622O :  1.41  652O :  1.40  469O :  1.39  541O :  1.39  523O :  1.34  718O :  1.32  616O :  1.32  706O :  1.31
  748O :  1.25  735H :  1.20  742O :  1.17  493O :  1.16  673O :  1.16    1O :  1.15  586O :  1.14  664O :  1.13  443H :  1.12   63H :  1.12  112O :  1.10  450H :  1.09
  682O :  1.08  538O :  1.08  455H :  1.06   55O :  1.04  144H :  1.04  415O :  1.03  131H :  1.03  163O :  1.02  700O :  1.01  295O :  0.97  730O :  0.96  547O :  0.95
  176H :  0.95  667O :  0.93  292O :  0.93  189H :  0.92  712O :  0.91  737H :  0.89   83H :  0.89  724O :  0.89   84H :  0.86  589O :  0.86  456H :  0.85  382O :  0.84
   79O :  0.80  166O :  0.80   72H :  0.77  606H :  0.77   20H :  0.76  340O :  0.73   44H :  0.71   26H :  0.70  224H :  0.69  265O :  0.69  498H :  0.67  153H :  0.67
  120H :  0.67  521H :  0.67  279H :  0.67  258H :  0.66   78H :  0.64  388O :  0.64  287H :  0.62  335H :  0.62   51H :  0.61   97O :  0.61  310O :  0.59   38H :  0.59
  370O :  0.59  609H :  0.58  738H :  0.58  353H :  0.56  661O :  0.55  361O :  0.54  405H :  0.54  630H :  0.54  601O :  0.52   93H :  0.52   53H :  0.51  464H :  0.51
  182H :  0.51  689H :  0.51  233H :  0.50  356H :  0.50  577O :  0.50   71H :  0.49    3H :  0.49  582H :  0.48  396H :  0.48  440H :  0.48  468H :  0.47  428H :  0.47
  156H :  0.47  345H :  0.47  695H :  0.46   21H :  0.46  101H :  0.45  426H :  0.45  219H :  0.43  264H :  0.43  672H :  0.43  590H :  0.43  214O :  0.41   47H :  0.41
  483H :  0.40  349O :  0.40   39H :  0.40  127O :  0.40  473H :  0.39   22O :  0.39  254H :  0.38  727O :  0.38  643O :  0.38  568O :  0.37  348H :  0.36  107H :  0.36
  465H :  0.36  537H :  0.36  172O :  0.36  288H :  0.36  533H :  0.35  331O :  0.35  656H :  0.35  326H :  0.35  306H :  0.35   68H :  0.35  216H :  0.34  125H :  0.34
  539H :  0.34  281H :  0.34  339H :  0.33  222H :  0.33  198H :  0.33  593H :  0.33  347H :  0.33  417H :  0.33  123H :  0.32  588H :  0.32   85O :  0.32  423H :  0.32
  338H :  0.32   48H :  0.32  445O :  0.31  600H :  0.31  474H :  0.30  693H :  0.30  210H :  0.29  558H :  0.29   74H :  0.29  710H :  0.29  235O :  0.29  140H :  0.29
  506H :  0.29   87H :  0.29  384H :  0.29  358O :  0.28  550O :  0.28  186H :  0.27  669H :  0.27   66H :  0.27  716H :  0.27  193O :  0.27  357H :  0.27  231H :  0.26
  411H :  0.26  104H :  0.25  668H :  0.25  299H :  0.25  398H :  0.25  519H :  0.25  554H :  0.25   95H :  0.25   11H :  0.25  284H :  0.24  576H :  0.24   59H :  0.24
  369H :  0.24   15H :  0.24  666H :  0.23   99H :  0.23  575H :  0.22  495H :  0.21  300H :  0.21  290H :  0.20  180H :  0.20  213H :  0.20    8H :  0.20  174H :  0.20
  393H :  0.20  752H :  0.20  377H :  0.20   56H :  0.19  366H :  0.19  605H :  0.19  368H :  0.19  315H :  0.19  152H :  0.19  707H :  0.18  276H :  0.18  407H :  0.18
   18H :  0.18  236H :  0.18  242H :  0.17  717H :  0.17  234H :  0.17  161H :  0.17   24H :  0.17  726H :  0.17  543H :  0.17  383H :  0.17  524H :  0.16  243H :  0.16
  437H :  0.16  294H :  0.15  429H :  0.15  375H :  0.15  293H :  0.15  749H :  0.15  165H :  0.15  435H :  0.15  698H :  0.14  425H :  0.14  723H :  0.14  705H :  0.14
  492H :  0.14  719H :  0.14   33H :  0.14  206H :  0.14  461H :  0.14    9H :  0.14  522H :  0.14  119H :  0.13  686H :  0.13  611H :  0.13  399H :  0.13   90H :  0.13
  204H :  0.13  392H :  0.13  671H :  0.13    5H :  0.13  143H :  0.12  260H :  0.12  632H :  0.12  155H :  0.12   92H :  0.12  332H :  0.12  636H :  0.12  314H :  0.12
  638H :  0.12  168H :  0.12  626H :  0.12  650H :  0.12  453H :  0.12  110H :  0.11  635H :  0.11  713H :  0.11  354H :  0.11  711H :  0.11  135H :  0.11  365H :  0.10
  270H :  0.10  659H :  0.10  191H :  0.10  504H :  0.10  336H :  0.10  170H :  0.10  725H :  0.10  431H :  0.10  363H :  0.10  651H :  0.10  516H :  0.10  432H :  0.10
  594H :  0.09  218H :  0.09  462H :  0.09  150H :  0.09  378H :  0.09  704H :  0.09  623H :  0.09  329H :  0.09  591H :  0.09  147H :  0.09  578H :  0.09  662H :  0.09
  402H :  0.09  321H :  0.08  434H :  0.08  225H :  0.08  246H :  0.08  680H :  0.08  341H :  0.08  116H :  0.08  741H :  0.08  333H :  0.08  344H :  0.08  476H :  0.08
  527H :  0.08  701H :  0.08  587H :  0.08  507H :  0.08  183H :  0.08  282H :  0.07  569H :  0.07  612H :  0.07  615H :  0.07  653H :  0.07
    7 LP   *******   0.00 -11.81261  -7.02188   4.51989  271O : 25.14   52O : 22.32  175O : 22.17  286O : 18.31  454O : 12.87  124O : 12.16   67O : 11.74  463O : 11.44   25O : 10.86  232O : 10.07  130O :  9.96  106O :  9.84
  691O :  9.41  655O :  8.87  403O :  8.73  604O :  8.46   37O :  8.41  496O :  8.17  598O :  8.16   16O :  8.00  715O :  7.66  544O :  7.57  121O :  7.35   82O :  7.32
   40O :  7.28   34O :  7.23    4O :  7.13  592O :  7.01  733O :  7.01  676O :  6.86  115O :  6.47  451O :  6.43  520O :  6.39   64O :  6.22  442O :  6.22  217O :  6.21
  103O :  6.12  148O :  6.07  304O :  6.04  736O :  5.84   19O :  5.82  322O :  5.53  346O :  5.48  244O :  5.39  634O :  5.38  679O :  5.33  529O :  5.23  646O :  5.19
   46O :  5.13  517O :  5.12  490O :  5.11  337O :  5.10   28O :  4.86   70O :  4.85  478O :  4.76  394O :  4.71  685O :  4.65  745O :  4.64  274O :  4.58  574O :  4.50
  688O :  4.46   49O :  4.45  325O :  4.41  460O :  4.38  610O :  4.31  223O :  4.28  307O :  4.21  514O :  4.20   94O :  4.20  481O :  4.16  259O :  4.12  448O :  4.07
  181O :  4.02  637O :  3.99   43O :  3.99  751O :  3.96  397O :  3.96  247O :  3.96  118O :  3.91  562O :  3.88  709O :  3.81   10O :  3.77  421O :  3.74  631O :  3.65
  583O :  3.63   88O :  3.62    7O :  3.61  100O :  3.59  109O :  3.57  211O :  3.55  262O :  3.55  754O :  3.50  355O :  3.47  184O :  3.41  472O :  3.40  151O :  3.35
  391O :  3.35  427O :  3.33  559O :  3.33  367O :  3.30  250O :  3.29  199O :  3.29  352O :  3.25  145O :  3.21  502O :  3.21  334O :  3.15  241O :  3.14  202O :  3.14
  475O :  3.13  301O :  3.12   58O :  3.03  238O :  3.03   73O :  3.02  418O :  2.93  424O :  2.93  628O :  2.91  208O :  2.90  157O :  2.89  376O :  2.89  256O :  2.88
  658O :  2.83  439O :  2.83  187O :  2.80  640O :  2.80  178O :  2.77  580O :  2.76  319O :  2.73  433O :  2.71  142O :  2.70  532O :  2.68  499O :  2.66   91O :  2.66
  535O :  2.65  553O :  2.63  289O :  2.57  436O :  2.55  190O :  2.53  556O :  2.52  373O :  2.46  226O :  2.45   61O :  2.44  298O :  2.42  526O :  2.38  154O :  2.38
  457O :  2.37  595O :  2.35  364O :  2.32  313O :  2.31  328O :  2.29  409O :  2.28  280O :  2.28  196O :  2.27  739O :  2.24  505O :  2.24   13O :  2.24  694O :  2.23
  607O :  2.18  406O :  2.16  229O :  2.16  571O :  2.15  619O :  2.13  466O :  2.11  316O :  2.08  670O :  2.04  484O :  2.03   76O :  2.02  277O :  1.99  343O :  1.97
  697O :  1.96  703O :  1.94  283O :  1.93  400O :  1.91  139O :  1.91  385O :  1.90  220O :  1.88   31O :  1.87  613O :  1.85  508O :  1.82  430O :  1.82  412O :  1.79
  268O :  1.77  649O :  1.77  379O :  1.72  511O :  1.66  721O :  1.65  253O :  1.64  133O :  1.62  565O :  1.56  625O :  1.56  169O :  1.54  487O :  1.54  160O :  1.47
  136O :  1.46  205O :  1.46  126H :  1.43  404H :  1.42  622O :  1.40  652O :  1.39  469O :  1.38  541O :  1.37  523O :  1.33  718O :  1.31  616O :  1.31  706O :  1.29
  748O :  1.23  493O :  1.22  735H :  1.19  742O :  1.16  586O :  1.15  673O :  1.14    1O :  1.14  664O :  1.11  443H :  1.11   63H :  1.10  112O :  1.09  450H :  1.08
  682O :  1.07  538O :  1.06  455H :  1.05  163O :  1.04  144H :  1.03  415O :  1.02   55O :  1.02  131H :  1.02  700O :  1.00  295O :  0.96  730O :  0.95  547O :  0.94
  176H :  0.94  667O :  0.92  292O :  0.92  189H :  0.91  712O :  0.90  737H :  0.89   83H :  0.88  724O :  0.88   84H :  0.86  589O :  0.85  456H :  0.84  382O :  0.83
   79O :  0.79  166O :  0.79   72H :  0.76  606H :  0.76   20H :  0.75  340O :  0.73   26H :  0.71  287H :  0.71   44H :  0.70  224H :  0.69  265O :  0.69  498H :  0.67
  153H :  0.67  120H :  0.66  521H :  0.66  279H :  0.66  258H :  0.65   78H :  0.64  388O :  0.63  335H :  0.61   51H :  0.61   97O :  0.61  310O :  0.59  672H :  0.59
   38H :  0.58  370O :  0.58  609H :  0.58  738H :  0.58  353H :  0.55  661O :  0.54  361O :  0.54  405H :  0.53  630H :  0.53  601O :  0.52   93H :  0.52  464H :  0.51
   53H :  0.51  689H :  0.50  182H :  0.50  356H :  0.50  233H :  0.50  577O :  0.49   71H :  0.49    3H :  0.49  582H :  0.48  396H :  0.47  440H :  0.47  468H :  0.47
  428H :  0.46  156H :  0.46  345H :  0.46  695H :  0.46   21H :  0.45  426H :  0.44  101H :  0.44  219H :  0.43  264H :  0.42  590H :  0.42  214O :  0.41   47H :  0.40
  483H :  0.39  349O :  0.39  127O :  0.39   39H :  0.39  473H :  0.38   22O :  0.38  254H :  0.38  727O :  0.38  643O :  0.37  568O :  0.36  348H :  0.36  107H :  0.36
  465H :  0.36  172O :  0.36  537H :  0.36  533H :  0.35  656H :  0.35  326H :  0.35  331O :  0.34  306H :  0.34   68H :  0.34  216H :  0.34  125H :  0.34  539H :  0.34
  281H :  0.33  339H :  0.33  222H :  0.33  198H :  0.33  593H :  0.33  347H :  0.32  417H :  0.32  123H :  0.32   85O :  0.32  423H :  0.32  338H :  0.31   48H :  0.31
  445O :  0.31  600H :  0.31  288H :  0.31  588H :  0.30  474H :  0.30  693H :  0.30  210H :  0.29  558H :  0.29   74H :  0.29  235O :  0.29  140H :  0.29  506H :  0.29
   87H :  0.29  384H :  0.28  550O :  0.28  358O :  0.28  186H :  0.27  669H :  0.27   66H :  0.27  710H :  0.27  716H :  0.26  193O :  0.26  357H :  0.26  231H :  0.26
  411H :  0.26  104H :  0.25  668H :  0.25  299H :  0.25  398H :  0.25  519H :  0.24  554H :  0.24   11H :  0.24   95H :  0.24  284H :  0.24  576H :  0.24   59H :  0.23
  369H :  0.23   15H :  0.23  666H :  0.23   99H :  0.23  575H :  0.22   56H :  0.21  495H :  0.21  300H :  0.21  290H :  0.20  180H :  0.20  213H :  0.20    8H :  0.20
  174H :  0.20  393H :  0.20  752H :  0.20  377H :  0.19  366H :  0.19  605H :  0.19  368H :  0.19  315H :  0.18  152H :  0.18  707H :  0.18  276H :  0.18   18H :  0.18
  407H :  0.18  236H :  0.17  242H :  0.17  234H :  0.17  717H :  0.17  161H :  0.17   24H :  0.17  726H :  0.17  543H :  0.16  383H :  0.16  524H :  0.16  243H :  0.16
  437H :  0.15  294H :  0.15  429H :  0.15  375H :  0.15  293H :  0.15  165H :  0.15  749H :  0.14  435H :  0.14  698H :  0.14  425H :  0.14  723H :  0.14  705H :  0.14
  492H :  0.14  719H :  0.14   33H :  0.14  206H :  0.14  461H :  0.14  119H :  0.13    9H :  0.13  522H :  0.13  686H :  0.13  611H :  0.13  671H :  0.13  399H :  0.13
   90H :  0.13  204H :  0.13  392H :  0.13    5H :  0.13  143H :  0.12  260H :  0.12  632H :  0.12  155H :  0.12   92H :  0.12  332H :  0.12  636H :  0.12  314H :  0.12
  638H :  0.12  168H :  0.12  626H :  0.12  650H :  0.12  453H :  0.11  110H :  0.11  711H :  0.11  713H :  0.11  635H :  0.11  354H :  0.11  135H :  0.11  365H :  0.10
  270H :  0.10  659H :  0.10  191H :  0.10  504H :  0.10  336H :  0.10  170H :  0.10  725H :  0.10  431H :  0.10  363H :  0.10  651H :  0.10  516H :  0.09  432H :  0.09
  594H :  0.09  218H :  0.09  462H :  0.09  150H :  0.09  378H :  0.09  704H :  0.09  623H :  0.09  329H :  0.09  591H :  0.09  147H :  0.09  578H :  0.09  662H :  0.09
  402H :  0.09  494H :  0.08  321H :  0.08  434H :  0.08  225H :  0.08  246H :  0.08  116H :  0.08  680H :  0.08  341H :  0.08  741H :  0.08  333H :  0.08  344H :  0.08
  476H :  0.08  527H :  0.08  701H :  0.08  587H :  0.08  507H :  0.08  183H :  0.07  282H :  0.07  569H :  0.07  612H :  0.07  615H :  0.07
    8 LP   *******   0.00  26.94689 -12.41594  38.02588  271O : 22.69   52O : 22.49  175O : 21.40  286O : 17.73  454O : 12.42  124O : 11.74   67O : 11.33  463O : 11.04   25O : 10.49  232O :  9.75  130O :  9.60  106O :  9.49
  691O :  9.09  655O :  8.56  403O :  8.43  604O :  8.16   37O :  8.11  598O :  7.91  496O :  7.88   16O :  7.83  715O :  7.40  544O :  7.30  121O :  7.10   82O :  7.07
   40O :  7.02   34O :  6.98    4O :  6.88  592O :  6.77  733O :  6.76  676O :  6.62  115O :  6.22  451O :  6.21  520O :  6.17   64O :  6.01  442O :  6.00  217O :  5.99
  103O :  5.91  148O :  5.86  304O :  5.83  736O :  5.64   19O :  5.61  322O :  5.34  346O :  5.28  244O :  5.20  634O :  5.19  679O :  5.14  529O :  5.05  646O :  5.01
   46O :  4.95  517O :  4.94  490O :  4.93  337O :  4.92   28O :  4.69   70O :  4.68  478O :  4.60  394O :  4.54  685O :  4.49  745O :  4.47  274O :  4.41  574O :  4.34
   49O :  4.31  688O :  4.30  325O :  4.25  460O :  4.23  610O :  4.16  223O :  4.13   94O :  4.10  307O :  4.06  514O :  4.05  481O :  4.02  259O :  3.98  448O :  3.93
  181O :  3.89  637O :  3.85   43O :  3.85  751O :  3.82  397O :  3.82  247O :  3.82  118O :  3.77  562O :  3.75  709O :  3.67   10O :  3.64  421O :  3.61  631O :  3.52
  583O :  3.50   88O :  3.49    7O :  3.48  100O :  3.47  109O :  3.44  211O :  3.43  262O :  3.43  754O :  3.37  355O :  3.34  184O :  3.29  472O :  3.28  151O :  3.24
  391O :  3.24  427O :  3.22  559O :  3.21  367O :  3.18  250O :  3.18  199O :  3.17  352O :  3.13  145O :  3.10  502O :  3.10  334O :  3.04  241O :  3.03  202O :  3.03
  475O :  3.02  301O :  3.01   58O :  2.93  238O :  2.92   73O :  2.92  418O :  2.83  424O :  2.83  628O :  2.81  157O :  2.79  376O :  2.79  256O :  2.78  658O :  2.73
  439O :  2.73  187O :  2.71  640O :  2.71  208O :  2.68  178O :  2.67  580O :  2.66  319O :  2.63  433O :  2.62  142O :  2.60  532O :  2.58  499O :  2.57   91O :  2.56
  535O :  2.55  553O :  2.53  289O :  2.48  436O :  2.46  190O :  2.45  556O :  2.43  373O :  2.37  226O :  2.36   61O :  2.34  298O :  2.34  526O :  2.30  154O :  2.30
  457O :  2.29  595O :  2.27  364O :  2.24  313O :  2.23  280O :  2.22  328O :  2.21  409O :  2.20  196O :  2.19  739O :  2.17  505O :  2.16   13O :  2.16  694O :  2.15
  607O :  2.11  406O :  2.09  229O :  2.08  571O :  2.08  619O :  2.06  466O :  2.03  316O :  2.01  670O :  1.99   76O :  1.95  277O :  1.92  343O :  1.89  484O :  1.89
  697O :  1.89  703O :  1.87  283O :  1.87  139O :  1.85  400O :  1.85  385O :  1.84  220O :  1.81   31O :  1.80  613O :  1.79  508O :  1.76  430O :  1.75  412O :  1.72
  268O :  1.71  649O :  1.70  379O :  1.66  511O :  1.60  721O :  1.60  253O :  1.58  133O :  1.56  565O :  1.51  625O :  1.50  169O :  1.49  487O :  1.47  160O :  1.42
  136O :  1.41  205O :  1.40  126H :  1.38  404H :  1.37  622O :  1.35  652O :  1.34  469O :  1.33  541O :  1.32  523O :  1.28  718O :  1.26  616O :  1.26  706O :  1.25
  748O :  1.19  493O :  1.17  735H :  1.15  742O :  1.12  673O :  1.10    1O :  1.10  586O :  1.09  664O :  1.08  443H :  1.07   63H :  1.07  112O :  1.05  450H :  1.05
  682O :  1.03  538O :  1.03  455H :  1.01   55O :  1.00  144H :  0.99  415O :  0.98  131H :  0.98  163O :  0.98  700O :  0.96  295O :  0.92  730O :  0.91  547O :  0.91
  176H :  0.90  667O :  0.89  292O :  0.89  189H :  0.88  712O :  0.87  737H :  0.85  724O :  0.85   83H :  0.85   84H :  0.83  589O :  0.82  456H :  0.81  382O :  0.80
   79O :  0.77  166O :  0.76   72H :  0.73  606H :  0.73   20H :  0.73  340O :  0.70   26H :  0.68  287H :  0.68   44H :  0.68  224H :  0.66  265O :  0.66  498H :  0.64
  153H :  0.64  120H :  0.64  521H :  0.64  279H :  0.64  258H :  0.63   78H :  0.61  388O :  0.61   51H :  0.59  335H :  0.59   97O :  0.58  310O :  0.57   38H :  0.56
  370O :  0.56  609H :  0.56  738H :  0.56   53H :  0.55  353H :  0.53  661O :  0.52  361O :  0.52  405H :  0.51  630H :  0.51  601O :  0.50   93H :  0.50  464H :  0.49
  182H :  0.49  689H :  0.49  233H :  0.48  356H :  0.48  577O :  0.47   71H :  0.47    3H :  0.47  582H :  0.46  396H :  0.46  440H :  0.45  468H :  0.45  428H :  0.45
  156H :  0.45  345H :  0.44  695H :  0.44   21H :  0.44  426H :  0.43  101H :  0.43  219H :  0.41  264H :  0.41  672H :  0.41  590H :  0.41  214O :  0.39   47H :  0.39
  483H :  0.38  349O :  0.38  127O :  0.38   39H :  0.38  331O :  0.37  473H :  0.37   22O :  0.37  254H :  0.37  288H :  0.36  727O :  0.36  643O :  0.36  568O :  0.35
  348H :  0.35  107H :  0.35  465H :  0.35  537H :  0.34  533H :  0.34  172O :  0.34  656H :  0.34  326H :  0.34  588H :  0.33  306H :  0.33   68H :  0.33  216H :  0.33
  125H :  0.33  539H :  0.33  281H :  0.32  339H :  0.32  222H :  0.32  198H :  0.32  593H :  0.31  347H :  0.31  417H :  0.31  123H :  0.31   85O :  0.31  423H :  0.30
  338H :  0.30   48H :  0.30  445O :  0.30  600H :  0.29  474H :  0.28  693H :  0.28  210H :  0.28  558H :  0.28   74H :  0.28  235O :  0.28  140H :  0.28  506H :  0.28
   87H :  0.28  384H :  0.27  358O :  0.27  550O :  0.27  186H :  0.26  669H :  0.26   66H :  0.26  710H :  0.26  716H :  0.25  193O :  0.25  357H :  0.25  231H :  0.25
  411H :  0.25  104H :  0.24  668H :  0.24  299H :  0.24  398H :  0.24  519H :  0.24  554H :  0.24   95H :  0.23   11H :  0.23  284H :  0.23  576H :  0.23   59H :  0.23
  369H :  0.23   15H :  0.22  666H :  0.22   99H :  0.22  575H :  0.21  495H :  0.20  300H :  0.20  290H :  0.20  180H :  0.19  213H :  0.19    8H :  0.19  174H :  0.19
  393H :  0.19  752H :  0.19  377H :  0.19  366H :  0.18   56H :  0.18  605H :  0.18  368H :  0.18  315H :  0.18  152H :  0.18  707H :  0.18  276H :  0.18  407H :  0.17
   18H :  0.17  236H :  0.17  242H :  0.16  717H :  0.16  234H :  0.16  161H :  0.16   24H :  0.16  726H :  0.16  543H :  0.16  383H :  0.16  524H :  0.15  243H :  0.15
  437H :  0.15  294H :  0.15  429H :  0.15  375H :  0.14  293H :  0.14  749H :  0.14  165H :  0.14  435H :  0.14  698H :  0.14  425H :  0.14  723H :  0.14  705H :  0.14
  492H :  0.14  719H :  0.14   33H :  0.14  206H :  0.13  461H :  0.13  119H :  0.13    9H :  0.13  522H :  0.13  686H :  0.13  611H :  0.13  399H :  0.13   90H :  0.12
  204H :  0.12  392H :  0.12  671H :  0.12    5H :  0.12  143H :  0.12  260H :  0.12  632H :  0.12  155H :  0.12   92H :  0.12  636H :  0.12  332H :  0.12  314H :  0.11
  638H :  0.11  168H :  0.11  626H :  0.11  650H :  0.11  453H :  0.11  110H :  0.11  711H :  0.11  635H :  0.11  713H :  0.11  354H :  0.10  135H :  0.10  365H :  0.10
  270H :  0.10  659H :  0.10  191H :  0.10  504H :  0.10  336H :  0.10  170H :  0.10  725H :  0.09  431H :  0.09  363H :  0.09  651H :  0.09  516H :  0.09  432H :  0.09
  594H :  0.09  218H :  0.09  462H :  0.09  378H :  0.09  150H :  0.09  704H :  0.09  623H :  0.09  329H :  0.09  591H :  0.09  147H :  0.09  578H :  0.08  662H :  0.08
  402H :  0.08  494H :  0.08  321H :  0.08  434H :  0.08  225H :  0.08  246H :  0.08  680H :  0.08  341H :  0.08  741H :  0.08  116H :  0.08  344H :  0.08  476H :  0.07
  527H :  0.07  701H :  0.07  507H :  0.07  587H :  0.07   54H :  0.07  183H :  0.07  282H :  0.07  569H :  0.07
    9 LP   *******   0.00  31.95880  37.93399  -8.44688  271O : 21.21   52O : 20.14  175O : 20.00  286O : 16.52  124O : 13.30  454O : 11.57   67O : 10.59  463O : 10.47   25O :  9.80  232O :  9.11  130O :  8.99  106O :  8.87
  691O :  8.49  655O :  8.00  403O :  7.89  604O :  7.63   37O :  7.58  598O :  7.40  496O :  7.37   16O :  7.32  715O :  6.91  544O :  6.83  121O :  6.63   40O :  6.60
   34O :  6.53    4O :  6.42   82O :  6.33  592O :  6.33  733O :  6.32  676O :  6.19  115O :  5.84  451O :  5.81  520O :  5.77   64O :  5.64  442O :  5.61  217O :  5.61
  103O :  5.53  148O :  5.48  304O :  5.45  736O :  5.27   19O :  5.25  322O :  4.99  346O :  4.94  244O :  4.86  634O :  4.85  679O :  4.81  529O :  4.72  646O :  4.68
   46O :  4.62  517O :  4.62  337O :  4.60  490O :  4.59   70O :  4.38   28O :  4.38  478O :  4.30  394O :  4.24  685O :  4.19  745O :  4.18  274O :  4.13  574O :  4.06
  688O :  4.02   49O :  4.02  325O :  3.98  460O :  3.95  610O :  3.89  223O :  3.86   94O :  3.83  307O :  3.80  514O :  3.79  481O :  3.76  259O :  3.72  448O :  3.67
  181O :  3.63   43O :  3.61  637O :  3.60  397O :  3.57  247O :  3.57  118O :  3.53  751O :  3.52  562O :  3.50  709O :  3.44   10O :  3.40  421O :  3.37  631O :  3.29
  583O :  3.27   88O :  3.26    7O :  3.25  100O :  3.24  109O :  3.22  211O :  3.21  262O :  3.20  754O :  3.15  355O :  3.13  184O :  3.08  472O :  3.07  151O :  3.03
  391O :  3.02  427O :  3.01  559O :  2.99  367O :  2.97  250O :  2.97  199O :  2.96  352O :  2.93  145O :  2.89  502O :  2.89  334O :  2.84  241O :  2.83  202O :  2.83
  475O :  2.82  301O :  2.81  238O :  2.73   58O :  2.73   73O :  2.73  418O :  2.64  424O :  2.64  628O :  2.62  208O :  2.61  157O :  2.61  376O :  2.61  256O :  2.59
  658O :  2.55  439O :  2.55  640O :  2.53  187O :  2.53  178O :  2.50  580O :  2.49  319O :  2.46  433O :  2.44  142O :  2.44  532O :  2.41  499O :  2.40   91O :  2.39
  535O :  2.39  553O :  2.37  289O :  2.31  436O :  2.30  190O :  2.28  556O :  2.28  373O :  2.22  226O :  2.21   61O :  2.19  298O :  2.18  526O :  2.15  154O :  2.15
  457O :  2.14  595O :  2.12  364O :  2.10  313O :  2.09  328O :  2.07  409O :  2.06  280O :  2.06  196O :  2.04  739O :  2.02  505O :  2.02   13O :  2.02  694O :  2.01
  607O :  1.97  406O :  1.95  229O :  1.95  571O :  1.95  619O :  1.92  466O :  1.90  316O :  1.87  670O :  1.86   76O :  1.82  277O :  1.79  697O :  1.77  343O :  1.77
  484O :  1.77  703O :  1.75  283O :  1.74  139O :  1.73  400O :  1.73  385O :  1.72  220O :  1.69   31O :  1.69  613O :  1.67  508O :  1.64  430O :  1.64  412O :  1.61
  268O :  1.60  649O :  1.59  379O :  1.55  511O :  1.49  721O :  1.49  253O :  1.47  133O :  1.46  565O :  1.41  625O :  1.41  169O :  1.39  487O :  1.37  160O :  1.33
  136O :  1.32  205O :  1.31  404H :  1.28  622O :  1.26  652O :  1.25  469O :  1.24  541O :  1.24  523O :  1.20  718O :  1.18  616O :  1.18  706O :  1.17  748O :  1.11
  493O :  1.10  126H :  1.09  735H :  1.07  742O :  1.05  586O :  1.04  673O :  1.03    1O :  1.02  664O :  1.01  443H :  1.00   63H :  1.00  112O :  0.98  450H :  0.98
  538O :  0.96  682O :  0.96  455H :  0.94   55O :  0.93  144H :  0.93  415O :  0.92  131H :  0.92  163O :  0.91  700O :  0.90  295O :  0.86  730O :  0.86  547O :  0.85
  176H :  0.84  667O :  0.83  292O :  0.83  189H :  0.82  712O :  0.81  737H :  0.80  724O :  0.80  589O :  0.77   84H :  0.76  382O :  0.75  456H :  0.73  166O :  0.72
   79O :  0.72   72H :  0.71  606H :  0.68   20H :  0.68  340O :  0.65   83H :  0.64   26H :  0.64  287H :  0.64   44H :  0.63  224H :  0.62  265O :  0.62  498H :  0.60
  153H :  0.60  521H :  0.60  120H :  0.60  279H :  0.59  258H :  0.59   78H :  0.57  388O :  0.57  335H :  0.55   51H :  0.55   97O :  0.55  310O :  0.54   38H :  0.53
  370O :  0.52  609H :  0.52  738H :  0.52  353H :  0.50  661O :  0.49  361O :  0.48  405H :  0.48  630H :  0.48  601O :  0.47   93H :  0.47  464H :  0.46  182H :  0.46
   53H :  0.46  689H :  0.45  233H :  0.45  356H :  0.45  577O :  0.44    3H :  0.44   71H :  0.43  582H :  0.43  396H :  0.43  440H :  0.42  468H :  0.42  428H :  0.42
  156H :  0.42  345H :  0.42  695H :  0.41   21H :  0.41  426H :  0.40  101H :  0.40  219H :  0.39  264H :  0.38  672H :  0.38  590H :  0.38  214O :  0.36   47H :  0.36
  483H :  0.36  349O :  0.36  127O :  0.35   39H :  0.35  473H :  0.34   22O :  0.34  254H :  0.34  727O :  0.34  643O :  0.34  568O :  0.33  348H :  0.32  465H :  0.32
  107H :  0.32  172O :  0.32  537H :  0.32  533H :  0.32  656H :  0.32  326H :  0.31  331O :  0.31   68H :  0.31  306H :  0.31  216H :  0.31  539H :  0.30  281H :  0.30
  339H :  0.30  222H :  0.30  198H :  0.30  593H :  0.29  347H :  0.29  417H :  0.29  123H :  0.29   85O :  0.29  423H :  0.28  338H :  0.28   48H :  0.28  445O :  0.28
  600H :  0.28  288H :  0.28  588H :  0.27  474H :  0.27  693H :  0.27  210H :  0.26  558H :  0.26   74H :  0.26  235O :  0.26  140H :  0.26  506H :  0.26   87H :  0.26
  384H :  0.26  550O :  0.25  358O :  0.25   66H :  0.24  186H :  0.24  669H :  0.24  710H :  0.24  716H :  0.24  193O :  0.24  357H :  0.24  231H :  0.24  411H :  0.23
[...]
   369   1 h    0.884 --   367 o    0.824
   370   8 o    1.819 --   372 h    0.867   371 h    0.846
   371   1 h    0.895 --   370 o    0.846
   372   1 h    0.898 --   370 o    0.867
   373   8 o    1.821 --   374 h    0.902   375 h    0.834
   374   1 h    0.911 --   373 o    0.902
   375   1 h    0.886 --   373 o    0.834
   376   8 o    1.873 --   377 h    0.803   378 h    0.781
   377   1 h    0.890 --   376 o    0.803
   378   1 h    0.871 --   376 o    0.781
   379   8 o    1.815 --   380 h    0.837   381 h    0.815
   380   1 h    0.897 --   379 o    0.837
   381   1 h    0.882 --   379 o    0.815
   382   8 o    1.851 --   383 h    0.825   384 h    0.824
   383   1 h    0.890 --   382 o    0.825
   384   1 h    0.874 --   382 o    0.824
   385   8 o    1.847 --   387 h    0.849   386 h    0.792
   386   1 h    0.872 --   385 o    0.792
   387   1 h    0.896 --   385 o    0.849
   388   8 o    1.887 --   389 h    0.836   390 h    0.817
   389   1 h    0.881 --   388 o    0.836
   390   1 h    0.877 --   388 o    0.817
   391   8 o    1.854 --   392 h    0.877   393 h    0.809
   392   1 h    0.897 --   391 o    0.877
   393   1 h    0.874 --   391 o    0.809
   394   8 o    1.840 --   396 h    0.884   395 h    0.855
   395   1 h    0.896 --   394 o    0.855
   396   1 h    0.902 --   394 o    0.884
   397   8 o    1.843 --   399 h    0.899   398 h    0.771
   398   1 h    0.870 --   397 o    0.771
   399   1 h    0.912 --   397 o    0.899
   400   8 o    1.844 --   402 h    0.855   401 h    0.808
   401   1 h    0.887 --   400 o    0.808
   402   1 h    0.895 --   400 o    0.855
   403   8 o    1.882 --   405 h    0.832   404 h    0.812
   404   1 h    0.877 --   403 o    0.812
   405   1 h    0.888 --   403 o    0.832
   406   8 o    1.857 --   407 h    0.828   408 h    0.814
   407   1 h    0.887 --   406 o    0.828
   408   1 h    0.885 --   406 o    0.814
   409   8 o    1.856 --   410 h    0.861   411 h    0.830
   410   1 h    0.895 --   409 o    0.861
   411   1 h    0.884 --   409 o    0.830
   412   8 o    1.833 --   414 h    0.829   413 h    0.824
   413   1 h    0.881 --   412 o    0.824
   414   1 h    0.870 --   412 o    0.829
   415   8 o    1.863 --   417 h    0.829   416 h    0.817
   416   1 h    0.881 --   415 o    0.817
   417   1 h    0.890 --   415 o    0.829
   418   8 o    1.868 --   419 h    0.819   420 h    0.802
   419   1 h    0.873 --   418 o    0.819
   420   1 h    0.875 --   418 o    0.802
   421   8 o    1.842 --   422 h    0.840   423 h    0.802
   422   1 h    0.898 --   421 o    0.840
   423   1 h    0.886 --   421 o    0.802
   424   8 o    1.836 --   425 h    0.857   426 h    0.841
   425   1 h    0.895 --   424 o    0.857
   426   1 h    0.896 --   424 o    0.841
   427   8 o    1.840 --   428 h    0.867   429 h    0.847
   428   1 h    0.903 --   427 o    0.867
   429   1 h    0.892 --   427 o    0.847
   430   8 o    1.858 --   431 h    0.861   432 h    0.852
   431   1 h    0.894 --   430 o    0.861
   432   1 h    0.897 --   430 o    0.852
   433   8 o    1.826 --   435 h    0.827   434 h    0.816
   434   1 h    0.886 --   433 o    0.816
   435   1 h    0.883 --   433 o    0.827
   436   8 o    1.840 --   438 h    0.843   437 h    0.841
   437   1 h    0.887 --   436 o    0.841
   438   1 h    0.894 --   436 o    0.843
   439   8 o    1.845 --   441 h    0.866   440 h    0.825
   440   1 h    0.879 --   439 o    0.825
   441   1 h    0.897 --   439 o    0.866
   442   8 o    1.850 --   444 h    0.831   443 h    0.823
   443   1 h    0.886 --   442 o    0.823
   444   1 h    0.884 --   442 o    0.831
   445   8 o    1.836 --   446 h    0.843   447 h    0.824
   446   1 h    0.892 --   445 o    0.843
   447   1 h    0.887 --   445 o    0.824
   448   8 o    1.828 --   449 h    0.851   450 h    0.828
   449   1 h    0.898 --   448 o    0.851
   450   1 h    0.893 --   448 o    0.828
   451   8 o    1.875 --   453 h    0.811   452 h    0.776
   452   1 h    0.870 --   451 o    0.776
   453   1 h    0.878 --   451 o    0.811
   454   8 o    1.892 --   455 h    0.842   456 h    0.762
   455   1 h    0.884 --   454 o    0.842
   456   1 h    0.857 --   454 o    0.762
   457   8 o    1.851 --   458 h    0.833   459 h    0.784
   458   1 h    0.891 --   457 o    0.833
   459   1 h    0.871 --   457 o    0.784
   460   8 o    1.840 --   461 h    0.833   462 h    0.825
   461   1 h    0.890 --   460 o    0.833
   462   1 h    0.890 --   460 o    0.825
   463   8 o    1.852 --   465 h    0.846   464 h    0.783
   464   1 h    0.874 --   463 o    0.783
   465   1 h    0.889 --   463 o    0.846
   466   8 o    1.856 --   467 h    0.858   468 h    0.836
   467   1 h    0.895 --   466 o    0.858
   468   1 h    0.888 --   466 o    0.836
   469   8 o    1.877 --   471 h    0.831   470 h    0.821
   470   1 h    0.875 --   469 o    0.821
   471   1 h    0.880 --   469 o    0.831
   472   8 o    1.844 --   474 h    0.869   473 h    0.868
   473   1 h    0.896 --   472 o    0.868
   474   1 h    0.897 --   472 o    0.869
   475   8 o    1.832 --   477 h    0.827   476 h    0.821
   476   1 h    0.879 --   475 o    0.821
   477   1 h    0.878 --   475 o    0.827
   478   8 o    1.862 --   480 h    0.896   479 h    0.808
   479   1 h    0.873 --   478 o    0.808
   480   1 h    0.909 --   478 o    0.896
   481   8 o    1.838 --   483 h    0.857   482 h    0.852
   482   1 h    0.897 --   481 o    0.852
   483   1 h    0.896 --   481 o    0.857
   484   8 o    1.852 --   485 h    0.846   486 h    0.830
   485   1 h    0.895 --   484 o    0.846
   486   1 h    0.893 --   484 o    0.830
   487   8 o    1.857 --   488 h    0.834   489 h    0.832
   488   1 h    0.894 --   487 o    0.834
   489   1 h    0.883 --   487 o    0.832
   490   8 o    1.844 --   492 h    0.848   491 h    0.840
   491   1 h    0.896 --   490 o    0.840
   492   1 h    0.893 --   490 o    0.848
   493   8 o    1.802 --   494 h    0.862   495 h    0.841
   494   1 h    0.895 --   493 o    0.862
   495   1 h    0.890 --   493 o    0.841
   496   8 o    1.839 --   498 h    0.880   497 h    0.831
   497   1 h    0.884 --   496 o    0.831
   498   1 h    0.900 --   496 o    0.880
   499   8 o    1.861 --   500 h    0.857   501 h    0.809
   500   1 h    0.897 --   499 o    0.857
   501   1 h    0.867 --   499 o    0.809
   502   8 o    1.819 --   503 h    0.868   504 h    0.813
   503   1 h    0.898 --   502 o    0.868
   504   1 h    0.889 --   502 o    0.813
   505   8 o    1.856 --   506 h    0.875   507 h    0.809
   506   1 h    0.901 --   505 o    0.875
   507   1 h    0.884 --   505 o    0.809
   508   8 o    1.841 --   510 h    0.834   509 h    0.795
   509   1 h    0.878 --   508 o    0.795
   510   1 h    0.892 --   508 o    0.834
   511   8 o    1.875 --   512 h    0.826   513 h    0.808
   512   1 h    0.890 --   511 o    0.826
   513   1 h    0.883 --   511 o    0.808
   514   8 o    1.862 --   516 h    0.831   515 h    0.795
   515   1 h    0.871 --   514 o    0.795
   516   1 h    0.887 --   514 o    0.831
   517   8 o    1.865 --   518 h    0.917   519 h    0.809
   518   1 h    0.922 --   517 o    0.917
   519   1 h    0.876 --   517 o    0.809
   520   8 o    1.868 --   522 h    0.866   521 h    0.848
   521   1 h    0.891 --   520 o    0.848
   522   1 h    0.895 --   520 o    0.866
   523   8 o    1.813 --   524 h    0.860   525 h    0.848
   524   1 h    0.893 --   523 o    0.860
   525   1 h    0.892 --   523 o    0.848
   526   8 o    1.837 --   527 h    0.880   528 h    0.861
   527   1 h    0.898 --   526 o    0.880
   528   1 h    0.892 --   526 o    0.861
   529   8 o    1.879 --   531 h    0.817   530 h    0.807
   530   1 h    0.880 --   529 o    0.807
   531   1 h    0.870 --   529 o    0.817
   532   8 o    1.838 --   534 h    0.889   533 h    0.802
   533   1 h    0.871 --   532 o    0.802
   534   1 h    0.905 --   532 o    0.889
   535   8 o    1.849 --   537 h    0.863   536 h    0.816
   536   1 h    0.873 --   535 o    0.816
   537   1 h    0.896 --   535 o    0.863
   538   8 o    1.836 --   539 h    0.853   540 h    0.820
   539   1 h    0.898 --   538 o    0.853
   540   1 h    0.879 --   538 o    0.820
   541   8 o    1.864 --   543 h    0.821   542 h    0.807
   542   1 h    0.882 --   541 o    0.807
   543   1 h    0.886 --   541 o    0.821
   544   8 o    1.838 --   546 h    0.829   545 h    0.820
   545   1 h    0.883 --   544 o    0.820
   546   1 h    0.888 --   544 o    0.829
   547   8 o    1.866 --   549 h    0.837   548 h    0.822
   548   1 h    0.894 --   547 o    0.822
   549   1 h    0.892 --   547 o    0.837
   550   8 o    1.872 --   551 h    0.915   552 h    0.795
   551   1 h    0.921 --   550 o    0.915
   552   1 h    0.872 --   550 o    0.795
   553   8 o    1.843 --   554 h    0.914   555 h    0.800
   554   1 h    0.923 --   553 o    0.914
   555   1 h    0.879 --   553 o    0.800
   556   8 o    1.866 --   557 h    0.858   558 h    0.781
   557   1 h    0.898 --   556 o    0.858
   558   1 h    0.873 --   556 o    0.781
   559   8 o    1.836 --   561 h    0.881   560 h    0.796
   560   1 h    0.879 --   559 o    0.796
   561   1 h    0.904 --   559 o    0.881
   562   8 o    1.843 --   563 h    0.815   564 h    0.807
   563   1 h    0.881 --   562 o    0.815
   564   1 h    0.872 --   562 o    0.807
   565   8 o    1.840 --   566 h    0.849   567 h    0.794
   566   1 h    0.897 --   565 o    0.849
   567   1 h    0.885 --   565 o    0.794
   568   8 o    1.846 --   570 h    0.867   569 h    0.824
   569   1 h    0.882 --   568 o    0.824
   570   1 h    0.898 --   568 o    0.867
   571   8 o    1.842 --   572 h    0.825   573 h    0.815
   572   1 h    0.885 --   571 o    0.825
   573   1 h    0.883 --   571 o    0.815
   574   8 o    1.827 --   575 h    0.879   576 h    0.821
   575   1 h    0.903 --   574 o    0.879
   576   1 h    0.886 --   574 o    0.821
   577   8 o    1.841 --   578 h    0.903   579 h    0.785
   578   1 h    0.912 --   577 o    0.903
   579   1 h    0.870 --   577 o    0.785
   580   8 o    1.834 --   582 h    0.872   581 h    0.821
   581   1 h    0.892 --   580 o    0.821
   582   1 h    0.902 --   580 o    0.872
   583   8 o    1.883 --   584 h    0.867   585 h    0.777
   584   1 h    0.893 --   583 o    0.867
   585   1 h    0.870 --   583 o    0.777
   586   8 o    1.824 --   587 h    0.846   588 h    0.836
   587   1 h    0.894 --   586 o    0.846
   588   1 h    0.895 --   586 o    0.836
   589   8 o    1.871 --   590 h    0.823   591 h    0.776
   590   1 h    0.893 --   589 o    0.823
   591   1 h    0.869 --   589 o    0.776
   592   8 o    1.850 --   593 h    0.896   594 h    0.827
   593   1 h    0.907 --   592 o    0.896
   594   1 h    0.887 --   592 o    0.827
   595   8 o    1.854 --   597 h    0.902   596 h    0.819
   596   1 h    0.874 --   595 o    0.819
   597   1 h    0.912 --   595 o    0.902
   598   8 o    1.842 --   600 h    0.872   599 h    0.816
   599   1 h    0.872 --   598 o    0.816
   600   1 h    0.898 --   598 o    0.872
   601   8 o    1.882 --   602 h    0.896   603 h    0.810
   602   1 h    0.905 --   601 o    0.896
   603   1 h    0.880 --   601 o    0.810
   604   8 o    1.868 --   606 h    0.851   605 h    0.816
   605   1 h    0.877 --   604 o    0.816
   606   1 h    0.896 --   604 o    0.851
   607   8 o    1.851 --   608 h    0.828   609 h    0.803
   608   1 h    0.885 --   607 o    0.828
   609   1 h    0.866 --   607 o    0.803
   610   8 o    1.880 --   611 h    0.814   612 h    0.804
   611   1 h    0.876 --   610 o    0.814
   612   1 h    0.874 --   610 o    0.804
   613   8 o    1.836 --   615 h    0.858   614 h    0.840
   614   1 h    0.889 --   613 o    0.840
   615   1 h    0.898 --   613 o    0.858
   616   8 o    1.843 --   617 h    0.874   618 h    0.803
   617   1 h    0.902 --   616 o    0.874
   618   1 h    0.884 --   616 o    0.803
   619   8 o    1.831 --   620 h    0.878   621 h    0.841
   620   1 h    0.899 --   619 o    0.878
   621   1 h    0.890 --   619 o    0.841
   622   8 o    1.823 --   623 h    0.820   624 h    0.815
   623   1 h    0.888 --   622 o    0.820
   624   1 h    0.883 --   622 o    0.815
   625   8 o    1.860 --   626 h    0.863   627 h    0.853
   626   1 h    0.899 --   625 o    0.863
   627   1 h    0.889 --   625 o    0.853
   628   8 o    1.854 --   629 h    0.840   630 h    0.824
   629   1 h    0.878 --   628 o    0.840
   630   1 h    0.883 --   628 o    0.824
   631   8 o    1.858 --   633 h    0.814   632 h    0.802
   632   1 h    0.876 --   631 o    0.802
   633   1 h    0.880 --   631 o    0.814
   634   8 o    1.853 --   636 h    0.821   635 h    0.811
   635   1 h    0.876 --   634 o    0.811
   636   1 h    0.882 --   634 o    0.821
   637   8 o    1.828 --   638 h    0.866   639 h    0.817
   638   1 h    0.897 --   637 o    0.866
   639   1 h    0.877 --   637 o    0.817
   640   8 o    1.863 --   642 h    0.869   641 h    0.850
   641   1 h    0.890 --   640 o    0.850
   642   1 h    0.892 --   640 o    0.869
   643   8 o    1.873 --   645 h    0.841   644 h    0.818
   644   1 h    0.883 --   643 o    0.818
   645   1 h    0.883 --   643 o    0.841
   646   8 o    1.844 --   647 h    0.842   648 h    0.800
   647   1 h    0.896 --   646 o    0.842
   648   1 h    0.888 --   646 o    0.800
   649   8 o    1.857 --   651 h    0.842   650 h    0.817
   650   1 h    0.884 --   649 o    0.817
   651   1 h    0.897 --   649 o    0.842
   652   8 o    1.840 --   654 h    0.867   653 h    0.826
   653   1 h    0.888 --   652 o    0.826
   654   1 h    0.898 --   652 o    0.867
   655   8 o    1.828 --   656 h    0.879   657 h    0.815
   656   1 h    0.904 --   655 o    0.879
   657   1 h    0.884 --   655 o    0.815
   658   8 o    1.838 --   660 h    0.868   659 h    0.804
   659   1 h    0.873 --   658 o    0.804
   660   1 h    0.893 --   658 o    0.868
   661   8 o    1.823 --   662 h    0.823   663 h    0.817
   662   1 h    0.889 --   661 o    0.823
   663   1 h    0.885 --   661 o    0.817
   664   8 o    1.837 --   666 h    0.849   665 h    0.793
   665   1 h    0.877 --   664 o    0.793
   666   1 h    0.895 --   664 o    0.849
   667   8 o    1.846 --   669 h    0.850   668 h    0.813
   668   1 h    0.883 --   667 o    0.813
   669   1 h    0.893 --   667 o    0.850
   670   8 o    1.854 --   672 h    0.817   671 h    0.815
   671   1 h    0.876 --   670 o    0.815
   672   1 h    0.879 --   670 o    0.817
   673   8 o    1.868 --   674 h    0.865   675 h    0.858
   674   1 h    0.898 --   673 o    0.865
   675   1 h    0.892 --   673 o    0.858
   676   8 o    1.883 --   678 h    0.853   677 h    0.824
   677   1 h    0.884 --   676 o    0.824
   678   1 h    0.888 --   676 o    0.853
   679   8 o    1.841 --   680 h    0.898   681 h    0.827
   680   1 h    0.908 --   679 o    0.898
   681   1 h    0.885 --   679 o    0.827
   682   8 o    1.889 --   683 h    0.834   684 h    0.831
   683   1 h    0.877 --   682 o    0.834
   684   1 h    0.879 --   682 o    0.831
   685   8 o    1.845 --   687 h    0.845   686 h    0.806
   686   1 h    0.878 --   685 o    0.806
   687   1 h    0.899 --   685 o    0.845
   688   8 o    1.865 --   689 h    0.866   690 h    0.814
   689   1 h    0.894 --   688 o    0.866
   690   1 h    0.879 --   688 o    0.814
   691   8 o    1.826 --   693 h    0.851   692 h    0.825
   692   1 h    0.881 --   691 o    0.825
   693   1 h    0.900 --   691 o    0.851
   694   8 o    1.850 --   695 h    0.878   696 h    0.813
   695   1 h    0.902 --   694 o    0.878
   696   1 h    0.874 --   694 o    0.813
   697   8 o    1.856 --   699 h    0.837   698 h    0.814
   698   1 h    0.875 --   697 o    0.814
   699   1 h    0.887 --   697 o    0.837
   700   8 o    1.861 --   701 h    0.804   702 h    0.798
   701   1 h    0.874 --   700 o    0.804
   702   1 h    0.882 --   700 o    0.798
   703   8 o    1.845 --   705 h    0.831   704 h    0.829
   704   1 h    0.894 --   703 o    0.829
   705   1 h    0.887 --   703 o    0.831
   706   8 o    1.825 --   707 h    0.875   708 h    0.808
   707   1 h    0.895 --   706 o    0.875
   708   1 h    0.871 --   706 o    0.808
   709   8 o    1.887 --   711 h    0.841   710 h    0.812
   710   1 h    0.885 --   709 o    0.812
   711   1 h    0.897 --   709 o    0.841
   712   8 o    1.881 --   713 h    0.856   714 h    0.794
   713   1 h    0.890 --   712 o    0.856
   714   1 h    0.873 --   712 o    0.794
   715   8 o    1.836 --   716 h    0.878   717 h    0.863
   716   1 h    0.902 --   715 o    0.878
   717   1 h    0.893 --   715 o    0.863
   718   8 o    1.864 --   719 h    0.905   720 h    0.849
   719   1 h    0.910 --   718 o    0.905
   720   1 h    0.884 --   718 o    0.849
   721   8 o    1.847 --   723 h    0.859   722 h    0.844
   722   1 h    0.893 --   721 o    0.844
   723   1 h    0.896 --   721 o    0.859
   724   8 o    1.880 --   726 h    0.824   725 h    0.811
   725   1 h    0.889 --   724 o    0.811
   726   1 h    0.887 --   724 o    0.824
   727   8 o    1.843 --   728 h    0.877   729 h    0.811
   728   1 h    0.904 --   727 o    0.877
   729   1 h    0.885 --   727 o    0.811
   730   8 o    1.863 --   731 h    0.845   732 h    0.828
   731   1 h    0.897 --   730 o    0.845
   732   1 h    0.883 --   730 o    0.828
   733   8 o    1.867 --   734 h    0.870   735 h    0.848
   734   1 h    0.897 --   733 o    0.870
   735   1 h    0.894 --   733 o    0.848
   736   8 o    1.852 --   737 h    0.877   738 h    0.798
   737   1 h    0.903 --   736 o    0.877
   738   1 h    0.878 --   736 o    0.798
   739   8 o    1.853 --   741 h    0.884   740 h    0.850
   740   1 h    0.890 --   739 o    0.850
   741   1 h    0.899 --   739 o    0.884
   742   8 o    1.849 --   744 h    0.915   743 h    0.808
   743   1 h    0.879 --   742 o    0.808
   744   1 h    0.921 --   742 o    0.915
   745   8 o    1.862 --   746 h    0.827   747 h    0.823
   746   1 h    0.884 --   745 o    0.827
   747   1 h    0.883 --   745 o    0.823
   748   8 o    1.891 --   749 h    0.801   750 h    0.779   185 h    0.113
   749   1 h    0.876 --   748 o    0.801
   750   1 h    0.871 --   748 o    0.779
   751   8 o    1.830 --   753 h    0.902   752 h    0.837
   752   1 h    0.876 --   751 o    0.837
   753   1 h    0.905 --   751 o    0.902
   754   8 o    1.810 --   755 h    0.903   756 h    0.885
   755   1 h    0.911 --   754 o    0.903
   756   1 h    0.903 --   754 o    0.885
 ---------------------------------------------------------------------------

Topologies differ in total number of bonds
Writing topology from bond orders to xtbtopo.mol

molecular dipole:
                 x           y           z       tot (Debye)
 q only:        2.104      -0.453      -4.046
   full:        3.336      -0.297      -5.689      16.780
molecular quadrupole (traceless):
                xx          xy          yy          xz          yz          zz
 q only:       33.930      36.463     -26.557      17.075       6.900      -7.373
  q+dip:       44.004      50.574     -35.036      39.084       3.117      -8.968
   full:       45.717      50.576     -36.453      40.569       1.539      -9.263


           -------------------------------------------------
          | TOTAL ENERGY            -1283.304888658858 Eh   |
          | GRADIENT NORM               0.101878401413 Eh/α |
          | HOMO-LUMO GAP               5.857485509753 eV   |
           -------------------------------------------------

------------------------------------------------------------------------
 * finished run on 2022/11/24 at 12:22:38.337     
------------------------------------------------------------------------
 total:
 * wall-time:     0 d,  0 h,  0 min, 57.502 sec
 *  cpu-time:     0 d,  0 h,  1 min, 13.638 sec
 * ratio c/w:     1.281 speedup
 SCF:
 * wall-time:     0 d,  0 h,  0 min, 56.497 sec
 *  cpu-time:     0 d,  0 h,  1 min, 11.920 sec
 * ratio c/w:     1.273 speedup

