756
 energy: -1283.296090034906 gnorm: 0.010014169697 xtb: 6.5.1 (579679a)
o            6.74462425565344       -4.89385534026234       -5.60887201522543
h            7.61145343523152       -5.24801764130447       -5.38882252324070
h            6.21916073240430       -5.01519292100519       -4.79342909997997
o            0.97052151565792        4.51458460214998        3.46659486327934
h            1.56889686774240        4.98041000293223        4.05989913343447
h            1.51570697757713        4.14234489518542        2.73848471103156
o           -0.14604917204996       -0.20305878636095       -4.52315847685484
h            0.52041267721773       -0.39258798987658       -3.83590138101623
h           -0.69025245296061        0.51909166763995       -4.19581832072442
o           -3.98561575982646       -0.66144221953330       -0.93975028111266
h           -3.78460241927569        0.06525352404585       -1.55164981194243
h           -3.24182507653296       -1.28835858996975       -0.97107612040638
o           -2.85923602292859        2.86842322437636        1.75291675956977
h           -3.08602974148719        3.77836287735458        2.01286944285167
h           -1.90821279466160        2.71820558181293        1.94246530398381
o           -5.52880733085357       -4.88594001479686       -0.44376826392842
h           -5.99056760961262       -4.59775362443387        0.37454879035033
h           -5.38429983676056       -4.08814916661360       -0.97914308295793
o           -0.02401603207190       -4.01671636074068       -0.62414624039338
h           -0.90512582482530       -3.67214080970955       -0.38096558395498
h           -0.09090517276598       -4.99074745407316       -0.59318831416597
o            2.22128276191615       -4.73744943877312       -2.21953594837794
h            1.53769960723682       -4.18758253088840       -1.81768386396040
h            1.77660056157202       -5.38625315997915       -2.79922529149586
o           -1.76402519243869       -1.71560586763131        5.69347128877631
h           -1.62176049933773       -0.75977323511066        5.81545531745893
h           -2.39130839034130       -1.82041262400760        4.95042132691423
o           -2.88555520918686        6.39414915896977       -5.27408726718578
h           -3.85175636764559        6.34801755024975       -5.25835176344554
h           -2.59246880857828        5.56503143149289       -5.67994372063141
o           -5.48291055841179       -2.60083249670222       -1.94467960517830
h           -4.99268054289402       -2.79186483617920       -2.76698221708727
h           -5.02750578816295       -1.83513571374135       -1.52771939896257
o           -3.27619699924427        1.41562368936256       -2.61317952755713
h           -2.57212018166615        1.63377113042352       -3.25320848327680
h           -3.10701147264040        1.99910067382954       -1.85870444345499
o           -2.46653705786186       -2.91688325238036       -0.52216498635494
h           -2.83519162905901       -3.47807032281471       -1.22789878657896
h           -3.13814593315215       -2.91485321666829        0.19811374271983
o           -2.07918537129933        3.21121083177323       -0.81833804307680
h           -1.12502325082372        3.40188933588258       -0.74073673737677
h           -2.41579539136971        3.10560296327107        0.09035529931688
o           -1.27205457788272        2.36236805802622       -4.11537624388774
h           -0.81630231336609        2.98102811752919       -3.51630837826706
h           -1.63758052317002        2.91864603141675       -4.83056202303468
o            1.37398691492531        2.28460827994064       -4.83339309237182
h            0.45455654512769        1.98411453511979       -4.77678501082376
h            1.89387420869193        1.52383052092344       -5.16852840007901
o           -1.63445138586015       -0.41233916304433        2.51995260830639
h           -2.51921838827422       -0.18135547977453        2.16724815472909
h           -1.59823641822046       -1.38415464818235        2.60964922368447
o           -0.09018982353236       -4.82378706896319        7.24524141780757
h            0.61227197439544       -4.17064476445972        7.41504251105406
h            0.36059057174535       -5.61658667930933        6.91476951086791
o           -4.19565574663921       -5.17564675351856        2.32586050491354
h           -4.46105766701629       -4.32683871666869        1.94117574410355
h           -4.87816061441843       -5.81879841684920        2.08180971625567
o            0.70554908294121        2.33614451295936        4.97686943376042
h           -0.09814414779457        1.78072134388992        4.81471224370488
h            0.69228561097168        3.10405691051457        4.37387320610501
o           -4.34613495207810       -2.67624429040573        1.24962456886355
h           -5.03067543386873       -2.03232581254672        0.99277746269281
h           -3.95744228484013       -2.38548114138203        2.09898913706170
o            1.91788722876388        0.98976911207209        2.77072364134017
h            2.29285669457540        0.10488715006880        2.81827387262887
h            2.47000840053980        1.54506071945396        3.34287073955853
o            1.73978424788796       -0.50161181736184       -2.63967979089823
h            2.63296357222154       -0.22253138145426       -2.93534282926746
h            1.31041758182307        0.26123175326380       -2.21173222620208
o            0.03518316103576        4.56981303622636       -3.25173210641369
h            0.23098090107034        4.86042939106365       -4.15289133400707
h            0.86533148871689        4.70711225498808       -2.75582477102284
o            0.23329845625516        2.88301397342235        7.47440722454635
h            0.45519912676805        2.64099508727616        6.53623563648721
h            0.78164669148112        3.67344301228851        7.63874711079965
o           -3.96080064832853        0.33566910615760        1.57168937238329
h           -4.07146661286136        0.01508680660047        0.65347612917244
h           -3.78283430423962        1.28618450087162        1.50798290489389
o           -6.88594697824195        0.48914022541899       -1.61571542219869
h           -6.43451744432452        0.44107378787834       -2.47321435684218
h           -7.43182275749710        1.29722845764720       -1.59884878866341
o           -0.27996822322561        2.31928241082358        1.87031023477801
h            0.12288568349905        2.85433345668351        1.17245182682333
h            0.44893635124899        1.89713132978996        2.35184523980250
o           -2.37911337787269       -1.42505774278741       -3.14319311708358
h           -3.03117220507681       -2.05617022493481       -3.48848361954888
h           -2.33063288107086       -0.73245030824560       -3.82328086878736
o            3.85199844172290       -3.30127133871795       -3.80850639415781
h            3.42492572044532       -3.70321328812692       -3.03008676257735
h            3.19779282731817       -2.68340310384157       -4.18860002159404
o           -3.26992386792617       -4.70496470898703       -2.32274138530292
h           -3.12368626709366       -5.45464873443360       -1.72785868019411
h           -2.60560961315915       -4.76396459901310       -3.04117972744824
o           -7.99030223308301       -3.20526097462540       -1.02962983547407
h           -7.06409718481362       -2.92907593524895       -1.00949417584210
h           -8.50990302597633       -2.37943940974258       -0.98615276590744
o            2.01823614085403        0.13053609848916        5.61121045100850
h            1.61204345463916        0.94460045096298        5.26181794322401
h            2.12616756254032        0.29166438104024        6.56550083837201
o            4.72605201163095       -3.66011594522525       -1.25544409932340
h            5.09795366232659       -4.12229735474534       -0.48313493877605
h            5.14287024035984       -2.77411831302536       -1.28289628937682
o            1.27847938068658       -2.78391102431717        1.66404605301448
h            1.25756430562673       -3.16240707840102        0.77485590281137
h            0.39237969299595       -2.92861328859206        2.06199846819372
o            0.06631980654719        6.66795840786658        5.66820636502045
h           -0.70940737268331        7.08952943435436        5.24655261194020
h            0.83393296853031        6.99139736985890        5.18173508125405
o           -4.42736956434174        4.90934293122576       -0.24139158980438
h           -5.14335013501505        5.07014013580747        0.39488415066383
h           -4.69835245030086        5.34475678992936       -1.05391505232062
o           -4.73432133336356        2.21306311077855       -0.42851813134332
h           -4.42065672766465        3.11933404539717       -0.27820290688927
h           -5.55091782950236        2.13560766186454        0.10259180568186
o            0.74606833868171       -2.14313855376606        5.03105760193350
h           -0.21469485438134       -2.11234699172281        5.22709222674582
h            1.07431971952802       -1.23104098358764        5.13591810380480
o           -3.73963005914807       -7.18953667227565        4.25661664868375
h           -3.67703535805521       -6.21269164050483        4.37450825504589
h           -4.64735913503178       -7.39854409158480        4.49568279780351
o            2.43868186914632       -2.31387373122560       -0.78370099269039
h            3.19558152302356       -2.88949756252099       -0.98950236119669
h            2.28184743879704       -1.74121748785470       -1.55536937279753
o            0.56960358155402        3.65360953522869       -0.41304497057888
h            1.20341384015092        3.47093711227675       -1.12480502074391
h            0.85246678661045        4.50525200291604       -0.01971298817096
o           -2.53583152643323       -1.72183222245368       -7.19774593581436
h           -1.56480556352204       -1.58109426311081       -7.24532988619980
h           -2.91441026830975       -1.04873778470098       -7.80021543841896
o            1.94509839323954       -4.33355127474561        4.04685700164463
h            1.43316559223521       -4.70865619174483        3.29665430854605
h            1.52578787464195       -3.47525059457654        4.25281595153647
o           -4.28810159926248        4.95774826473480        2.78844243769630
h           -4.09921368958684        5.10142789180432        3.73500878627672
h           -4.51192373629673        5.82984008952449        2.42219796077560
o           -5.65711728154905        2.68331503364990        3.22342543284016
h           -5.13855513215990        3.47232094594816        2.98517365954448
h           -6.13467489394289        2.40133028241140        2.43096194446256
o           -6.59777922657721       -6.61010426013395        4.35799879607746
h           -7.50271389252013       -6.54638381974570        4.02486359878508
h           -6.42048814862575       -5.75248352320123        4.76505698841181
o            1.94056390456028       -8.11946277810009        2.35296515769876
h            1.52558403056054       -7.22591998910036        2.34226100039180
h            2.37935309845076       -8.19481425970942        3.20926165885393
o            5.85479237290972       -6.28493886020203        5.46234352871969
h            6.64526596237181       -5.74382302880483        5.63396858379699
h            5.10469859320093       -5.72615854334364        5.72292760274359
o            2.30662962269758        1.36312912153309        0.06511946505831
h            3.01426682624504        0.68944097823577        0.24475018789291
h            2.42711440221965        1.67869800125516       -0.84789345733516
o            5.59582975283519       -5.51122292838484       -3.11271445741137
h            5.20069617859465       -4.82101894422022       -2.54342993942807
h            4.90602561443348       -6.17750891106865       -3.25425570047998
o           -9.22841390181486        5.42100207835545        0.04619057791432
h           -8.32644169839710        5.54983568440241        0.38915603739548
h           -9.14886031179546        5.33166998474326       -0.90684649386545
o            7.41630424203715       -1.31095852607297        4.11191672960849
h            6.63240817346450       -1.08114582899433        3.57060610912984
h            7.90340207484553       -2.03111477435913        3.68454542485859
o           -1.73304584771288        3.98828077977902       -6.24147739133416
h           -1.69147263477030        3.30545958212893       -6.91778468748836
h           -0.82133347219918        4.34760747914155       -6.18003770633413
o           -8.49014455740909       -2.06582865663833        1.68851623044418
h           -9.37158258233217       -2.10457554474345        1.27201078358633
h           -7.89509190661671       -1.52171164241992        1.14058284198030
o           -1.61471450959164        4.98110577336789        3.12785903650626
h           -0.67480456149387        4.81450311702464        3.31212224881113
h           -1.64026021362147        5.27457764414037        2.20128130727172
o            2.76176340717164       -5.25730245184310        0.36292410382894
h            2.67976354697966       -5.16794836693309       -0.60400189126255
h            3.29029025133674       -6.05350772227307        0.53935606516035
o           -1.00367959928159       -7.17342734297053        4.01666952714514
h           -0.88876374694314       -7.49561219687908        3.10329605428505
h           -1.91135406827033       -7.37821635677100        4.27460026001517
o            4.20547507012860        0.00267232645207       -3.32119161666963
h            4.42065613446441        0.94561897656832       -3.44552798493421
h            4.43759680759260       -0.47529166740360       -4.13536160423332
o            4.23570041942438        0.08940917280483       -8.10476552106366
h            4.13728722375490        0.54935043993294       -8.93771563838511
h            5.16761141126438       -0.23184431359015       -8.05286158147892
o           -6.31929856751414       -3.87931486878842        5.54384082025866
h           -6.36062633067966       -3.22333599394857        4.81215357304249
h           -6.01055833475783       -3.36520797258613        6.30554388739020
o           -1.40041733037349       -4.91965871046859       -4.17267322967172
h           -0.90802474125591       -4.12405638308214       -3.81966277912297
h           -1.66672188426649       -4.69820379791450       -5.08871339228401
o            3.92006782290788       -0.55973623716953        0.57961802032451
h            3.31937825073774       -1.29038983808131        0.32512637953577
h            4.62551557645829       -0.59699418581282       -0.08880953276058
o           -0.21140761248630       -6.70998575996712       -0.70182505538647
h           -0.79179733543956       -7.02761501839871       -1.41531382139155
h            0.68532037841786       -7.04550398373901       -0.90986356048570
o            6.28867179675569       -7.41336498160960        3.03105677228729
h            6.57253565821961       -8.29481993333101        3.26937325267698
h            6.07484040779389       -6.95844525591566        3.87666567263414
o           -6.97551614123217        2.91981325060807       -7.38999097497842
h           -7.40290526057994        3.46650135848799       -6.67578826384001
h           -7.23060011746593        3.30623378475752       -8.22603772811220
o           -5.40919523665056       -5.77732628219650       -3.49757766260523
h           -4.75462495707978       -5.22346997268169       -3.02258507257355
h           -5.23197881749232       -6.68754709054907       -3.17772537007982
o           -2.71032432484402        0.19772490975540       -5.30912924483442
h           -3.51339831553715        0.67942551526501       -5.52806954552170
h           -2.69964830733431       -0.59730659468377       -5.87516611551950
o           -9.59588096112245        3.43981100786423        1.86225985012502
h           -9.66600594701617        4.11594658683477        1.16583261023737
h           -8.95961645465303        3.79977538486813        2.49966662988838
o            1.90008778821545       -2.91234253560124        7.26813411378365
h            1.51739021822114       -2.65608981377560        6.38941282050920
h            1.42632329246989       -2.33121170741704        7.91022773561243
o           -4.10093442542715        5.36577830317906        5.50523759363996
h           -4.65424054319330        4.64085600873485        5.85709746399580
h           -3.20182676744403        5.14366357978584        5.80545035668728
o            5.61023534569879       -1.12769405037570       -1.43549387901903
h            6.54123933842307       -1.01554873138057       -1.67239092514042
h            5.09103102836891       -0.68898963117765       -2.14634066716872
o            4.97939497522636        2.25192390857312        1.70371488383411
h            5.28312018324785        1.47745936182566        2.22534025913922
h            4.59150626951339        1.86781871760912        0.90853657500864
o           -4.29910910844119       -2.80007654991688       -4.34578448291097
h           -4.69644587447749       -2.08699045877515       -4.87349980635092
h           -4.35845061163574       -3.60360560016800       -4.89689688328020
o            5.74503448159271       -5.23600379801881        0.67852378304848
h            5.75966138973558       -6.08908654937242        0.23873841545034
h            5.12042599574185       -5.30784106355393        1.42405690298033
o           -4.73386231720630        1.92288575890057       -6.21157815850784
h           -4.31473592789151        2.63038234676064       -5.68268714917719
h           -5.46865443563452        2.34343042958327       -6.68728240207359
o            6.78063140571317        0.25264318916049       -4.79989476077960
h            6.29538576153276        0.97992773698514       -5.22242029167916
h            7.72082220668485        0.42435896452935       -4.92286602827091
o           -5.96358559141608       -7.22623522037131        1.72781138109884
h           -5.27655424465689       -7.90238196864026        1.72172433796326
h           -6.27634017529934       -7.14545832896559        2.64305117078550
o          -10.98264699546214       -2.58565672221016        0.90902782736309
h          -10.72795595759195       -3.48966825923864        0.63543352554656
h          -11.29511840537219       -2.64650433236536        1.82677864751665
o           -9.28625422714875       -6.41162322244849       -1.81872208536426
h           -8.48618324117682       -6.86372813970342       -1.48949054570929
h           -8.97251008725701       -5.83878548299488       -2.53105073397643
o           -7.63720566744230        4.53574296658707        3.51129052133295
h           -7.31574962196639        5.30519850319931        4.02047974329191
h           -7.12446999391256        3.75859100738876        3.79827906020703
o           -6.76211428523095        5.38625316487933        1.21245214411226
h           -7.08887885961446        5.07823001235668        2.10334462965809
h           -6.46297896518369        6.28868349885459        1.36648468562166
o           -3.96624550332362        3.65957913237508       -4.35289362325145
h           -4.57442735869795        3.27438330351221       -3.68212194678347
h           -3.31144313057422        4.16695081480265       -3.82463640636162
o            0.11961881870231        7.31578352676305        2.29125227372441
h            0.52768677214286        6.61771330802807        1.73610457642954
h            0.67901817260251        7.40283240928672        3.06585726105876
o            3.73926896398137        5.72464546888446        2.44365661978479
h            3.73419298235259        6.68696236150310        2.36226647783610
h            3.44877733473257        5.50917790947461        3.35391437533363
o           -1.03258178279984        1.38806979881905       -7.14695632622621
h           -0.53984487481481        0.56921180139003       -7.34824662635126
h           -1.48592668454007        1.16069468731431       -6.31130085815611
o            1.84172007443038        1.90703953667034       -7.76020516983087
h            0.88967607195867        1.97663387861363       -7.63917023326040
h            2.13154075994216        1.16618743320471       -7.19665985851498
o            6.31473900423683       -2.15555745391368        1.28094505535779
h            5.37121653477416       -2.43243805632536        1.32840538805442
h            6.30265064175859       -1.20348398204411        1.08744178711016
o            7.45495016315160        2.98528388183398       -4.87497618511378
h            8.40572058614180        3.19062061378340       -4.71982876890822
h            7.00532715416629        3.84011935102477       -5.03229749601840
o           -0.66900628743169        7.29713724339325       -3.95418124184257
h           -1.41814533432842        6.93032974542460       -4.45889739541671
h           -0.85283541067661        8.23040380260707       -3.84046322759320
o           -6.82645597856147       -4.11146781735028        1.73754894739549
h           -7.32090253978826       -4.85905869179075        2.13517040370515
h           -7.51619855596897       -3.44465528601477        1.54218088592089
o           -0.67943442896408       -8.27362862549690        1.50647525653369
h            0.19699981932290       -8.62573478172980        1.70895381664825
h           -0.55166023591878       -7.67792531526452        0.74162565749441
o            9.00329041030127       -3.23830922875934        2.85331572707765
h            9.95773961205016       -3.31051344196003        2.90752804544816
h            8.65779198165562       -4.11405571051018        2.58002337383322
o           -1.18115464431615       -3.01293633196852        2.50537974195808
h           -1.52266407323174       -3.72637362187782        1.94313201102172
h           -1.11701015256693       -3.41648907732794        3.39605458662377
o            4.88908652960476        6.89001929146435        0.17713820876569
h            4.79141336956678        7.11970709045437       -0.77025465453803
h            5.83288842814190        6.83421131574185        0.36017501138410
o           -2.62543150682034       -3.65881425154597        7.26556273982227
h           -2.23914201685913       -2.88283079393963        6.80102095272107
h           -1.86570058830570       -4.16557866312987        7.57623101679966
o           -7.34816469835864       -1.51452309798694       -3.64959431230133
h           -6.80317496842153       -1.95891097015792       -2.97905343441221
h           -6.77516431192037       -0.84883933154715       -4.04540389977911
o           -5.52867075616603        7.65821778179298       -0.74186102497238
h           -6.07888826611862        7.01952587564895       -1.21570362631063
h           -4.72886106216999        7.76613523738087       -1.28226293293516
o           -6.53729941708844        5.54837164243837       -2.22134361511043
h           -6.26772853739849        4.59947092297450       -2.28623405578984
h           -7.48890017670179        5.53279502878335       -2.38870013798357
o            3.16353655529621       -1.31449113814518        3.62521915036285
h            3.82485981284074       -1.86292260836373        4.10362162997803
h            2.78114720057310       -0.79620757452999        4.35040497768228
o           -7.47616560118343        0.48890402514098       -6.21900747651858
h           -7.32463385054177        1.23363480334709       -6.82078190758774
h           -6.73966457321381       -0.14122762739739       -6.31755716877539
o            0.70407989007732       -4.14204426091329       -6.62497777735415
h            1.04798128617118       -3.73011025923124       -7.42368370665232
h           -0.23831607848966       -4.30185401478683       -6.76256002148978
o            1.64264893169982       -2.29843095565840       -4.84312624606873
h            1.35297958597442       -2.91790407448567       -5.53028438531646
h            1.01349537327092       -2.40493632237731       -4.10610202994813
o           -1.94444780159984        5.74286110309437        0.57663935180124
h           -2.78467869464574        5.45363863612722        0.18501059703518
h           -1.30354060676108        5.94181271043616       -0.13926972287895
o           -5.38380578090620        0.41562290793951       -3.93211972278971
h           -5.38637998916772        0.90943096572588       -4.76262049053785
h           -4.58842046849968        0.71448006201279       -3.45097310742891
o          -11.49706596943608        4.56878024492207       -1.69701027785659
h          -11.53827533231275        3.63858900072256       -1.41027212375935
h          -11.43827289669052        5.09554638155043       -0.89659168051683
o            7.54503147959432        5.98354159226439        0.52910000581160
h            7.21338393476351        5.06623900366935        0.31891061871256
h            8.49690203208260        5.85335132984347        0.63690667860971
o           -5.83487785985691        3.05451066391135       -2.62934140625748
h           -6.55820485524919        2.53424367538015       -3.01763181013300
h           -5.44322519249345        2.56408622651138       -1.85984670864881
o            3.35079986452261        8.45589977628664        1.80474619366074
h            2.60873306196959        8.88641045044499        1.36032029799362
h            3.90219354906580        8.08061807270409        1.09322192457383
o            7.97452255184746        2.06658405656819       -7.29618723198122
h            7.73179795436636        2.32371487111234       -6.36913962288978
h            8.89801500906822        2.29460222951352       -7.39865871627415
o            1.18255286008646       -6.50650646984552        5.49078176118144
h            0.43073392743802       -6.91635743492045        5.02933076429365
h            1.34700025272936       -5.66999964055432        5.00379570756278
o            5.97518036334018        4.48915142040961       -2.38116471528264
h            6.81973123488542        4.78771573090954       -2.79336985453924
h            6.20453731696120        4.10999641898637       -1.51977556519988
o           -6.32973504234563       -0.92257828420569        0.58689266074985
h           -6.35725210199280       -0.39525962902906       -0.22938769281822
h           -6.32275044789353       -0.28753557772354        1.32037208589957
o            3.79463686924490        2.97237894483159        7.21438817297046
h            3.38837092373695        3.77495514957059        7.54879473054500
h            4.74000656783592        3.16247623269449        7.05484450287246
o           -4.77604266109291        0.34551387774413        4.20583317399518
h           -4.41693759200926        0.03170307545864        3.36545821996264
h           -5.12369423523885        1.23071288761811        3.98230629043324
o           -4.99459856541579        7.46179648891619        1.88640584398493
h           -4.08007553716263        7.82303971380155        1.95209590679016
h           -5.23712596981470        7.67758482069623        0.96486097358326
o           -6.97496882268292        2.62776608590379        0.85336609212719
h           -7.68685821563568        2.45286755693025        0.21018694949924
h           -6.91193143653104        3.58915774050872        0.89033260229756
o           -1.31049903921576        0.40616402531725        7.63171141455204
h           -2.25561372473069        0.46770866360729        7.42568876436658
h           -0.95938528729085        1.30167962583417        7.64293393101127
o            0.62233984176105       -1.15984049959315        8.74600593937105
h           -0.18673275807566       -0.77971285626056        8.36091938559852
h            1.23399677361362       -0.41687442352379        8.81111352763054
o            3.43137836724695       -7.58905551180994        4.60220964212040
h            2.64280732150808       -7.23612856385342        5.07791011178637
h            4.15356275534452       -7.61128188184779        5.23356241984560
o            0.80799899253638        4.66711820999853       -5.85415574746843
h            1.46119294943473        4.94840657860155       -6.50259538930813
h            1.12613291602053        3.78477924135941       -5.54772660429812
o            4.91945591328755        1.77165394673127       -1.02155375972311
h            4.62468661493493        2.68869570785053       -0.92251366861171
h            5.68173430706556        1.81193777839354       -1.62735535081872
o            7.25620516679059        1.89425645265659       -2.39140694993232
h            7.59079418044832        0.98118445536832       -2.45294343582303
h            7.17643229729170        2.20960620669923       -3.31082525853139
o            2.15767684501688        7.58534267905413       -3.94440057145007
h            2.64258125152925        6.86649788414670       -4.38437712393013
h            1.21958123745096        7.40711036369010       -4.09309159015493
o            2.29516748376125        7.62230990502453        4.19487754701132
h            2.96110227287772        7.66881964370936        4.88257336090923
h            2.66581483367376        8.08182705009200        3.42037412146759
o            3.19544670303580        4.96642234392989        4.97365608265896
h            4.06197024544219        5.33843824191522        5.26525786900495
h            3.34320895972687        3.99578272748314        4.83691908424502
o            7.66954566914190       -5.79927247906051       -1.40877831539780
h            6.93501540168962       -5.92240413053659       -2.03539780726191
h            7.55556953001631       -4.87994033295339       -1.08251772356742
o            4.18440806588269       -5.53078683256986        2.96883099006045
h            3.98190896257010       -6.31720914810804        3.50678010345125