      -----------------------------------------------------------      
     |                   =====================                   |     
     |                           x T B                           |     
     |                   =====================                   |     
     |                         S. Grimme                         |     
     |          Mulliken Center for Theoretical Chemistry        |     
     |                    University of Bonn                     |     
      -----------------------------------------------------------      

   * xtb version 6.5.1 (579679a) compiled by 'ehlert@majestix' on 2022-07-11

   xtb is free software: you can redistribute it and/or modify it under
   the terms of the GNU Lesser General Public License as published by
   the Free Software Foundation, either version 3 of the License, or
   (at your option) any later version.
   
   xtb is distributed in the hope that it will be useful,
   but WITHOUT ANY WARRANTY; without even the implied warranty of
   MERCHANTABILITY or FITNESS FOR A PARTICULAR PURPOSE.  See the
   GNU Lesser General Public License for more details.
   
   Cite this work as:
   * C. Bannwarth, E. Caldeweyher, S. Ehlert, A. Hansen, P. Pracht,
     J. Seibert, S. Spicher, S. Grimme, WIREs Comput. Mol. Sci., 2020, 11,
     e01493. DOI: 10.1002/wcms.1493
   
   for GFN2-xTB:
   * C. Bannwarth, S. Ehlert and S. Grimme., J. Chem. Theory Comput., 2019,
     15, 1652-1671. DOI: 10.1021/acs.jctc.8b01176
   for GFN1-xTB:
   * S. Grimme, C. Bannwarth, P. Shushkov, J. Chem. Theory Comput., 2017,
     13, 1989-2009. DOI: 10.1021/acs.jctc.7b00118
   for GFN0-xTB:
   * P. Pracht, E. Caldeweyher, S. Ehlert, S. Grimme, ChemRxiv, 2019, preprint.
     DOI: 10.26434/chemrxiv.8326202.v1
   for GFN-FF:
   * S. Spicher and S. Grimme, Angew. Chem. Int. Ed., 2020, 59, 15665-15673.
     DOI: 10.1002/anie.202004239
   
   for ALPB and GBSA implicit solvation:
   * S. Ehlert, M. Stahn, S. Spicher, S. Grimme, J. Chem. Theory Comput.,
     2021, 17, 4250-4261. DOI: 10.1021/acs.jctc.1c00471
   
   for DFT-D4:
   * E. Caldeweyher, C. Bannwarth and S. Grimme, J. Chem. Phys., 2017,
     147, 034112. DOI: 10.1063/1.4993215
   * E. Caldeweyher, S. Ehlert, A. Hansen, H. Neugebauer, S. Spicher,
     C. Bannwarth and S. Grimme, J. Chem. Phys., 2019, 150, 154122.
     DOI: 10.1063/1.5090222
   * E. Caldeweyher, J.-M. Mewes, S. Ehlert and S. Grimme, Phys. Chem. Chem. Phys.
     2020, 22, 8499-8512. DOI: 10.1039/D0CP00502A
   
   for sTDA-xTB:
   * S. Grimme and C. Bannwarth, J. Chem. Phys., 2016, 145, 054103.
     DOI: 10.1063/1.4959605
   
   in the mass-spec context:
   * V. Asgeirsson, C. Bauer and S. Grimme, Chem. Sci., 2017, 8, 4879.
     DOI: 10.1039/c7sc00601b
   * J. Koopman and S. Grimme, ACS Omega 2019, 4, 12, 15120-15133.
     DOI: 10.1021/acsomega.9b02011
   
   for metadynamics refer to:
   * S. Grimme, J. Chem. Theory Comput., 2019, 155, 2847-2862
     DOI: 10.1021/acs.jctc.9b00143
   
   for SPH calculations refer to:
   * S. Spicher and S. Grimme, J. Chem. Theory Comput., 2021, 17, 1701-1714
     DOI: 10.1021/acs.jctc.0c01306
   
   with help from (in alphabetical order)
   P. Atkinson, C. Bannwarth, F. Bohle, G. Brandenburg, E. Caldeweyher
   M. Checinski, S. Dohm, S. Ehlert, S. Ehrlich, I. Gerasimov, C. Hölzer
   A. Katbashev, J. Koopman, C. Lavigne, S. Lehtola, F. März, M. Müller,
   F. Musil, H. Neugebauer, J. Pisarek, C. Plett, P. Pracht, F. Pultar,
   J. Seibert, P. Shushkov, S. Spicher, M. Stahn, M. Steiner, T. Strunk,
   J. Stückrath, T. Rose, and J. Unsleber
   
 * started run on 2022/11/17 at 06:48:47.983     

           -------------------------------------------------
          |                Calculation Setup                |
           -------------------------------------------------

          program call               : xtb solvent_cluster.coord --gfn2 --input xcontrol --opt 1
          hostname                   : cn0363
          coordinate file            : solvent_cluster.coord
          omp threads                :                     2

   ID    Z sym.   atoms
    1    8 o      1, 4, 7, 10, 13, 16, 19, 22, 25, 28, 31, 34, 37, 40, 43,
                  46, 49, 52, 55, 58, 61, 64, 67, 70, 73, 76, 79, 82, 85, 88,
                  91, 94, 97, 100, 103, 106, 109, 112, 115, 118, 121, 124,
                  127, 130, 133, 136, 139, 142, 145, 148, 151, 154, 157, 160,
                  163, 166, 169, 172, 175, 178, 181, 184, 187, 190, 193, 196,
                  199, 202, 205, 208, 211, 214, 217, 220, 223, 226, 229, 232,
                  235, 238, 241, 244, 247, 250, 253, 256, 259, 262, 265, 268,
                  271, 274, 277, 280, 283, 286, 289, 292, 295, 298, 301, 304,
                  307, 310, 313, 316, 319, 322, 325, 328, 331, 334, 337, 340,
                  343, 346, 349, 352, 355, 358, 361, 364, 367, 370, 373, 376,
                  379, 382, 385, 388, 391, 394, 397, 400, 403, 406, 409, 412,
                  415, 418, 421, 424, 427, 430, 433, 436, 439, 442, 445, 448,
                  451, 454, 457, 460, 463, 466, 469, 472, 475, 478, 481, 484,
                  487, 490, 493, 496, 499, 502, 505, 508, 511, 514, 517, 520,
                  523, 526, 529
    2    1 h      2, 3, 5, 6, 8, 9, 11, 12, 14, 15, 17, 18, 20, 21, 23, 24,
                  26, 27, 29, 30, 32, 33, 35, 36, 38, 39, 41, 42, 44, 45, 47,
                  48, 50, 51, 53, 54, 56, 57, 59, 60, 62, 63, 65, 66, 68, 69,
                  71, 72, 74, 75, 77, 78, 80, 81, 83, 84, 86, 87, 89, 90, 92,
                  93, 95, 96, 98, 99, 101, 102, 104, 105, 107, 108, 110, 111,
                  113, 114, 116, 117, 119, 120, 122, 123, 125, 126, 128, 129,
                  131, 132, 134, 135, 137, 138, 140, 141, 143, 144, 146, 147,
                  149, 150, 152, 153, 155, 156, 158, 159, 161, 162, 164, 165,
                  167, 168, 170, 171, 173, 174, 176, 177, 179, 180, 182, 183,
                  185, 186, 188, 189, 191, 192, 194, 195, 197, 198, 200, 201,
                  203, 204, 206, 207, 209, 210, 212, 213, 215, 216, 218, 219,
                  221, 222, 224, 225, 227, 228, 230, 231, 233, 234, 236, 237,
                  239, 240, 242, 243, 245, 246, 248, 249, 251, 252, 254, 255,
                  257, 258, 260, 261, 263, 264, 266, 267, 269, 270, 272, 273,
                  275, 276, 278, 279, 281, 282, 284, 285, 287, 288, 290, 291,
                  293, 294, 296, 297, 299, 300, 302, 303, 305, 306, 308, 309,
                  311, 312, 314, 315, 317, 318, 320, 321, 323, 324, 326, 327,
                  329, 330, 332, 333, 335, 336, 338, 339, 341, 342, 344, 345,
                  347, 348, 350, 351, 353, 354, 356, 357, 359, 360, 362, 363,
                  365, 366, 368, 369, 371, 372, 374, 375, 377, 378, 380, 381,
                  383, 384, 386, 387, 389, 390, 392, 393, 395, 396, 398, 399,
                  401, 402, 404, 405, 407, 408, 410, 411, 413, 414, 416, 417,
                  419, 420, 422, 423, 425, 426, 428, 429, 431, 432, 434, 435,
                  437, 438, 440, 441, 443, 444, 446, 447, 449, 450, 452, 453,
                  455, 456, 458, 459, 461, 462, 464, 465, 467, 468, 470, 471,
                  473, 474, 476, 477, 479, 480, 482, 483, 485, 486, 488, 489,
                  491, 492, 494, 495, 497, 498, 500, 501, 503, 504, 506, 507,
                  509, 510, 512, 513, 515, 516, 518, 519, 521, 522, 524, 525,
                  527, 528, 530, 531

molecular fragmentation (1/2 indicates fragments):
111222222222222222222222222222222222222222222222222222222222222222222222
222222222222222222222222222222222222222222222222222222222222222222222222
222222222222222222222222222222222222222222222222222222222222222222222222
222222222222222222222222222222222222222222222222222222222222222222222222
222222222222222222222222222222222222222222222222222222222222222222222222
222222222222222222222222222222222222222222222222222222222222222222222222
222222222222222222222222222222222222222222222222222222222222222222222222
222222222222222222222222222
# atoms in fragment 1/2:     3   528
 fragment masses (1/2) :       18.02     3170.69
CMA distance (Bohr)    :   5.816
constraining FC (au)   :  0.0500

           -------------------------------------------------
          |                 G F N 2 - x T B                 |
           -------------------------------------------------

        Reference                      10.1021/acs.jctc.8b01176
      * Hamiltonian:
        H0-scaling (s, p, d)           1.850000    2.230000    2.230000
        zeta-weighting                 0.500000
      * Dispersion:
        s8                             2.700000
        a1                             0.520000
        a2                             5.000000
        s9                             5.000000
      * Repulsion:
        kExp                           1.500000    1.000000
        rExp                           1.000000
      * Coulomb:
        alpha                          2.000000
        third order                    shell-resolved
        anisotropic                    true
        a3                             3.000000
        a5                             4.000000
        cn-shift                       1.200000
        cn-exp                         4.000000
        max-rad                        5.000000


          ...................................................
          :                      SETUP                      :
          :.................................................:
          :  # basis functions                1062          :
          :  # atomic orbitals                1062          :
          :  # shells                          708          :
          :  # electrons                      1416          :
          :  max. iterations                   250          :
          :  Hamiltonian                  GFN2-xTB          :
          :  restarted?                      false          :
          :  GBSA solvation                  false          :
          :  PC potential                    false          :
          :  electronic temp.          300.0000000     K    :
          :  accuracy                    1.0000000          :
          :  -> integral cutoff          0.2500000E+02      :
          :  -> integral neglect         0.1000000E-07      :
          :  -> SCF convergence          0.1000000E-05 Eh   :
          :  -> wf. convergence          0.1000000E-03 e    :
          :  Broyden damping             0.4000000          :
          ...................................................

 iter      E             dE          RMSdq      gap      omega  full diag
   1   -906.5208836 -0.906521E+03  0.406E+00    8.55       0.0  T
   2   -906.5801075 -0.592239E-01  0.241E+00    7.20       1.0  T
   3   -906.6027681 -0.226605E-01  0.215E-01    5.42       1.0  T
   4   -906.6068614 -0.409332E-02  0.468E-02    5.86       1.0  T
   5   -906.6069237 -0.623616E-04  0.312E-02    5.80       1.0  T
   6   -906.6069538 -0.300946E-04  0.441E-03    5.84       1.0  T
   7   -906.6069557 -0.183829E-05  0.753E-04    5.84       5.8  T
   8   -906.6069557 -0.206845E-07  0.384E-04    5.84      11.3  T
   9   -906.6069557 -0.101295E-07  0.618E-05    5.84      70.2  T

   *** convergence criteria satisfied after 9 iterations ***

         #    Occupation            Energy/Eh            Energy/eV
      -------------------------------------------------------------
         1        2.0000           -0.6950246             -18.9126
       ...           ...                  ...                  ...
       702        2.0000           -0.3480663              -9.4714
       703        2.0000           -0.3456118              -9.4046
       704        2.0000           -0.3364447              -9.1551
       705        2.0000           -0.3292886              -8.9604
       706        2.0000           -0.3246904              -8.8353
       707        2.0000           -0.3062381              -8.3332
       708        2.0000           -0.2968121              -8.0767 (HOMO)
       709                         -0.0823100              -2.2398 (LUMO)
       710                         -0.0654667              -1.7814
       711                         -0.0543239              -1.4782
       712                         -0.0524420              -1.4270
       713                         -0.0427025              -1.1620
       ...                                ...                  ...
      1062                          0.5063356              13.7781
      -------------------------------------------------------------
                  HL-Gap            0.2145022 Eh            5.8369 eV
             Fermi-level           -0.1895610 Eh           -5.1582 eV

 SCC (total)                   0 d,  0 h,  0 min,  7.452 sec
 SCC setup                      ...        0 min,  0.021 sec (  0.282%)
 Dispersion                     ...        0 min,  0.048 sec (  0.644%)
 classical contributions        ...        0 min,  0.012 sec (  0.155%)
 integral evaluation            ...        0 min,  0.314 sec (  4.210%)
 iterations                     ...        0 min,  2.258 sec ( 30.303%)
 molecular gradient             ...        0 min,  4.774 sec ( 64.067%)
 printout                       ...        0 min,  0.025 sec (  0.339%)

         :::::::::::::::::::::::::::::::::::::::::::::::::::::
         ::                     SUMMARY                     ::
         :::::::::::::::::::::::::::::::::::::::::::::::::::::
         :: total energy            -901.165578003822 Eh    ::
         :: gradient norm              0.115633942944 Eh/a0 ::
         :: HOMO-LUMO gap              5.836900713803 eV    ::
         ::.................................................::
         :: SCC energy              -906.606955708944 Eh    ::
         :: -> isotropic ES            5.102002826566 Eh    ::
         :: -> anisotropic ES         -1.109531742437 Eh    ::
         :: -> anisotropic XC         -0.093628683532 Eh    ::
         :: -> dispersion             -0.524899754300 Eh    ::
         :: repulsion energy           5.348907268295 Eh    ::
         :: add. restraining           0.000000000000 Eh    ::
         :: total charge               0.000000000000 e     ::
         :::::::::::::::::::::::::::::::::::::::::::::::::::::

      ----------------------------------------------------------- 
     |                       L-ANC optimizer                     |
      ----------------------------------------------------------- 
          low memory version by Sebastian Ehlert

          ...................................................
          :                      SETUP                      :
          :.................................................:
          :   energy convergence        0.1000000E-05 Eh    :
          :   grad. convergence         0.8000000E-03 Eh/a0 :
          :   optimization log               true           :
          :   writing optlog all                1     steps :
          :   Hessian reset                    20     steps :
          :   maximium step len.        1.0000000     a0    :
          :   LBFGS images                     20           :
          ...................................................
 * calculating model hessian...
Using Lindh-Hessian (1995)
 Shifting diagonal of input Hessian by   1.000012112735703E-002
 Lowest  eigenvalues of input Hessian
    0.010000    0.010000   -0.000000   -0.000000   -0.000000   -0.000000
   -0.000000   -0.000000   -0.000000   -0.000000   -0.000000   -0.000000
   -0.000000   -0.000000   -0.000000   -0.000000   -0.000000   -0.000000
 Highest eigenvalues
    0.327962    0.352982    1.257862    1.266602    1.421232    1.468089
 

........................................................................
.............................. CYCLE    1 ..............................
........................................................................
   1   -906.6143689 -0.906614E+03  0.341E-02    5.90       0.0  T
   2   -906.6144675 -0.985768E-04  0.192E-02    5.84       1.0  T
   3   -906.6144819 -0.143770E-04  0.690E-03    5.81       1.0  T
   4   -906.6144829 -0.105552E-05  0.951E-04    5.81       4.6  T
   5   -906.6144829 -0.197081E-07  0.183E-04    5.81      23.7  T
   6   -906.6144829 -0.868567E-09  0.682E-05    5.81      63.7  T
     SCC iter.                  ...        0 min,  1.476 sec
     gradient                   ...        0 min,  4.789 sec
 * total energy  :  -901.1751067 Eh     change       -0.9528690E-02 Eh
   gradient norm :     0.0155301 Eh/a0  converged?    E=F G=F D=F
   step length   :     0.5143463 a0

........................................................................
.............................. CYCLE    2 ..............................
........................................................................
   1   -906.6170697 -0.906617E+03  0.330E-02    5.82       0.0  T
   2   -906.6171390 -0.692943E-04  0.188E-02    5.82       1.0  T
   3   -906.6171480 -0.893773E-05  0.563E-03    5.81       1.0  T
   4   -906.6171489 -0.952990E-06  0.646E-04    5.81       6.7  T
   5   -906.6171489 -0.129387E-07  0.155E-04    5.81      28.0  T
     SCC iter.                  ...        0 min,  1.201 sec
     gradient                   ...        0 min,  4.798 sec
 * total energy  :  -901.1821811 Eh     change       -0.7074456E-02 Eh
   gradient norm :     0.0170097 Eh/a0  converged?    E=F G=F D=F
   step length   :     0.9383023 a0

........................................................................
.............................. CYCLE    3 ..............................
........................................................................
   1   -906.6189039 -0.906619E+03  0.242E-02    5.86       0.0  T
   2   -906.6189434 -0.395034E-04  0.137E-02    5.89       1.0  T
   3   -906.6189485 -0.511168E-05  0.414E-03    5.91       1.0  T
   4   -906.6189490 -0.460657E-06  0.443E-04    5.90       9.8  T
   5   -906.6189490 -0.702607E-08  0.104E-04    5.90      41.9  T
     SCC iter.                  ...        0 min,  1.192 sec
     gradient                   ...        0 min,  4.791 sec
 * total energy  :  -901.1856183 Eh     change       -0.3437200E-02 Eh
   gradient norm :     0.0211676 Eh/a0  converged?    E=F G=F D=F
   step length   :     1.1957634 a0

........................................................................
.............................. CYCLE    4 ..............................
........................................................................
   1   -906.6240904 -0.906624E+03  0.150E-02    5.96       0.0  T
   2   -906.6241013 -0.109412E-04  0.864E-03    5.98       1.0  T
   3   -906.6241031 -0.176575E-05  0.222E-03    6.00       2.0  T
   4   -906.6241033 -0.183089E-06  0.359E-04    5.99      12.1  T
   5   -906.6241033 -0.310717E-08  0.683E-05    5.99      63.5  T
     SCC iter.                  ...        0 min,  1.183 sec
     gradient                   ...        0 min,  4.809 sec
 * total energy  :  -901.1864131 Eh     change       -0.7947184E-03 Eh
   gradient norm :     0.0155739 Eh/a0  converged?    E=F G=F D=F
   step length   :     0.5290143 a0

........................................................................
.............................. CYCLE    5 ..............................
........................................................................
   1   -906.6277092 -0.906628E+03  0.126E-02    6.05       0.0  T
   2   -906.6277125 -0.326023E-05  0.757E-03    6.06       1.0  T
   3   -906.6277135 -0.103285E-05  0.123E-03    6.07       3.5  T
   4   -906.6277136 -0.961641E-07  0.356E-04    6.07      12.2  T
   5   -906.6277136 -0.221360E-08  0.400E-05    6.07     108.4  T
     SCC iter.                  ...        0 min,  1.182 sec
     gradient                   ...        0 min,  4.807 sec
 * total energy  :  -901.1869337 Eh     change       -0.5206036E-03 Eh
   gradient norm :     0.0129817 Eh/a0  converged?    E=F G=F D=F
   step length   :     0.1576985 a0

........................................................................
.............................. CYCLE    6 ..............................
........................................................................
   1   -906.6262930 -0.906626E+03  0.103E-02    6.06       0.0  T
   2   -906.6262960 -0.305192E-05  0.603E-03    6.07       1.0  T
   3   -906.6262965 -0.506553E-06  0.120E-03    6.08       3.6  T
   4   -906.6262966 -0.801086E-07  0.215E-04    6.08      20.2  T
   5   -906.6262966 -0.611067E-09  0.298E-05    6.08     145.7  T
     SCC iter.                  ...        0 min,  1.168 sec
     gradient                   ...        0 min,  4.823 sec
 * total energy  :  -901.1872141 Eh     change       -0.2803946E-03 Eh
   gradient norm :     0.0117580 Eh/a0  converged?    E=F G=F D=F
   step length   :     0.1204614 a0

........................................................................
.............................. CYCLE    7 ..............................
........................................................................
   1   -906.6259672 -0.906626E+03  0.567E-03    6.11       0.0  T
   2   -906.6259682 -0.103888E-05  0.339E-03    6.12       1.3  T
   3   -906.6259684 -0.185122E-06  0.691E-04    6.13       6.3  T
   4   -906.6259684 -0.281210E-07  0.126E-04    6.13      34.4  T
     SCC iter.                  ...        0 min,  0.947 sec
     gradient                   ...        0 min,  4.843 sec
 * total energy  :  -901.1874047 Eh     change       -0.1906763E-03 Eh
   gradient norm :     0.0049217 Eh/a0  converged?    E=F G=F D=F
   step length   :     0.1030074 a0

........................................................................
.............................. CYCLE    8 ..............................
........................................................................
   1   -906.6252248 -0.906625E+03  0.776E-03    6.18       0.0  T
   2   -906.6252267 -0.189733E-05  0.460E-03    6.19       1.0  T
   3   -906.6252270 -0.286322E-06  0.938E-04    6.21       4.6  T
   4   -906.6252270 -0.489846E-07  0.130E-04    6.21      33.3  T
     SCC iter.                  ...        0 min,  0.976 sec
     gradient                   ...        0 min,  4.856 sec
 * total energy  :  -901.1875194 Eh     change       -0.1146273E-03 Eh
   gradient norm :     0.0028085 Eh/a0  converged?    E=F G=F D=F
   step length   :     0.1959903 a0

........................................................................
.............................. CYCLE    9 ..............................
........................................................................
   1   -906.6254299 -0.906625E+03  0.488E-03    6.22       0.0  T
   2   -906.6254301 -0.279450E-06  0.296E-03    6.23       1.5  T
   3   -906.6254302 -0.581400E-07  0.320E-04    6.24      13.6  T
   4   -906.6254302 -0.102294E-07  0.689E-05    6.23      63.0  T
     SCC iter.                  ...        0 min,  0.978 sec
     gradient                   ...        0 min,  4.834 sec
 * total energy  :  -901.1875648 Eh     change       -0.4541137E-04 Eh
   gradient norm :     0.0023912 Eh/a0  converged?    E=F G=F D=F
   step length   :     0.0889123 a0

........................................................................
.............................. CYCLE   10 ..............................
........................................................................
   1   -906.6253586 -0.906625E+03  0.509E-03    6.24       0.0  T
   2   -906.6253588 -0.166806E-06  0.309E-03    6.24       1.4  T
   3   -906.6253588 -0.478941E-07  0.234E-04    6.24      18.6  T
   4   -906.6253588 -0.551142E-08  0.644E-05    6.24      67.4  T
     SCC iter.                  ...        0 min,  0.981 sec
     gradient                   ...        0 min,  4.838 sec
 * total energy  :  -901.1875925 Eh     change       -0.2769529E-04 Eh
   gradient norm :     0.0014180 Eh/a0  converged?    E=F G=F D=F
   step length   :     0.0903201 a0

........................................................................
.............................. CYCLE   11 ..............................
........................................................................
   1   -906.6255487 -0.906626E+03  0.214E-03    6.23       0.0  T
   2   -906.6255488 -0.309773E-07  0.129E-03    6.23       3.4  T
   3   -906.6255488 -0.722275E-08  0.107E-04    6.23      40.5  T
   4   -906.6255488 -0.108366E-08  0.232E-05    6.23     187.1  T
     SCC iter.                  ...        0 min,  0.972 sec
     gradient                   ...        0 min,  4.832 sec
 * total energy  :  -901.1875999 Eh     change       -0.7376232E-05 Eh
   gradient norm :     0.0007927 Eh/a0  converged?    E=F G=T D=F
   step length   :     0.0458698 a0

........................................................................
.............................. CYCLE   12 ..............................
........................................................................
   1   -906.6254314 -0.906625E+03  0.145E-03    6.23       0.0  T
   2   -906.6254314 -0.205489E-07  0.865E-04    6.23       5.0  T
   3   -906.6254314 -0.397972E-08  0.908E-05    6.23      47.8  T
     SCC iter.                  ...        0 min,  0.745 sec
     gradient                   ...        0 min,  4.810 sec
 * total energy  :  -901.1876040 Eh     change       -0.4133475E-05 Eh
   gradient norm :     0.0009956 Eh/a0  converged?    E=F G=F D=F
   step length   :     0.0227955 a0

........................................................................
.............................. CYCLE   13 ..............................
........................................................................
   1   -906.6257013 -0.906626E+03  0.106E-03    6.22       0.0  T
   2   -906.6257014 -0.159164E-07  0.645E-04    6.23       6.7  T
   3   -906.6257014 -0.676471E-08  0.838E-05    6.23      51.8  T
     SCC iter.                  ...        0 min,  0.748 sec
     gradient                   ...        0 min,  4.827 sec
 * total energy  :  -901.1876053 Eh     change       -0.1351738E-05 Eh
   gradient norm :     0.0005062 Eh/a0  converged?    E=F G=T D=F
   step length   :     0.0173196 a0

........................................................................
.............................. CYCLE   14 ..............................
........................................................................
   1   -906.6255770 -0.906626E+03  0.757E-04    6.23       0.0  T
   2   -906.6255770 -0.116005E-07  0.455E-04    6.23       9.5  T
   3   -906.6255770 -0.187163E-08  0.700E-05    6.23      62.0  T
     SCC iter.                  ...        0 min,  0.744 sec
     gradient                   ...        0 min,  4.796 sec
 * total energy  :  -901.1876060 Eh     change       -0.6286291E-06 Eh
   gradient norm :     0.0002395 Eh/a0  converged?    E=T G=T D=F
   step length   :     0.0108160 a0

   *** GEOMETRY OPTIMIZATION CONVERGED AFTER 14 CYCLES ***

------------------------------------------------------------------------
 total energy gain   :        -0.0220280 Eh      -13.8228 kcal/mol
 total RMSD          :         0.1288852 a0        0.0682 Å
 total power (kW/mol):        -4.1310291 (step)   -0.6250 (real)
------------------------------------------------------------------------

 L-ANCopt (total)              0 d,  0 h,  1 min, 32.544 sec
 setup                          ...        0 min,  0.017 sec (  0.018%)
 model hessian                  ...        0 min,  3.772 sec (  4.076%)
 ANC generation                 ...        0 min,  0.868 sec (  0.938%)
 coordinate transformation      ...        0 min,  0.001 sec (  0.001%)
 Rational function              ...        0 min,  0.000 sec (  0.000%)
 singlepoint calculation        ...        1 min, 27.812 sec ( 94.887%)
 optimization log               ...        0 min,  0.070 sec (  0.076%)
 hessian update                 ...        0 min,  0.000 sec (  0.000%)

================
 final structure:
================
$coord
       -1.64021354734700       -5.39554308758500       -1.37411720072800      o
       -0.71316236151200       -5.20167230749900        0.18857222436200      h
       -0.50002079794600       -6.10328083504600       -2.61914874422200      h
        5.57674510673400       -7.98732745734400        3.20078210257900      o
        4.09045406278400       -8.22831261796900        4.27431437832400      h
        6.32372744418400       -6.40317210191500        3.79307785825900      h
        4.34283896061600       -0.18976420245300        2.11470147715700      o
        4.48131021276300        1.02464842518000        0.75735164470200      h
        3.89788930518300        0.75040868233800        3.61581413570200      h
        1.51811607437600       -6.22120551892200       -5.43460849243600      o
        0.69942200842100       -7.82413678320200       -5.89562208134200      h
        0.93964065311500       -4.97777397596400       -6.67229993386300      h
       -6.88299847200500       -0.39652188569100        5.95536993275200      o
       -8.63788374371900       -0.10053106779400        5.39297358110200      h
       -6.98376530786700       -0.92974864339400        7.72499174038600      h
        6.33687654624500       -7.77445237045900       -5.96315927162100      o
        4.61515877345100       -7.13357941004500       -5.69930470311600      h
        6.89245818480600       -6.80753239623300       -7.42780377562000      h
       -1.46606026192400       -5.07845684979000        7.34237335576400      o
       -2.78783903582700       -5.41395109249400        6.10778500138100      h
       -1.13418703120400       -3.28438132394400        7.16343758856900      h
        8.57786557494900      -11.31881167890700        5.46037757007900      o
        9.72600000423300      -11.89576892854400        4.15928286978900      h
        7.46504777510700      -10.10683141221900        4.57806027473700      h
       -6.94345224811800       -4.06723575102200       -0.57135072319600      o
       -6.04361674158100       -4.37798511334400       -2.15168353795100      h
       -7.90236241103800       -2.51271081527600       -0.86359804633300      h
       -0.36635792777600        5.94965380485200        7.70830555228300      o
       -2.00267187048100        5.25634809439800        7.21423039342200      h
       -0.11467398391200        7.38766087378700        6.59296855953300      h
       -4.72878533934000       -4.12268718557600       -5.11320694751700      o
       -4.58724099765700       -5.42187676602000       -6.40585891975000      h
       -5.49348316346800       -2.68660673741000       -5.97073275805500      h
        5.52617350753100       10.66528045951900        2.20270054253700      o
        5.40466993479700        9.94472597726500        0.49943264058600      h
        5.80264796034500        9.16905217336800        3.25209141526600      h
        2.00292224650800        5.38793890897700        1.63054629407200      o
        0.80118407903600        4.01258682865500        1.88502066264100      h
        1.20179341625500        6.87562275843100        2.43389877958900      h
       -4.80742145212400        4.52327560031600        5.81059192377200      o
       -5.84144160106200        3.01441560187200        5.62392402708300      h
       -5.07195287964600        5.55421798415900        4.30923184076400      h
       -2.92544923680200        8.26823962428000       -8.27698616697900      o
       -1.44717867770800        8.52733531633600       -9.36708595282400      h
       -4.16517979589700        7.47577406444100       -9.35993314792100      h
       -3.98811627582000       12.94514242410900       -6.38844440575500      o
       -3.64747762725100       11.55268764156600       -7.54268199997900      h
       -5.74625757936000       12.75155502449200       -5.91842902357500      h
       -4.76266836031500        8.31882761043100       -3.38822845052000      o
       -6.36595652277300        9.04926775065900       -3.93957102162700      h
       -3.75282948005000        8.25934605126500       -4.92396489391900      h
       -0.50992666351500       -2.78653821424600       -8.68207743601800      o
       -1.00870380012200       -3.72864769737100      -10.16729882724000      h
       -0.36282860945300       -1.02933908913600       -9.20156180993100      h
        6.11279989374400        6.16810208284500        4.41776154610300      o
        5.37268193988500        6.49477762725500        6.07765012068000      h
        4.70530197575000        5.55979364268200        3.36374831904200      h
        9.43439149388200       -6.72037207116600       -0.51825163575600      o
        7.75802712497500       -5.98296944184600       -0.46097727555400      h
       10.57812833416200       -5.37560763457600       -1.05547912451900      h
       -8.64480688550400       11.37831086524800       -4.40131192372100      o
       -9.07445135492000       10.88628599271300       -2.66659891356600      h
      -10.26279153926600       11.24256723956700       -5.28624812128200      h
       -0.16092654548300        2.40368961489400       -9.61743948766800      o
        1.26004698501200        3.18686536776000       -8.72787817772100      h
       -1.61897314370600        2.94814137346000       -8.64747681051100      h
        9.48539995218200        4.81317526002500       10.73082282182700      o
       10.17705702603300        6.24699258618900        9.85069860673900      h
       10.92283746300800        3.85355334921200       11.42156044517100      h
       16.19264884209100       -1.83052973780500        2.46723757876500      o
       16.35012418768700       -2.01823433569300        4.27046985257800      h
       17.72868063378200       -2.52514989249500        1.67179440458200      h
       -9.06334358906500        0.20126502563600       -2.15740270339700      o
       -7.63322078711400        1.35421790554600       -2.24756665431900      h
       -9.71151610577500       -0.11972538105700       -3.85297426272600      h
        4.55271543225400       -4.86165289604500       -1.34030493751800      o
        5.59517539434700       -3.64976660221600       -2.25331593481500      h
        3.38411209147600       -5.52608000672600       -2.57263109586400      h
       -6.44542517737800       -2.43780282584300       10.57747346342900      o
       -8.08192156367400       -2.08320413163600       11.32809454094800      h
       -6.35803173477300       -4.23757837685600       10.19942673122400      h
       -7.88565437902600        4.63263948719200       -6.27425190511800      o
       -7.37648011764500        5.17706494398500       -7.97032855644600      h
       -9.70316504870200        4.83536445141300       -6.22456731511900      h
      -13.40837505451400       10.37182413488400       -5.61054304771100      o
      -13.38370489011600        8.61402306365200       -6.15136282103300      h
      -14.05202565677100       10.38581708613100       -3.90633635901100      h
        7.77844602430600        1.27838570085200        7.45330713738500      o
        6.10103439289900        1.85895648388200        6.95945155938900      h
        8.51202058077900        2.62516720956600        8.47131946108200      h
        6.58412258474600       -4.98704570430700      -10.22689237931400      o
        5.59205437758200       -3.44995261890100      -10.49738471471700      h
        8.21577219890400       -4.59883543692000      -10.95790128472300      h
      -15.42448558428200       -7.72541451195400       -4.24830926427200      o
      -15.04858630905600       -8.63442983661100       -2.68859166661800      h
      -17.00527917431700       -6.86263065158900       -4.01811347675800      h
       -2.92068596881900        3.51503102136300       -5.55780093611700      o
       -4.64959599322200        4.08435090464800       -5.47207487222700      h
       -1.88654285390100        4.71016183726400       -4.61316044192800      h
        0.63913877081600      -10.37934416437300       -1.81304739833300      o
        2.47446453443600      -10.49635138082100       -1.79023677982700      h
        0.00931467387700      -12.08303530314200       -1.51910523101500      h
        2.98470138682800        2.42196144142700        6.42246911857100      o
        1.79845711132800        3.68213078770600        7.06534041277600      h
        2.47856354428400        0.78236471877100        7.09045599408400      h
        4.23149975435500      -11.86769832815600       -8.11319631554100      o
        5.18804588012700      -10.51095322255500       -7.26912749992300      h
        5.22061262723200      -13.37460026324600       -8.00055246912900      h
        7.56460692717600       -4.20069479743000        5.86247207882700      o
        8.49341790801800       -5.35684908833800        6.96021441095200      h
        8.73496324010600       -2.83682309761400        5.46792444596000      h
       -9.95926450959000       -7.32730574533800        1.76541708746100      o
       -8.92258219863800       -6.13194194833700        0.78902818197400      h
       -8.83578930262400       -8.66215444499600        2.33705795653400      h
        9.02957146004300       -1.72753675035100        1.25892831902900      o
        7.25800977029900       -1.53391761788900        1.75867324684400      h
        9.75154392764300       -0.08788112285900        1.60772452353700      h
        4.61326747525000       11.21822922341700       -5.75555346236900      o
        4.51473573845600       10.45602945750200       -7.41165800643100      h
        2.87789040462500       11.50457200768600       -5.17718995011200      h
        5.69245308179000      -10.47425307618100       -1.33429788422900      o
        6.26516840897500       -9.40483148368800       -2.69857967611800      h
        5.66402378288100       -9.42963199798100        0.18990929806800      h
        2.14041712242100        0.33034508172200       12.39186370102100      o
        1.88045701548100       -1.46130114434600       12.65447672562500      h
        0.42301390615300        0.95162033039700       12.13276580346600      h
        7.00244053230900       -1.94887518012400       11.08125723732000      o
        5.75613577499500       -1.10393524147300       12.09707611377700      h
        7.26218248002600       -0.82986621231600        9.57719080653600      h
       -2.75868650270400        1.21854771518300       11.19932447437400      o
       -3.95124900057100       -0.14858331062800       11.44977093724700      h
       -2.31907277232600        1.09832885203700        9.40489258155200      h
        3.26655683390500        4.45878934423600       -6.55749905806600      o
        2.25458284072900        5.19961068584100       -5.19144057645300      h
        3.71347372844400        2.72958369564100       -6.06232527149800      h
        0.05756424246200       11.43189036486600       -3.65993798807600      o
       -1.35529730567000       12.17095512135200       -4.60182950454100      h
        0.14641569367500       12.29446836283200       -2.03717668272400      h
       -4.81567953297900       -9.09933720810300       -0.74672117222100      o
       -4.36791354715400       -9.49666131704100        0.97573227957700      h
       -3.71696996484700       -7.64075060878500       -1.16517025372600      h
      -11.53930312141500        0.29652001335100        4.36631392531900      o
      -11.83757499386900       -0.84178456685800        2.94276314745600      h
      -12.64283273850400       -0.26090999526300        5.71306263935100      h
       17.88259899697900        5.11205174217000       -1.61613742567100      o
       16.69416066952700        4.36570280287600       -0.42730251069400      h
       19.08796734444000        3.77426106102900       -1.98754753785100      h
       -4.56959381682400        0.65378849045800      -11.95934079442500      o
       -4.96274875057900        0.36138719887500      -10.16884971871200      h
       -5.54233068556300       -0.65567365593100      -12.81287863975900      h
      -14.93077709197100        9.79688463861800       -0.24710891677400      o
      -16.29193783459300        8.80752914023600       -0.96667285722000      h
      -15.20842834289600        9.82018133054300        1.56817837297100      h
       -0.04242540561900        7.74057978001500       12.50070380594200      o
       -0.16819249791600        7.00540591048800       10.80468894808500      h
        1.39510376768600        6.93319297715100       13.26520978698100      h
      -17.42238872641700        3.45481615461000       -5.45175526155500      o
      -18.17109297667100        4.88793028596900       -4.58378677515400      h
      -16.68092382597800        2.40806013111800       -4.12439905392000      h
       -1.83530068317800        0.05535542664900        6.39322231117800      o
       -3.62065397179000       -0.26844648502100        6.12421297638500      h
       -1.39772798646000        1.24016415728100        5.07385919247600      h
       11.97184895001000       -3.06409388151000       10.85857767376500      o
       12.04377298771300       -4.86628367874300       10.61223457164400      h
       10.20672078804000       -2.68093507702900       11.24114224787400      h
       22.44140687337900        2.93783215476800        2.50422317107900      o
       21.12313940039700        4.06383884163900        3.10683468805900      h
       22.21161575877200        2.73916179107900        0.70897401657100      h
      -21.70348306501300       -1.93735321449800        5.52810576856600      o
      -20.84744051870300       -0.66896474500800        6.52600676926300      h
      -20.72951456341900       -3.46548500874700        5.76503305017300      h
       -0.20015578938500       -0.80288716355600      -14.11853529231400      o
       -1.68630888542000       -0.16333881920800      -13.19787617291000      h
        0.22765492322900        0.55428083776700      -15.25390259305500      h
       -0.96331717315300       -9.10140771544100        2.74757286925000      o
       -0.17335275291300       -7.52821365302100        3.25113115215900      h
       -0.25859936536200       -9.49730692414900        1.07854631584100      h
        9.49891102369000       12.21722208187900       -4.03834191495700      o
        9.56241614482800       12.58276336874300       -2.23442067351900      h
        7.77536249875900       12.51555223896100       -4.57231196404800      h
       -9.04217410551600        4.47273433612800        2.77626915884500      o
       -9.61672464251400        6.00326633952500        3.61121885112800      h
      -10.12037043938700        3.10325215278500        3.32821551950300      h
      -16.63398436641100       -0.63962892585400        2.85234201617100      o
      -17.15495068155400       -0.20829535059800        4.56080946467700      h
      -18.18514064209800       -0.74555137497800        1.87326596706000      h
       -9.79306258927300        8.95935145361300       -0.13269713932900      o
      -11.45364172659300        9.66245037834800        0.16467604673700      h
      -10.17136080979700        7.22424903934800       -0.63895532888200      h
      -15.13634006325200        3.95435630454000        1.88100883813500      o
      -13.92820644995200        4.27238699731700        0.51092161877900      h
      -15.31991700815000        2.10008744763500        2.03332670058400      h
       14.78444143933900        2.89336361562500        1.71839712348900      o
       13.59251914679800        3.15413516465200        3.13545740211900      h
       15.36795070237900        1.14174111960100        1.92410764192700      h
        9.39679613160200        3.30136095549500        1.72768205648100      o
       10.20068293373000        4.68219615181500        0.79834745128700      h
        8.47267300393800        4.03335539720700        3.12441130217900      h
        7.95733553441100       -1.91652381132200       -3.65607099764600      o
        9.40691320220400       -2.17966523731600       -4.76019890839600      h
        8.62410882602900       -1.63458695088300       -1.94166886819700      h
        0.84662437667900       11.57837377819300        8.96996212592400      o
        0.33446627374000       11.21571069512700       10.68223299258900      h
        2.16613831270800       10.33610922548000        8.63067742423400      h
      -10.93213498724400       -0.34471305891000       12.02856843772900      o
      -11.09346852338300        0.38157836279700       13.67560590698900      h
      -10.63757505604100        1.08995481608600       10.84106854364800      h
       -5.84504296802200        3.83714007930000       -1.03681419681600      o
       -5.72293954524800        5.40106196948100       -1.99167308001900      h
       -7.06523169495200        4.13023425647600        0.33159688097700      h
       12.00684925841300       -2.78610001344400       -6.67361056142100      o
       11.65924131981800       -2.97100749642900       -8.45780490983300      h
       12.37406619078800       -4.48776672262900       -6.05121874946000      h
       -6.20736169917800       -7.35576595052500        8.77947132346500      o
       -7.64969405809300       -8.47356912029800        8.82553397287000      h
       -6.14305534557600       -6.70493901193000        7.05798396174500      h
        6.07109712159600        3.72279151526700      -12.80183144566700      o
        5.83739486859300        5.24990753835500      -11.77795851923000      h
        7.81255817209500        3.24213591037500      -12.52671743037500      h
        4.07609729280500       -0.68724925878300      -11.16638640254500      o
        4.83731551314200        0.89763554371200      -11.73823226682100      h
        2.52581683687600       -0.87566088951000      -12.15028888694100      h
      -14.23851640412500       -3.39308293198400       -9.44058088153700      o
      -14.26459414601500       -5.20794199338800       -9.52216332481900      h
      -15.92525644242500       -2.80753246407500       -8.94125582134800      h
       12.48125958719400        1.45936010761300       -2.81290488654000      o
       12.99768914975700        2.29071180912000       -1.27115396965500      h
       12.59561926111500       -0.34904464791200       -2.46702621083900      h
       10.65605974338400      -11.62483721069200        0.65235320958400      o
        9.99569231376300       -9.95231463385300        0.22921330935500      h
        9.55211795703400      -12.81241409315300       -0.15608444115700      h
      -18.95945046788300       -3.46994368389900       -2.55374303971400      o
      -18.21073094769800       -4.38228374855000       -1.12097006322600      h
      -20.25794728896700       -2.43631689785800       -1.77326596554800      h
       -4.66393886445500        5.55174592423000       13.26793439517800      o
       -3.13694030351900        6.56246494152100       13.42109137040400      h
       -4.08239915581400        3.92038878938200       12.63799941667900      h
       10.34675868120300        2.00562287880600      -10.47650589312900      o
        9.45548939650200        2.18883707644600       -8.84711707604400      h
       12.11493356933000        2.19516729630400      -10.00427054102800      h
       -0.06177545441000       13.44720487913600        1.00040474868500      o
       -1.81220802874300       13.96949198213800        0.99176533530600      h
        0.86559541749800       14.36925595366700        2.31214536958700      h
       10.92582408548700       -2.75559699126100      -11.81645908953100      o
       11.81260972608700       -2.82925368561800      -13.38823883966600      h
       10.52681786666300       -0.95360433496300      -11.49281854911900      h
        1.43252655792500       -4.61691424514300        2.81436379654700      o
        2.86476721429800       -4.53031111106300        1.67292286255800      h
        1.92155016184900       -3.67816110673400        4.31825833426800      h
      -12.50774471525900       -2.80860224908400        0.56572310287900      o
      -11.77736600491900       -3.55005620045000       -0.96130740803200      h
      -13.96823562410800       -3.82615616627200        1.03624020578700      h
      -13.03171002283800        5.36100076560400       -6.91505615812000      o
      -14.71050564701100        4.60575911387400       -6.64392843732600      h
      -12.57148701438900        4.94855664621700       -8.65172115426900      h
        0.80879677633900        8.82697338789700      -11.58229736043500      o
        2.55547433217400        8.72796428459500      -11.06992223947800      h
        0.59299263010700        7.50398447223500      -12.84707925355700      h
       12.04994219196000       -1.57765106365300        5.94605115098900      o
       12.21946083888800       -1.99024029981900        7.73224406902900      h
       11.69855542507600        0.21835907858200        5.87948249968300      h
       20.75733073582900        0.94682870254100       -2.27799261291000      o
       20.38108784001800        0.51981573168900       -4.02221732865100      h
       20.69786053712900       -0.63349842035900       -1.36097991361200      h
        9.52065130047300       13.35596444979500        1.05129706178200      o
        7.99465668970700       12.41142548340000        1.60354028024600      h
        9.24335480062000       15.08878764953000        1.48493427117400      h
       12.58203982820400        3.51279564280600        6.05951686812800      o
       11.92949731910200        5.21352064637100        6.35068599565300      h
       14.10353517004900        3.30820505703500        7.08644658313500      h
       -0.61234541427600      -10.51126965678800       -6.98075076015200      o
        0.90935746143000      -11.44732600641200       -7.37626625433600      h
       -1.64846225081600      -11.51711341847900       -5.81588081676100      h
       12.48995329410000       -5.97421807354300        3.52611278912500      o
       11.04036637345300       -6.23646669208700        2.41592617623100      h
       12.39585106434800       -4.19743098446800        4.02001600635700      h
        3.68604601055600      -13.37777669376800        5.46759125552700      o
        2.80256680587500      -11.87162724962900        5.99801502014700      h
        5.44380970112000      -13.11225007061000        5.89154088367300      h
      -14.93981960865100       -9.77794058459700        5.55938513778900      o
      -13.39600813591300      -10.22054496087000        6.43361214916900      h
      -14.64601854244500      -10.11790124201500        3.78608418434300      h
      -13.98685654878700       -2.26769521974500        8.34385549277000      o
      -12.78012401251000       -3.45586755523100        7.55263571492100      h
      -13.14882067816000       -1.73553848950300        9.88588498190600      h
       -7.69337042204000      -11.60036143654400        3.50791312687900      o
       -5.99206629854000      -12.32010540740200        3.85354546565400      h
       -8.48273479665400      -12.63640694046500        2.20874562089100      h
       -6.92569523943600       -3.70980619065200      -12.99369960001700      o
       -5.56010719810600       -4.79734268929100      -13.49323142098000      h
       -7.44326784960500       -4.23931217093500      -11.30298508575400      h
       14.82358138632000       -8.72344784222200       -0.43826481602800      o
       14.24266817701100       -7.49952735157200        0.80307930919000      h
       13.86526216546000      -10.23731172065100       -0.06780061032900      h
      -11.87091312975200        0.00812700965300       -6.35515998627800      o
      -13.20290627719000        0.13039382965900       -5.08933561884300      h
      -12.46380725978300       -1.27370286565200       -7.52001319406700      h
       -4.01659839067900      -12.87691762321800       -4.04214397251300      o
       -3.18887621626100      -14.15304445489600       -3.02796838397800      h
       -4.28249863968100      -11.46510319510000       -2.85997821259400      h
       18.41384458262600       -2.19273495633600        7.39172133587100      o
       19.03863643044700       -2.63066361903000        9.03362629868100      h
       19.94709787964100       -2.00727177997000        6.28314273803100      h
        3.81188781109000      -15.07026864759800        0.65652645278100      o
        3.72944411462400      -14.66330104415300        2.45919847387200      h
        4.60801500465100      -13.63278419314500       -0.13357039643000      h
       -3.12538111936300      -13.20885042641500        4.42982619188900      o
       -2.16253620592100      -11.73224232556800        3.83670041603800      h
       -2.91990477028400      -13.07548767156000        6.25754424538200      h
       -5.42701877420100       -4.97161668568300        4.19756029066700      o
       -5.56581519130300       -4.87990110232600        2.36894248290300      h
       -6.10320516097000       -3.35396680726600        4.78077328625200      h
       -2.32198913460500      -10.95642675707600        8.91137497008100      o
       -0.72723676712800      -10.22616507236200        8.40807331630200      h
       -3.52247148772000       -9.56801696032800        8.98994507832800      h
       13.23276550337800       -3.33798220373300       -1.42330606232000      o
       14.62187061420600       -3.83005308164600       -2.52001262393600      h
       13.97620408008500       -2.91881288776500        0.20307906598300      h
       10.57686721761200        8.12380456125400        6.46107254948900      o
        9.01772392543900        7.64671332230000        5.63232278631900      h
       11.61810457879500        8.91882237173200        5.14975641848300      h
      -17.85842083482600        1.13429878090400        7.56644981097600      o
      -16.71373447661000       -0.06664038889400        8.33171404908800      h
      -16.90493882182300        2.71249115674400        7.47229951755700      h
       -0.29982236217000        9.16793157797400        3.70010283208300      o
       -2.12902993866400        8.98517892152100        3.56450346864900      h
        0.07548916425500       10.72800341439500        2.78504247442500      h
      -16.67203197412500       -5.71732844963900        1.29877185557800      o
      -16.18679851983800       -7.46785387849100        1.20404971313400      h
      -17.19555870843700       -5.38975078048500        3.05247143745400      h
      -10.17889547785900      -10.70970922030900        7.69698127599100      o
      -10.08285197062300      -12.17880112894500        8.74749416178600      h
       -9.24286406298000      -11.11380011699700        6.11607633328800      h
      -19.11032242730900        7.36372689748600       -2.47703498105700      o
      -19.72523195271100        6.43460667962200       -0.99432221463900      h
      -20.43163810912800        8.46986374754700       -3.02419252822800      h
       12.56179799921900       -7.59004283366200       -5.02329648783500      o
       10.80285651182400       -7.94464311637300       -4.72993464401700      h
       13.43164744739800       -7.97801701966600       -3.43987951371900      h
        2.27219229223900       -8.44969430848200        7.08041289113600      o
        3.52144209144600       -7.97074185179500        8.34587075094600      h
        0.99766689521000       -7.09693740657000        7.04979142433300      h
       -7.65692595105100      -11.03547380872000       -7.55017597373700      o
       -6.43952736347700      -12.18632517334600       -6.82076808156900      h
       -6.64666635070400       -9.66029878286900       -8.26841648486600      h
       -4.97142253089300        8.07143426552400        1.96146421673500      o
       -6.70863175866600        8.64052392992100        1.83475435603600      h
       -4.35396062200400        8.06428138484300        0.24667133806900      h
        8.79172702942700        3.08343182944000       -5.81132319763700      o
       10.17348619628900        2.45131588628700       -4.74081349036000      h
        9.12586006983700        4.87100081605900       -6.06112231221000      h
       -1.65634101491800       -5.61670917605200      -12.97792425566400      o
       -0.15523721144000       -6.67134662627000      -12.74199783773800      h
       -1.09592952180100       -4.15933649133000      -13.93825623705000      h
       -1.13021475242500      -14.99125252037500       -0.27458410363300      o
        0.65107933190500      -15.42908017343800        0.02002068097200      h
       -1.86395978806800      -14.81118938614300        1.39090092533500      h
       19.04108049824400       -0.39491169461800       -7.04209484719700      o
       20.07251647283600       -0.20856422836500       -8.51434909655800      h
       17.43734414022300        0.53660015851800       -7.36758735721200      h
       19.96221301894200       -3.86705914555000       -0.08364856777900      o
       20.09697841551200       -5.59734773523700        0.66326568114400      h
       19.14433681012700       -4.18127143124000       -1.69955106857800      h
      -10.09002824119800      -13.59592809052300       -0.60117798164600      o
       -9.73824113832900      -12.08058333156600       -1.64818334767400      h
       -9.45569518746900      -15.02073093258000       -1.51412103554900      h
      -10.09897998489200        8.85377966014600        5.34911131007400      o
       -9.28747485502300        8.53959274969600        6.95883949378300      h
       -9.23301135162200       10.35648257844600        4.64303209854500      h
      -15.23521390752900        0.06144402236800       -2.47039574262900      o
      -14.10559790437700       -0.62058603141800       -1.16045542981200      h
      -16.57125278096800       -1.19923439813000       -2.61844710296100      h
      -13.89290447609200       -9.97906087820200        0.27041604849000      o
      -12.41206017828500       -8.88663957139800        0.63538506964600      h
      -13.18296189182400      -11.62717549748800       -0.04741148136300      h
      -20.00681349157000        4.72357019158400        1.71912839754300      o
      -18.14026270686700        4.46096248920400        1.79192511125700      h
      -20.49410924347000        5.35223469088600        3.34417039726900      h
        9.81783813178200        8.06192155592600       -6.95369703811500      o
       11.39105862447700        8.30120141765000       -7.81870899951400      h
        9.66678855890400        9.48766831741800       -5.77868839961100      h
       13.04324095200200        9.83367155402700        2.34450087027500      o
       12.12126465317100       11.39143671687600        2.03665392537800      h
       12.36210807735800        8.66442306780200        1.06418929396200      h
        5.70826537614300        3.11083264481200       -1.72942290906500      o
        7.07050811782800        3.09928094567000       -0.47215629919500      h
        6.55603638882700        2.74846241087500       -3.32436183557800      h
      -10.33854357007000        3.31504176880200        8.79067185048700      o
      -11.91092343537200        3.93216122741200        8.06269355187300      h
       -9.33143822998000        4.79470998205800        9.20900963166900      h
       22.21570557718200       -1.69615221806800        4.40309627118100      o
       22.10323536502700       -2.69147247861700        2.88508022548100      h
       22.48386439791500        0.06100392163500        3.84898708875000      h
      -11.20174938072700       -4.89564513486500       -3.84735655232000      o
      -10.32111980189800       -6.47171692260500       -3.42288320873800      h
      -12.89041488612000       -5.44650634760800       -4.30840437512400      h
      -12.57644316424300       -8.64325416345400       -8.66394089062000      o
      -11.31979337471900       -9.95055818744000       -8.50299244812600      h
      -13.58675998586900       -8.67998851991500       -7.13793456204100      h
       -6.72872072961000       -0.12336430669800       -7.51095435582400      o
       -8.21292077422200       -0.98960339395500       -8.12265028924300      h
       -7.30827170048800        1.53714314141200       -6.92474886676000      h
      -11.30204967802300       -0.63533441780900      -12.67822426817800      o
       -9.89358458600400       -1.69946952595800      -13.12647894412500      h
      -12.43620459579100       -1.66926060560500      -11.66481892041200      h
        2.62405114327900       -8.07098794475800      -11.72074287602600      o
        4.06810388583200       -7.00477288120800      -11.33464645457400      h
        2.87927533942000       -9.61232993723100      -10.78666745751700      h
       -3.98944199605300       10.93725593839800        6.96432989032800      o
       -2.34015619435300       11.29919425411400        7.67511269078300      h
       -4.93520855431300        9.95191161880200        8.17987803878800      h
      -14.91717374665700       10.03951319563500        5.01039791468000      o
      -13.08979393162100        9.63431870617400        5.10309971407300      h
      -15.07886039585300       11.75807386942500        5.54874217818800      h
       10.63473386309200       -7.60902033073000        8.15873772145800      o
       11.81213340063000       -7.12335330187800        6.83658069471800      h
        9.95811382352300       -9.21955314160700        7.53417666038800      h
       16.97451584654300       -7.07689424730800        5.89803380458900      o
       17.45307243928100       -5.44077643604700        6.56278861415900      h
       15.38778735938100       -6.82983324548000        5.02391568526600      h
      -11.40813483425200        4.22352954490100      -11.68716225863500      o
      -11.31994901613900        2.37300948608400      -11.95223217622800      h
      -12.47027773132200        4.86062606242800      -13.00435062232300      h
       14.28622799192100        5.99619926903100       -4.98799174854900      o
       15.72168225974000        5.61743230406400       -3.87826598728000      h
       14.50581068487300        7.78915531007500       -5.42846383346100      h
        3.77760433394300       -0.47388463631300       -6.09229784987400      o
        5.37989567597800       -0.96204565045000       -5.33281742095300      h
        3.91744486412700       -0.70226389773400       -7.91675884787600      h
        5.51665743233200        7.63033133755600       -9.57467908957400      o
        7.19941713311700        7.89868777165500       -8.87068425597100      h
        4.69858263240600        6.44243654933300       -8.39323986427500      h
      -21.32856594801500       -0.30231114163900        0.72846402734700      o
      -21.27317958541900        1.52139379250700        0.88959998489000      h
      -21.90109048582300       -0.95728510915200        2.36305737098400      h
       19.59784297609500       -8.39169874495400        1.73382518175500      o
       18.94767473795100       -8.17273372839200        3.45109799748400      h
       18.15164002398700       -8.92788681414600        0.73966454964400      h
       17.25907656991900       -4.44224162334600       -4.45317115421800      o
       16.78795436221100       -5.86421082058600       -5.47223735596700      h
       17.86547282662900       -3.09957308823100       -5.56176217719600      h
        0.94351085853500        4.37642390075500      -14.20928641283600      o
        2.75743367695000        4.20143726433000      -14.22286702191200      h
        0.37825823297800        3.64663983747100      -12.60236691123100      h
        5.71524291538900       -6.89172272519800       10.57680195725000      o
        7.28731959098200       -7.78916689182800       10.47126013332500      h
        6.16087329602900       -5.10221962580200       10.75190319516000      h
        6.16044888758100        8.12041764020600       -2.07809539907300      o
        5.52834587979100        9.00690065064400       -3.56800412171900      h
        5.55268412762100        6.36947255556700       -2.07348344768300      h
      -10.75313214441600       -5.40450162522100        6.35025833252900      o
      -10.97074839553800       -7.02030301680000        7.14594762764400      h
      -10.59499224947800       -5.76068816978300        4.53914295618100      h
       -6.41818605470700        5.40047914851800      -11.04253524102700      o
       -5.56753391236000        3.87624605259900      -11.64003973621200      h
       -8.15242332881000        5.26344831559800      -11.62954360397100      h
       13.38719714203100        1.97431951535500       12.10893799348100      o
       14.86719733931900        2.36144714551800       11.11002473519000      h
       13.09078779197700        0.18324176118200       11.91659845606400      h
       14.62556852650800        1.70734371975800       -7.71860802597600      o
       13.70008675580700        0.37560100163800       -6.84172616053100      h
       14.44400905114500        3.22545613146700       -6.66590645712900      h
       -9.06026260312100       -4.79193736896400       -8.48281904611700      o
      -10.20271160971700       -6.10107086328700       -9.05248182055300      h
       -9.57814971716700       -4.50778210480900       -6.73415509351300      h
      -18.48415056119400       -1.46844563766800       -7.50784939417100      o
      -18.33494824532000        0.31559438041600       -7.13791125453900      h
      -18.90029776940900       -2.29327477979700       -5.93335889131000      h
        2.91333186369300       14.44208077856600        4.87947559632500      o
        2.10617593564000       13.74620428341900        6.36376644642700      h
        3.92367474482900       13.09434611910600        4.15680603943600      h
       -7.53373667152700       12.81296142600700        3.83702749245100      o
       -6.78359382355200       12.93626333697700        2.17037901137300      h
       -6.13706727401700       12.44241726694800        4.98085670896000      h
       -4.92564886461700       13.15155653627300       -0.72259298046900      o
       -4.66234109549600       11.57823064732600       -1.63016264361000      h
       -5.66961635558600       14.29137067775700       -1.91734037872300      h
       14.55629427273600       10.96026785882700       -5.42185638967200      o
       13.01899249487800       11.84925577603200       -5.00199153266700      h
       15.64426167500100       11.09331758303400       -3.92907542002100      h
      -14.72513606971700        5.06929887180000        6.70881480904900      o
      -15.09035860460100        6.85491231048000        6.71425898233000      h
      -14.59684936801700        4.64035465016000        4.89762851034100      h
       11.01874986445900        6.98096114334200       -1.21406913328100      o
       12.02912657981600        6.55706815973200       -2.71114515502800      h
        9.36389602512400        7.60929860629300       -1.76044147702000      h
       17.00851661010500        2.69016448401400        8.35319698148000      o
       17.96259189198700        3.80851273106500        7.25897512470600      h
       17.52088013513700        0.96680381333800        7.93870002142600      h
        0.40543219223000        6.43216440347400       -3.00000907692100      o
        1.14026941520500        6.13029904856500       -1.32144985935300      h
        0.23261721488200        8.25885570649800       -3.22043816092900      h
      -11.77982303491300        4.50413613275800       -1.80465956568100      o
      -12.38184647919300        4.72026985607800       -3.51162986652100      h
      -10.93156940549600        2.85899608138900       -1.72191840726500      h
       17.07046597410500       10.32397351787200       -1.00451302952800      o
       15.81513616722700       10.26488351578100        0.33482797975900      h
       17.70350617371600        8.62014151042700       -1.20490329573100      h
        4.57289659839100        4.86859209917700       12.47926148527200      o
        3.77736852335600        3.21206932172400       12.44455736552200      h
        6.38088654338600        4.60517731600900       12.34102550532900      h
      -17.67365276769500       -5.42429720166000        6.21744078175200      o
      -16.94116743622000       -7.10486622365400        6.35929917642300      h
      -16.50865179448600       -4.28921723885100        7.06363121423600      h
        3.02957094830600       -2.52888619741500        7.27751644562400      o
        2.63430642163300       -3.14033397939300        8.95403335245400      h
        4.76858491538400       -3.01999498750200        6.88908803866600      h
       -9.14691620856900       -9.39170896119000       -3.11585915993400      o
       -7.55796925514100       -9.06470104516600       -2.21577950401700      h
       -8.67688854865000       -9.91754731996600       -4.83980835249800      h
        1.07642989685500       -4.69058141557300       11.80826884775800      o
       -0.33037019372300       -5.15560794033400       10.73082162657600      h
        2.12425250378300       -6.15654613371000       12.03855127334800      h
       18.30644775117500        5.63839879929800        4.26150299599000      o
       16.97665654926300        4.78896271241900        3.28777299462900      h
       18.12285297841400        7.41602852454400        3.97365677655900      h
       -4.19465952845400       -7.58493161781000       -8.89892385644100      o
       -2.82016363363800       -8.66974592710200       -8.32212153182800      h
       -3.60625569719300       -6.87443641418000      -10.47502844415500      h
       -7.06579408911100        7.29261867885300        9.31259337315399      o
       -6.14851314094600        6.27218802939500        8.05219764167500      h
       -6.31484066832400        6.81015535437000       10.95544702147600      h
        4.73685045234200        8.17549073499500        8.77872067764200      o
        6.21817965382700        9.10003490059300        9.25970102154400      h
        4.45510887108000        6.91182235948700       10.12736147505700      h
       -0.63133086165186        1.25541228869515        1.57210921964961      o
        0.14542686198320       -0.33979591446033        1.98576197144552      h
       -0.76644371554234        1.08876383628029       -0.27000222189884      h
       -0.35344772381259       -0.97276235373756       -2.80557160926039      o
       -1.91975167787048       -1.52379961593598       -3.54181836792773      h
        0.95768247750340       -1.47391291258663       -3.95810705559273      h
$end
 
 Bond Distances (Angstroems)
 ---------------------------
O1-H2=0.9670         O1-H3=0.9687         H2-O1=0.9670         H3-O1=0.9687         O4-H5=0.9786         O4-H6=0.9784         
H5-O4=0.9786         H6-O4=0.9784         O7-H8=0.9666         O7-H9=0.9664         H8-O7=0.9666         H9-O7=0.9664         
O10-H11=0.9832       O10-H12=0.9776       H11-O10=0.9832       H12-O10=0.9776       O13-H14=0.9877       O13-H15=0.9795       
H14-O13=0.9877       H15-O13=0.9795       O16-H17=0.9821       O16-H18=0.9741       H17-O16=0.9821       H18-O16=0.9741       
O19-H20=0.9734       O19-H21=0.9701       H20-O19=0.9734       H21-O19=0.9701       O22-H23=0.9677       O22-H24=0.9880       
H23-O22=0.9677       H24-O22=0.9880       O25-H26=0.9763       O25-H27=0.9788       H26-O25=0.9763       H27-O25=0.9788       
O28-H29=0.9761       O28-H30=0.9722       H29-O28=0.9761       H30-O28=0.9722       O31-H32=0.9727       O31-H33=0.9732       
H32-O31=0.9727       H33-O31=0.9732       O34-H35=0.9808       O34-H36=0.9781       H35-O34=0.9808       H36-O34=0.9781       
O37-H38=0.9758       O37-H39=0.9901       H38-O37=0.9758       H39-O37=0.9901       O40-H41=0.9730       O40-H42=0.9739       
H41-O40=0.9730       H42-O40=0.9739       O43-H44=0.9816       O43-H45=0.9668       H44-O43=0.9816       H45-O43=0.9668       
O46-H47=0.9739       O46-H48=0.9685       H47-O46=0.9739       H48-O46=0.9685       O49-H50=0.9769       O49-H51=0.9731       
H50-O49=0.9769       H51-O49=0.9731       O52-H53=0.9674       O52-H54=0.9728       H53-O52=0.9674       H54-O52=0.9728       
O55-H56=0.9771       O55-H57=0.9846       H56-O55=0.9771       H57-O55=0.9846       O58-H59=0.9696       O58-H60=0.9765       
H59-O58=0.9696       H60-O58=0.9765       O61-H62=0.9809       O61-H63=0.9785       H62-O61=0.9809       H63-O61=0.9785       
O64-H65=0.9792       O64-H66=0.9705       H65-O64=0.9792       H66-O64=0.9705       O67-H68=0.9626       O67-H69=0.9849       
H68-O67=0.9626       H69-O67=0.9849       O70-H71=0.9630       O70-H72=0.9864       H71-O70=0.9630       H72-O70=0.9864       
O73-H74=0.9733       O73-H75=0.9755       H74-O73=0.9733       H75-O73=0.9755       O76-H77=0.9742       O76-H78=0.9650       
H77-O76=0.9742       H78-O76=0.9650       O79-H80=0.9711       O79-H81=0.9743       H80-O79=0.9711       H81-O79=0.9743       
O82-H83=0.9804       O82-H84=0.9681       H83-O82=0.9804       H84-O82=0.9681       O85-H86=0.9733       O85-H87=0.9640       
H86-O85=0.9733       H87-O85=0.9640       O88-H89=0.9750       O88-H90=0.9741       H89-O88=0.9750       H90-O88=0.9741       
O91-H92=0.9786       O91-H93=0.9682       H92-O91=0.9786       H93-O91=0.9682       O94-H95=0.9758       O94-H96=0.9608       
H95-O94=0.9758       H96-O94=0.9608       O97-H98=0.9643       O97-H99=0.9743       H98-O97=0.9643       H99-O97=0.9743       
O100-H101=0.9733     O100-H102=0.9737     H101-O100=0.9733     H102-O100=0.9737     O103-H104=0.9770     O103-H105=0.9744     
H104-O103=0.9770     H105-O103=0.9744     O106-H107=0.9855     O106-H108=0.9557     H107-O106=0.9855     H108-O106=0.9557     
O109-H110=0.9764     O109-H111=0.9737     H110-O109=0.9764     H111-O109=0.9737     O112-H113=0.9839     O112-H114=0.9716     
H113-O112=0.9839     H114-O112=0.9716     O115-H116=0.9794     O115-H117=0.9659     H116-O115=0.9794     H117-O115=0.9659     
O118-H119=0.9661     O118-H120=0.9798     H119-O118=0.9661     H120-O118=0.9798     O121-H122=0.9661     O121-H123=0.9779     
H122-O121=0.9661     H123-O121=0.9779     O124-H125=0.9681     O124-H126=0.9761     H125-O124=0.9681     H126-O124=0.9761     
O127-H128=0.9612     O127-H129=1.0015     H128-O127=0.9612     H129-O127=1.0015     O130-H131=0.9691     O130-H132=0.9797     
H131-O130=0.9691     H132-O130=0.9797     O133-H134=0.9813     O133-H135=0.9808     H134-O133=0.9813     H135-O133=0.9808     
O136-H137=0.9800     O136-H138=0.9736     H137-O136=0.9800     H138-O136=0.9736     O139-H140=0.9650     O139-H141=0.9914     
H140-O139=0.9650     H141-O139=0.9914     O142-H143=0.9774     O142-H144=0.9674     H143-O142=0.9774     H144-O142=0.9674     
O145-H146=0.9733     O145-H147=0.9730     H146-O145=0.9733     H147-O145=0.9730     O148-H149=0.9823     O148-H150=0.9742     
H149-O148=0.9823     H150-O148=0.9742     O151-H152=0.9685     O151-H153=0.9719     H152-O151=0.9685     H153-O151=0.9719     
O154-H155=0.9804     O154-H156=0.9617     H155-O154=0.9804     H156-O154=0.9617     O157-H158=0.9711     O157-H159=0.9768     
H158-O157=0.9711     H159-O157=0.9768     O160-H161=0.9707     O160-H162=0.9665     H161-O160=0.9707     H162-O160=0.9665     
O163-H164=0.9633     O163-H165=0.9770     H164-O163=0.9633     H165-O163=0.9770     O166-H167=0.9713     O166-H168=0.9635     
H167-O166=0.9713     H168-O166=0.9635     O169-H170=0.9667     O169-H171=0.9671     H170-O169=0.9667     H171-O169=0.9671     
O172-H173=0.9851     O172-H174=0.9633     H173-O172=0.9851     H174-O172=0.9633     O175-H176=0.9689     O175-H177=0.9813     
H176-O175=0.9689     H177-O175=0.9813     O178-H179=0.9746     O178-H180=0.9678     H179-O178=0.9746     H180-O178=0.9678     
O181-H182=0.9714     O181-H183=0.9675     H182-O181=0.9714     H183-O181=0.9675     O184-H185=0.9724     O184-H186=0.9723     
H185-O184=0.9724     H186-O184=0.9723     O187-H188=0.9672     O187-H189=0.9772     H188-O187=0.9672     H189-O187=0.9772     
O190-H191=0.9812     O190-H192=0.9893     H191-O190=0.9812     H192-O190=0.9893     O193-H194=0.9895     O193-H195=0.9830     
H194-O193=0.9895     H195-O193=0.9830     O196-H197=0.9781     O196-H198=0.9672     H197-O196=0.9781     H198-O196=0.9672     
O199-H200=0.9743     O199-H201=0.9848     H200-O199=0.9743     H201-O199=0.9848     O202-H203=0.9650     O202-H204=0.9757     
H203-O202=0.9650     H204-O202=0.9757     O205-H206=0.9564     O205-H207=0.9978     H206-O205=0.9564     H207-O205=0.9978     
O208-H209=0.9718     O208-H210=0.9825     H209-O208=0.9718     H210-O208=0.9825     O211-H212=0.9669     O211-H213=0.9783     
H212-O211=0.9669     H213-O211=0.9783     O214-H215=0.9659     O214-H216=0.9745     H215-O214=0.9659     H216-O214=0.9745     
O217-H218=0.9808     O217-H219=0.9670     H218-O217=0.9808     H219-O217=0.9670     O220-H221=0.9784     O220-H222=0.9767     
H221-O220=0.9784     H222-O220=0.9767     O223-H224=0.9615     O223-H225=0.9811     H224-O223=0.9615     H225-O223=0.9811     
O226-H227=0.9664     O226-H228=0.9762     H227-O226=0.9664     H228-O226=0.9762     O229-H230=0.9775     O229-H231=0.9588     
H230-O229=0.9775     H231-O229=0.9588     O232-H233=0.9823     O232-H234=0.9705     H233-O232=0.9823     H234-O232=0.9705     
O235-H236=0.9724     O235-H237=0.9752     H236-O235=0.9724     H237-O235=0.9752     O238-H239=0.9876     O238-H240=0.9737     
H239-O238=0.9876     H240-O238=0.9737     O241-H242=0.9667     O241-H243=0.9802     H242-O241=0.9667     H243-O241=0.9802     
O244-H245=0.9558     O244-H246=0.9916     H245-O244=0.9558     H246-O244=0.9916     O247-H248=0.9702     O247-H249=0.9732     
H248-O247=0.9702     H249-O247=0.9732     O250-H251=0.9779     O250-H252=0.9743     H251-O250=0.9779     H252-O250=0.9743     
O253-H254=0.9846     O253-H255=0.9755     H254-O253=0.9846     H255-O253=0.9755     O256-H257=0.9647     O256-H258=0.9753     
H257-O256=0.9647     H258-O256=0.9753     O259-H260=0.9742     O259-H261=0.9691     H260-O259=0.9742     H261-O259=0.9691     
O262-H263=0.9709     O262-H264=0.9674     H263-O262=0.9709     H264-O262=0.9674     O265-H266=0.9936     O265-H267=0.9566     
H266-O265=0.9936     H267-O265=0.9566     O268-H269=0.9762     O268-H270=0.9774     H269-O268=0.9762     H270-O268=0.9774     
O271-H272=0.9683     O271-H273=0.9818     H272-O271=0.9683     H273-O271=0.9818     O274-H275=0.9761     O274-H276=0.9772     
H275-O274=0.9761     H276-O274=0.9772     O277-H278=0.9657     O277-H279=0.9671     H278-O277=0.9657     H279-O277=0.9671     
O280-H281=0.9676     O280-H282=0.9680     H281-O280=0.9676     H282-O280=0.9680     O283-H284=0.9891     O283-H285=0.9705     
H284-O283=0.9891     H285-O283=0.9705     O286-H287=0.9945     O286-H288=0.9735     H287-O286=0.9945     H288-O286=0.9735     
O289-H290=0.9609     O289-H291=0.9767     H290-O289=0.9609     H291-O289=0.9767     O292-H293=0.9724     O292-H294=0.9682     
H293-O292=0.9724     H294-O292=0.9682     O295-H296=0.9745     O295-H297=0.9688     H296-O295=0.9745     H297-O295=0.9688     
O298-H299=0.9674     O298-H300=0.9845     H299-O298=0.9674     H300-O298=0.9845     O301-H302=0.9581     O301-H303=1.0060     
H302-O301=0.9581     H303-O301=1.0060     O304-H305=0.9789     O304-H306=0.9649     H305-O304=0.9789     H306-O304=0.9649     
O307-H308=0.9842     O307-H309=0.9758     H308-O307=0.9842     H309-O307=0.9758     O310-H311=0.9717     O310-H312=0.9778     
H311-O310=0.9717     H312-O310=0.9778     O313-H314=0.9656     O313-H315=0.9722     H314-O313=0.9656     H315-O313=0.9722     
O316-H317=0.9721     O316-H318=0.9719     H317-O316=0.9721     H318-O316=0.9719     O319-H320=0.9679     O319-H321=0.9809     
H320-O319=0.9679     H321-O319=0.9809     O322-H323=0.9668     O322-H324=0.9770     H323-O322=0.9668     H324-O322=0.9770     
O325-H326=0.9754     O325-H327=0.9775     H326-O325=0.9754     H327-O325=0.9775     O328-H329=0.9626     O328-H330=0.9839     
H329-O328=0.9626     H330-O328=0.9839     O331-H332=0.9571     O331-H333=0.9955     H332-O331=0.9571     H333-O331=0.9955     
[...]
   160   8 o      161   1 h                                       0.9706761
   160   8 o      162   1 h                                       0.9665218
   163   8 o      164   1 h                                       0.9632983
   163   8 o      165   1 h                                       0.9770229
   166   8 o      167   1 h                                       0.9712761
   166   8 o      168   1 h                                       0.9635086
   169   8 o      170   1 h                                       0.9667338
   169   8 o      171   1 h                                       0.9670975
   172   8 o      173   1 h                                       0.9850783
   172   8 o      174   1 h                                       0.9633331
   175   8 o      176   1 h                                       0.9689226
   175   8 o      177   1 h                                       0.9813368
   178   8 o      179   1 h                                       0.9745752
   178   8 o      180   1 h                                       0.9677934
   181   8 o      182   1 h                                       0.9714083
   181   8 o      183   1 h                                       0.9674879
   184   8 o      185   1 h                                       0.9723502
   184   8 o      186   1 h                                       0.9722896
   187   8 o      188   1 h                                       0.9671505
   187   8 o      189   1 h                                       0.9771867
   190   8 o      191   1 h                                       0.9811736
   190   8 o      192   1 h                                       0.9893229
   193   8 o      194   1 h                                       0.9895389
   193   8 o      195   1 h                                       0.9830429
   196   8 o      197   1 h                                       0.9781341
   196   8 o      198   1 h                                       0.9672040
   199   8 o      200   1 h                                       0.9742637
   199   8 o      201   1 h                                       0.9847887
   202   8 o      203   1 h                                       0.9650345
   202   8 o      204   1 h                                       0.9756761
   205   8 o      206   1 h                                       0.9563714
   205   8 o      207   1 h                                       0.9977754
   208   8 o      209   1 h                                       0.9718029
   208   8 o      210   1 h                                       0.9825204
   211   8 o      212   1 h                                       0.9668709
   211   8 o      213   1 h                                       0.9783183
   214   8 o      215   1 h                                       0.9659374
   214   8 o      216   1 h                                       0.9744954
   217   8 o      218   1 h                                       0.9807663
   217   8 o      219   1 h                                       0.9670205
   220   8 o      221   1 h                                       0.9783800
   220   8 o      222   1 h                                       0.9767489
   223   8 o      224   1 h                                       0.9614510
   223   8 o      225   1 h                                       0.9810905
   226   8 o      227   1 h                                       0.9663595
   226   8 o      228   1 h                                       0.9761905
   229   8 o      230   1 h                                       0.9775416
   229   8 o      231   1 h                                       0.9587602
   232   8 o      233   1 h                                       0.9823023
   232   8 o      234   1 h                                       0.9705207
   235   8 o      236   1 h                                       0.9724105
   235   8 o      237   1 h                                       0.9752283
   238   8 o      239   1 h                                       0.9875696
   238   8 o      240   1 h                                       0.9736539
   241   8 o      242   1 h                                       0.9666539
   241   8 o      243   1 h                                       0.9801726
   244   8 o      245   1 h                                       0.9557922
   244   8 o      246   1 h                                       0.9915724
   247   8 o      248   1 h                                       0.9702434
   247   8 o      249   1 h                                       0.9731828
   250   8 o      251   1 h                                       0.9779089
   250   8 o      252   1 h                                       0.9742951
   253   8 o      254   1 h                                       0.9846473
   253   8 o      255   1 h                                       0.9754562
   256   8 o      257   1 h                                       0.9646734
   256   8 o      258   1 h                                       0.9752587
   259   8 o      260   1 h                                       0.9742399
   259   8 o      261   1 h                                       0.9690674
   262   8 o      263   1 h                                       0.9708952
   262   8 o      264   1 h                                       0.9673793
   265   8 o      266   1 h                                       0.9936402
   265   8 o      267   1 h                                       0.9565691
   268   8 o      269   1 h                                       0.9761932
   268   8 o      270   1 h                                       0.9773877
   271   8 o      272   1 h                                       0.9682951
   271   8 o      273   1 h                                       0.9817888
   274   8 o      275   1 h                                       0.9761264
   274   8 o      276   1 h                                       0.9771553
   277   8 o      278   1 h                                       0.9657117
   277   8 o      279   1 h                                       0.9671025
   280   8 o      281   1 h                                       0.9676170
   280   8 o      282   1 h                                       0.9680457
   283   8 o      284   1 h                                       0.9891490
   283   8 o      285   1 h                                       0.9704814
   286   8 o      287   1 h                                       0.9945054
   286   8 o      288   1 h                                       0.9735025
   289   8 o      290   1 h                                       0.9608755
   289   8 o      291   1 h                                       0.9767261
   292   8 o      293   1 h                                       0.9723590
   292   8 o      294   1 h                                       0.9681780
   295   8 o      296   1 h                                       0.9745293
   295   8 o      297   1 h                                       0.9687694
   298   8 o      299   1 h                                       0.9674217
   298   8 o      300   1 h                                       0.9845312
   301   8 o      302   1 h                                       0.9580883
   304   8 o      305   1 h                                       0.9789130
   304   8 o      306   1 h                                       0.9648504
   307   8 o      308   1 h                                       0.9842185
   307   8 o      309   1 h                                       0.9758349
   310   8 o      311   1 h                                       0.9716593
   310   8 o      312   1 h                                       0.9777839
   313   8 o      314   1 h                                       0.9656332
   313   8 o      315   1 h                                       0.9721626
   316   8 o      317   1 h                                       0.9720904
   316   8 o      318   1 h                                       0.9719493
   319   8 o      320   1 h                                       0.9678839
   319   8 o      321   1 h                                       0.9808752
   322   8 o      323   1 h                                       0.9668448
   322   8 o      324   1 h                                       0.9769999
   325   8 o      326   1 h                                       0.9754369
   325   8 o      327   1 h                                       0.9774777
   328   8 o      329   1 h                                       0.9625737
   328   8 o      330   1 h                                       0.9838784
   331   8 o      332   1 h                                       0.9570698
   331   8 o      333   1 h                                       0.9954589
   334   8 o      335   1 h                                       0.9814512
   334   8 o      336   1 h                                       0.9567424
   337   8 o      338   1 h                                       0.9621248
   337   8 o      339   1 h                                       0.9778147
   340   8 o      341   1 h                                       0.9745204
   340   8 o      342   1 h                                       0.9836584
   343   8 o      344   1 h                                       0.9668974
   343   8 o      345   1 h                                       0.9797071
   346   8 o      347   1 h                                       0.9696824
   346   8 o      348   1 h                                       0.9644718
   349   8 o      350   1 h                                       0.9835895
   349   8 o      351   1 h                                       0.9713607
   352   8 o      353   1 h                                       0.9787969
   352   8 o      354   1 h                                       0.9700317
   355   8 o      356   1 h                                       0.9831159
   355   8 o      357   1 h                                       0.9677790
   358   8 o      359   1 h                                       0.9563506
   358   8 o      360   1 h                                       0.9964325
   361   8 o      362   1 h                                       0.9998428 (max)
   361   8 o      363   1 h                                       0.9727067
   364   8 o      365   1 h                                       0.9922947
   364   8 o      366   1 h                                       0.9563196
   367   8 o      368   1 h                                       0.9683335
   367   8 o      369   1 h                                       0.9909281
   370   8 o      371   1 h                                       0.9839198
   370   8 o      372   1 h                                       0.9752134
   373   8 o      374   1 h                                       0.9927521
   373   8 o      375   1 h                                       0.9643977
   376   8 o      377   1 h                                       0.9982076
   376   8 o      378   1 h                                       0.9574216
   379   8 o      380   1 h                                       0.9584572
   379   8 o      381   1 h                                       0.9809375
   382   8 o      383   1 h                                       0.9716482
   382   8 o      384   1 h                                       0.9857880
   385   8 o      386   1 h                                       0.9809865
   385   8 o      387   1 h                                       0.9748729
   388   8 o      389   1 h                                       0.9733363
   388   8 o      390   1 h                                       0.9726914
   391   8 o      392   1 h                                       0.9624169
   391   8 o      393   1 h                                       0.9852570
   394   8 o      395   1 h                                       0.9814331
   394   8 o      396   1 h                                       0.9710950
   397   8 o      398   1 h                                       0.9633522
   397   8 o      399   1 h                                       0.9686669
   400   8 o      401   1 h                                       0.9652796
   400   8 o      402   1 h                                       0.9810212
   403   8 o      404   1 h                                       0.9637842
   403   8 o      405   1 h                                       0.9732117
   406   8 o      407   1 h                                       0.9716094
   406   8 o      408   1 h                                       0.9632438
   409   8 o      410   1 h                                       0.9694717
   409   8 o      411   1 h                                       0.9675316
   412   8 o      413   1 h                                       0.9917088
   412   8 o      414   1 h                                       0.9568321
   415   8 o      416   1 h                                       0.9714751
   415   8 o      417   1 h                                       0.9817211
   418   8 o      419   1 h                                       0.9682349
   418   8 o      420   1 h                                       0.9675162
   421   8 o      422   1 h                                       0.9903483
   421   8 o      423   1 h                                       0.9567760
   424   8 o      425   1 h                                       0.9808332
   424   8 o      426   1 h                                       0.9838889
   427   8 o      428   1 h                                       0.9732330
   427   8 o      429   1 h                                       0.9758078
   430   8 o      431   1 h                                       0.9756548
   430   8 o      432   1 h                                       0.9866196
   433   8 o      434   1 h                                       0.9692661
   433   8 o      435   1 h                                       0.9798601
   436   8 o      437   1 h                                       0.9785760
   436   8 o      438   1 h                                       0.9710592
   439   8 o      440   1 h                                       0.9587384
   439   8 o      441   1 h                                       0.9756756
   442   8 o      443   1 h                                       0.9643696
   442   8 o      444   1 h                                       0.9806621
   445   8 o      446   1 h                                       0.9595445
   445   8 o      447   1 h                                       0.9802740
   448   8 o      449   1 h                                       0.9765055
   448   8 o      450   1 h                                       0.9807938
   451   8 o      452   1 h                                       0.9600291
   451   8 o      453   1 h                                       0.9803380
   454   8 o      455   1 h                                       0.9763152
   454   8 o      456   1 h                                       0.9715751
   457   8 o      458   1 h                                       0.9668311
   457   8 o      459   1 h                                       0.9660656
   460   8 o      461   1 h                                       0.9756078
   460   8 o      462   1 h                                       0.9823061
   463   8 o      464   1 h                                       0.9676185
   463   8 o      465   1 h                                       0.9767266
   466   8 o      467   1 h                                       0.9673838
   466   8 o      468   1 h                                       0.9660264
   469   8 o      470   1 h                                       0.9669423
   469   8 o      471   1 h                                       0.9699161
   472   8 o      473   1 h                                       0.9693676
   472   8 o      474   1 h                                       0.9752284
   475   8 o      476   1 h                                       0.9712051
   475   8 o      477   1 h                                       0.9583932
   478   8 o      479   1 h                                       0.9656409
   478   8 o      480   1 h                                       0.9800172
   481   8 o      482   1 h                                       0.9644729
   481   8 o      483   1 h                                       0.9872874
   484   8 o      485   1 h                                       0.9817319
   484   8 o      486   1 h                                       0.9803174
   487   8 o      488   1 h                                       0.9697502
   487   8 o      489   1 h                                       0.9763709
   490   8 o      491   1 h                                       0.9827136
   490   8 o      492   1 h                                       0.9779412
   493   8 o      494   1 h                                       0.9646270
   493   8 o      495   1 h                                       0.9804594
   496   8 o      497   1 h                                       0.9718984
   496   8 o      498   1 h                                       0.9676769
   499   8 o      500   1 h                                       0.9726124
   499   8 o      501   1 h                                       0.9696116
   502   8 o      503   1 h                                       0.9730203
   502   8 o      504   1 h                                       0.9702393
   505   8 o      506   1 h                                       0.9672242
   505   8 o      507   1 h                                       0.9780814
   508   8 o      509   1 h                                       0.9817386
   508   8 o      510   1 h                                       0.9856674
   511   8 o      512   1 h                                       0.9694534
   511   8 o      513   1 h                                       0.9613004
   514   8 o      515   1 h                                       0.9811974
   514   8 o      516   1 h                                       0.9578737
   517   8 o      518   1 h                                       0.9755770
   517   8 o      519   1 h                                       0.9664011
   520   8 o      521   1 h                                       0.9859299
   520   8 o      522   1 h                                       0.9893874
   523   8 o      524   1 h                                       0.9584480
   523   8 o      525   1 h                                       0.9893022
   526   8 o      527   1 h                                       0.9640835
   526   8 o      528   1 h                                       0.9813923
   529   8 o      530   1 h                                       0.9611539
   529   8 o      531   1 h                                       0.9610873

 * 1 distinct bonds (by element types)

   Z      Z             #   av. dist./Å        max./Å        min./Å
   1 H    8 O         352     0.9738271     0.9998428     0.9557162


optimized geometry written to: xtbopt.coord


           -------------------------------------------------
          | TOTAL ENERGY             -901.187605966584 Eh   |
          | GRADIENT NORM               0.009033278204 Eh/α |
          | HOMO-LUMO GAP               6.229707296384 eV   |
           -------------------------------------------------

------------------------------------------------------------------------
 * finished run on 2022/11/17 at 06:50:34.488     
------------------------------------------------------------------------
 total:
 * wall-time:     0 d,  0 h,  1 min, 46.505 sec
 *  cpu-time:     0 d,  0 h,  2 min, 45.306 sec
 * ratio c/w:     1.552 speedup
 SCF:
 * wall-time:     0 d,  0 h,  0 min,  7.459 sec
 *  cpu-time:     0 d,  0 h,  0 min, 12.211 sec
 * ratio c/w:     1.637 speedup
 ANC optimizer:
 * wall-time:     0 d,  0 h,  1 min, 38.497 sec
 *  cpu-time:     0 d,  0 h,  2 min, 32.056 sec
 * ratio c/w:     1.544 speedup

