      -----------------------------------------------------------      
     |                   =====================                   |     
     |                           x T B                           |     
     |                   =====================                   |     
     |                         S. Grimme                         |     
     |          Mulliken Center for Theoretical Chemistry        |     
     |                    University of Bonn                     |     
      -----------------------------------------------------------      

   * xtb version 6.5.1 (579679a) compiled by 'ehlert@majestix' on 2022-07-11

   xtb is free software: you can redistribute it and/or modify it under
   the terms of the GNU Lesser General Public License as published by
   the Free Software Foundation, either version 3 of the License, or
   (at your option) any later version.
   
   xtb is distributed in the hope that it will be useful,
   but WITHOUT ANY WARRANTY; without even the implied warranty of
   MERCHANTABILITY or FITNESS FOR A PARTICULAR PURPOSE.  See the
   GNU Lesser General Public License for more details.
   
   Cite this work as:
   * C. Bannwarth, E. Caldeweyher, S. Ehlert, A. Hansen, P. Pracht,
     J. Seibert, S. Spicher, S. Grimme, WIREs Comput. Mol. Sci., 2020, 11,
     e01493. DOI: 10.1002/wcms.1493
   
   for GFN2-xTB:
   * C. Bannwarth, S. Ehlert and S. Grimme., J. Chem. Theory Comput., 2019,
     15, 1652-1671. DOI: 10.1021/acs.jctc.8b01176
   for GFN1-xTB:
   * S. Grimme, C. Bannwarth, P. Shushkov, J. Chem. Theory Comput., 2017,
     13, 1989-2009. DOI: 10.1021/acs.jctc.7b00118
   for GFN0-xTB:
   * P. Pracht, E. Caldeweyher, S. Ehlert, S. Grimme, ChemRxiv, 2019, preprint.
     DOI: 10.26434/chemrxiv.8326202.v1
   for GFN-FF:
   * S. Spicher and S. Grimme, Angew. Chem. Int. Ed., 2020, 59, 15665-15673.
     DOI: 10.1002/anie.202004239
   
   for ALPB and GBSA implicit solvation:
   * S. Ehlert, M. Stahn, S. Spicher, S. Grimme, J. Chem. Theory Comput.,
     2021, 17, 4250-4261. DOI: 10.1021/acs.jctc.1c00471
   
   for DFT-D4:
   * E. Caldeweyher, C. Bannwarth and S. Grimme, J. Chem. Phys., 2017,
     147, 034112. DOI: 10.1063/1.4993215
   * E. Caldeweyher, S. Ehlert, A. Hansen, H. Neugebauer, S. Spicher,
     C. Bannwarth and S. Grimme, J. Chem. Phys., 2019, 150, 154122.
     DOI: 10.1063/1.5090222
   * E. Caldeweyher, J.-M. Mewes, S. Ehlert and S. Grimme, Phys. Chem. Chem. Phys.
     2020, 22, 8499-8512. DOI: 10.1039/D0CP00502A
   
   for sTDA-xTB:
   * S. Grimme and C. Bannwarth, J. Chem. Phys., 2016, 145, 054103.
     DOI: 10.1063/1.4959605
   
   in the mass-spec context:
   * V. Asgeirsson, C. Bauer and S. Grimme, Chem. Sci., 2017, 8, 4879.
     DOI: 10.1039/c7sc00601b
   * J. Koopman and S. Grimme, ACS Omega 2019, 4, 12, 15120-15133.
     DOI: 10.1021/acsomega.9b02011
   
   for metadynamics refer to:
   * S. Grimme, J. Chem. Theory Comput., 2019, 155, 2847-2862
     DOI: 10.1021/acs.jctc.9b00143
   
   for SPH calculations refer to:
   * S. Spicher and S. Grimme, J. Chem. Theory Comput., 2021, 17, 1701-1714
     DOI: 10.1021/acs.jctc.0c01306
   
   with help from (in alphabetical order)
   P. Atkinson, C. Bannwarth, F. Bohle, G. Brandenburg, E. Caldeweyher
   M. Checinski, S. Dohm, S. Ehlert, S. Ehrlich, I. Gerasimov, C. Hölzer
   A. Katbashev, J. Koopman, C. Lavigne, S. Lehtola, F. März, M. Müller,
   F. Musil, H. Neugebauer, J. Pisarek, C. Plett, P. Pracht, F. Pultar,
   J. Seibert, P. Shushkov, S. Spicher, M. Stahn, M. Steiner, T. Strunk,
   J. Stückrath, T. Rose, and J. Unsleber
   
 * started run on 2022/11/17 at 06:54:59.737     

           -------------------------------------------------
          |                Calculation Setup                |
           -------------------------------------------------

          program call               : xtb solvent_cluster.coord --gfn2 --sp --lmo --chrg 0
          hostname                   : cn0363
          coordinate file            : solvent_cluster.coord
          omp threads                :                     2

   ID    Z sym.   atoms
    1    8 o      1, 4, 7, 10, 13, 16, 19, 22, 25, 28, 31, 34, 37, 40, 43,
                  46, 49, 52, 55, 58, 61, 64, 67, 70, 73, 76, 79, 82, 85, 88,
                  91, 94, 97, 100, 103, 106, 109, 112, 115, 118, 121, 124,
                  127, 130, 133, 136, 139, 142, 145, 148, 151, 154, 157, 160,
                  163, 166, 169, 172, 175, 178, 181, 184, 187, 190, 193, 196,
                  199, 202, 205, 208, 211, 214, 217, 220, 223, 226, 229, 232,
                  235, 238, 241, 244, 247, 250, 253, 256, 259, 262, 265, 268,
                  271, 274, 277, 280, 283, 286, 289, 292, 295, 298, 301, 304,
                  307, 310, 313, 316, 319, 322, 325, 328, 331, 334, 337, 340,
                  343, 346, 349, 352, 355, 358, 361, 364, 367, 370, 373, 376,
                  379, 382, 385, 388, 391, 394, 397, 400, 403, 406, 409, 412,
                  415, 418, 421, 424, 427, 430, 433, 436, 439, 442, 445, 448,
                  451, 454, 457, 460, 463, 466, 469, 472, 475, 478, 481, 484,
                  487, 490, 493, 496, 499, 502, 505, 508, 511, 514, 517, 520,
                  523, 526, 529
    2    1 h      2, 3, 5, 6, 8, 9, 11, 12, 14, 15, 17, 18, 20, 21, 23, 24,
                  26, 27, 29, 30, 32, 33, 35, 36, 38, 39, 41, 42, 44, 45, 47,
                  48, 50, 51, 53, 54, 56, 57, 59, 60, 62, 63, 65, 66, 68, 69,
                  71, 72, 74, 75, 77, 78, 80, 81, 83, 84, 86, 87, 89, 90, 92,
                  93, 95, 96, 98, 99, 101, 102, 104, 105, 107, 108, 110, 111,
                  113, 114, 116, 117, 119, 120, 122, 123, 125, 126, 128, 129,
                  131, 132, 134, 135, 137, 138, 140, 141, 143, 144, 146, 147,
                  149, 150, 152, 153, 155, 156, 158, 159, 161, 162, 164, 165,
                  167, 168, 170, 171, 173, 174, 176, 177, 179, 180, 182, 183,
                  185, 186, 188, 189, 191, 192, 194, 195, 197, 198, 200, 201,
                  203, 204, 206, 207, 209, 210, 212, 213, 215, 216, 218, 219,
                  221, 222, 224, 225, 227, 228, 230, 231, 233, 234, 236, 237,
                  239, 240, 242, 243, 245, 246, 248, 249, 251, 252, 254, 255,
                  257, 258, 260, 261, 263, 264, 266, 267, 269, 270, 272, 273,
                  275, 276, 278, 279, 281, 282, 284, 285, 287, 288, 290, 291,
                  293, 294, 296, 297, 299, 300, 302, 303, 305, 306, 308, 309,
                  311, 312, 314, 315, 317, 318, 320, 321, 323, 324, 326, 327,
                  329, 330, 332, 333, 335, 336, 338, 339, 341, 342, 344, 345,
                  347, 348, 350, 351, 353, 354, 356, 357, 359, 360, 362, 363,
                  365, 366, 368, 369, 371, 372, 374, 375, 377, 378, 380, 381,
                  383, 384, 386, 387, 389, 390, 392, 393, 395, 396, 398, 399,
                  401, 402, 404, 405, 407, 408, 410, 411, 413, 414, 416, 417,
                  419, 420, 422, 423, 425, 426, 428, 429, 431, 432, 434, 435,
                  437, 438, 440, 441, 443, 444, 446, 447, 449, 450, 452, 453,
                  455, 456, 458, 459, 461, 462, 464, 465, 467, 468, 470, 471,
                  473, 474, 476, 477, 479, 480, 482, 483, 485, 486, 488, 489,
                  491, 492, 494, 495, 497, 498, 500, 501, 503, 504, 506, 507,
                  509, 510, 512, 513, 515, 516, 518, 519, 521, 522, 524, 525,
                  527, 528, 530, 531

molecular fragmentation (1/2 indicates fragments):
111222222222222222222222222222222222222222222222222222222222222222222222
222222222222222222222222222222222222222222222222222222222222222222222222
222222222222222222222222222222222222222222222222222222222222222222222222
222222222222222222222222222222222222222222222222222222222222222222222222
222222222222222222222222222222222222222222222222222222222222222222222222
222222222222222222222222222222222222222222222222222222222222222222222222
222222222222222222222222222222222222222222222222222222222222222222222222
222222222222222222222222222
# atoms in fragment 1/2:     3   528
 fragment masses (1/2) :       18.02     3170.69
CMA distance (Bohr)    :   5.821
constraining FC (au)   :  0.0500

           -------------------------------------------------
          |                 G F N 2 - x T B                 |
           -------------------------------------------------

        Reference                      10.1021/acs.jctc.8b01176
      * Hamiltonian:
        H0-scaling (s, p, d)           1.850000    2.230000    2.230000
        zeta-weighting                 0.500000
      * Dispersion:
        s8                             2.700000
        a1                             0.520000
        a2                             5.000000
        s9                             5.000000
      * Repulsion:
        kExp                           1.500000    1.000000
        rExp                           1.000000
      * Coulomb:
        alpha                          2.000000
        third order                    shell-resolved
        anisotropic                    true
        a3                             3.000000
        a5                             4.000000
        cn-shift                       1.200000
        cn-exp                         4.000000
        max-rad                        5.000000


          ...................................................
          :                      SETUP                      :
          :.................................................:
          :  # basis functions                1062          :
          :  # atomic orbitals                1062          :
          :  # shells                          708          :
          :  # electrons                      1416          :
          :  max. iterations                   250          :
          :  Hamiltonian                  GFN2-xTB          :
          :  restarted?                      false          :
          :  GBSA solvation                  false          :
          :  PC potential                    false          :
          :  electronic temp.          300.0000000     K    :
          :  accuracy                    1.0000000          :
          :  -> integral cutoff          0.2500000E+02      :
          :  -> integral neglect         0.1000000E-07      :
          :  -> SCF convergence          0.1000000E-05 Eh   :
          :  -> wf. convergence          0.1000000E-03 e    :
          :  Broyden damping             0.4000000          :
          ...................................................

 iter      E             dE          RMSdq      gap      omega  full diag
   1   -906.5410004 -0.906541E+03  0.406E+00    8.58       0.0  T
   2   -906.5990610 -0.580607E-01  0.241E+00    7.40       1.0  T
   3   -906.6214543 -0.223933E-01  0.213E-01    5.82       1.0  T
   4   -906.6254853 -0.403096E-02  0.468E-02    6.26       1.0  T
   5   -906.6255454 -0.601426E-04  0.312E-02    6.19       1.0  T
   6   -906.6255751 -0.296931E-04  0.446E-03    6.23       1.0  T
   7   -906.6255770 -0.187905E-05  0.765E-04    6.23       5.7  T
   8   -906.6255770 -0.224539E-07  0.386E-04    6.23      11.2  T
   9   -906.6255770 -0.102812E-07  0.620E-05    6.23      70.0  T

   *** convergence criteria satisfied after 9 iterations ***

         #    Occupation            Energy/Eh            Energy/eV
      -------------------------------------------------------------
         1        2.0000           -0.6957536             -18.9324
       ...           ...                  ...                  ...
       702        2.0000           -0.3565463              -9.7021
       703        2.0000           -0.3552042              -9.6656
       704        2.0000           -0.3548430              -9.6558
       705        2.0000           -0.3428584              -9.3297
       706        2.0000           -0.3375130              -9.1842
       707        2.0000           -0.3262421              -8.8775
       708        2.0000           -0.3125880              -8.5060 (HOMO)
       709                         -0.0836535              -2.2763 (LUMO)
       710                         -0.0655716              -1.7843
       711                         -0.0549624              -1.4956
       712                         -0.0526592              -1.4329
       713                         -0.0436020              -1.1865
       ...                                ...                  ...
      1062                          0.4889327              13.3045
      -------------------------------------------------------------
                  HL-Gap            0.2289345 Eh            6.2296 eV
             Fermi-level           -0.1981208 Eh           -5.3911 eV
 
 localization/xTB-IFF output generation
 averaging CT terms over            1  occ. levels
 averaging CT terms over            1  virt. levels
 dipole moment from electron density (au)
     X       Y       Z   
   1.0772  -1.3798   1.4146  total (Debye):    5.721
cpu  time for init local    0.38 s
wall time for init local    0.19 s
 doing rotations ...
 initialization of trafo matrix to unity

 converged in     16 iterations, threshold :   0.99996304D-06
 doing transformations ...
 lmo centers(Z=2) and atoms on file <lmocent.coord>
 LMO Fii/eV  ncent    charge center   contributions...
    1 LP   *******   0.00  -2.36403   3.51157  -7.31958   97O :  6.05   76O :  4.12  244O :  3.64  424O :  3.44   88O :  3.41   13O :  3.31  130O :  3.15  394O :  2.72  388O :  2.70  112O :  2.68  109O :  2.68  181O :  2.66
  454O :  2.64  376O :  2.55   79O :  2.50  343O :  2.50  307O :  2.49   67O :  2.48  505O :  2.40  385O :  2.36  247O :  2.28  463O :  2.27  118O :  2.21  235O :  2.16
    1O :  2.14  508O :  2.14  115O :  2.09  400O :  2.07  133O :  2.02  169O :  1.81   25O :  1.81   52O :  1.79  238O :  1.73  403O :  1.69  310O :  1.66   91O :  1.65
  214O :  1.62  253O :  1.60  295O :  1.60  415O :  1.59   31O :  1.59   34O :  1.58  529O :  1.52  421O :  1.51  448O :  1.47   55O :  1.47  466O :  1.45  172O :  1.43
  436O :  1.42  484O :  1.40  223O :  1.39  313O :  1.33  103O :  1.33  499O :  1.29  304O :  1.28   61O :  1.18  487O :  1.17  205O :  1.17  361O :  1.17  277O :  1.15
  175O :  1.14   64O :  1.11   85O :  1.08  217O :  1.08  139O :  1.06  187O :  1.03  478O :  1.02  322O :  1.01  283O :  1.00  520O :  0.99  160O :  0.98  427O :  0.98
  433O :  0.98  496O :  0.97  325O :  0.95  229O :  0.93  355O :  0.93  148O :  0.89  259O :  0.89  121O :  0.89  379O :  0.87   19O :  0.86  208O :  0.84  232O :  0.83
  370O :  0.83  412O :  0.82  358O :  0.82  460O :  0.81  256O :  0.81  397O :  0.80  298O :  0.79  151O :  0.79  406O :  0.78    7O :  0.78  199O :  0.78  442O :  0.77
  211O :  0.77  184O :  0.76   10O :  0.74  292O :  0.74  166O :  0.73  367O :  0.73   16O :  0.72   73O :  0.71  124O :  0.70  364O :  0.70  475O :  0.67  127O :  0.67
  523O :  0.66  349O :  0.65   94O :  0.65  241O :  0.64  418O :  0.63  319O :  0.62  265O :  0.60  331O :  0.59  163O :  0.58   28O :  0.58  178O :  0.56  445O :  0.55
  142O :  0.55  190O :  0.53  464H :  0.53  250O :  0.53   43O :  0.51  193O :  0.50  391O :  0.49  439O :  0.48   82O :  0.48  289O :  0.47  316O :  0.43  196O :  0.43
  346O :  0.41  157O :  0.41  526O :  0.39  517O :  0.39   37O :  0.39  301O :  0.39  220O :  0.38  100O :  0.37   86H :  0.35  200H :  0.35  236H :  0.34  136O :  0.34
   70O :  0.33  514O :  0.32  430O :  0.31  472O :  0.30  465H :  0.29  216H :  0.28   46O :  0.28  280O :  0.28  274O :  0.28  337O :  0.28   49O :  0.28   11H :  0.27
   90H :  0.27  119H :  0.26  240H :  0.25  530H :  0.25  202O :  0.24  469O :  0.24   57H :  0.24  314H :  0.23  226O :  0.22  352O :  0.22  271O :  0.22  481O :  0.21
  350H :  0.21  451O :  0.21   69H :  0.20  171H :  0.20  113H :  0.19  373O :  0.18  324H :  0.18  249H :  0.18  334O :  0.18  328O :  0.18  386H :  0.17  177H :  0.17
  224H :  0.17  144H :  0.17  125H :  0.17  233H :  0.16  286O :  0.16  409O :  0.16    2H :  0.16  290H :  0.15  308H :  0.15   89H :  0.15  305H :  0.14  154O :  0.14
  116H :  0.14   80H :  0.14  246H :  0.13   21H :  0.13   14H :  0.13  502O :  0.13  192H :  0.13   78H :  0.13  467H :  0.12  278H :  0.12  268O :  0.12  101H :  0.12
  423H :  0.12  287H :  0.12  110H :  0.11   51H :  0.11  372H :  0.11  114H :  0.11  407H :  0.11  106O :  0.11  476H :  0.11   75H :  0.10    4O :  0.10  186H :  0.10
  117H :  0.10   98H :  0.10  174H :  0.10  132H :  0.10  242H :  0.10  161H :  0.10   53H :  0.10  272H :  0.10   30H :  0.10  189H :  0.10  300H :  0.10   38H :  0.09
  262O :  0.09   87H :  0.09  493O :  0.09  296H :  0.09  294H :  0.09  416H :  0.09  105H :  0.09   15H :  0.09  392H :  0.09  321H :  0.09  389H :  0.09  306H :  0.09
  315H :  0.08  420H :  0.08  231H :  0.08  490O :  0.08  471H :  0.08  405H :  0.08  369H :  0.08  129H :  0.08   32H :  0.08  456H :  0.08  382O :  0.08  501H :  0.07
   58O :  0.07   81H :  0.07  134H :  0.07
    2 LP   *******   0.00   9.36317  -3.68955 -11.92763  244O :  6.16   76O :  3.55   97O :  3.06  424O :  2.97   88O :  2.94   13O :  2.86  130O :  2.71  394O :  2.35  388O :  2.33  112O :  2.31  109O :  2.31  181O :  2.30
  454O :  2.28  376O :  2.20   79O :  2.16  343O :  2.15  307O :  2.15   67O :  2.14  505O :  2.07  385O :  2.03  247O :  1.96  463O :  1.96  118O :  1.91  235O :  1.86
    1O :  1.85  508O :  1.85  115O :  1.80  400O :  1.78  133O :  1.75  169O :  1.56   25O :  1.56   52O :  1.55  238O :  1.47  403O :  1.46  310O :  1.43   91O :  1.41
  214O :  1.40  253O :  1.39  295O :  1.38  415O :  1.37   31O :  1.37   34O :  1.37  529O :  1.31  421O :  1.30  448O :  1.27   55O :  1.27  466O :  1.25  172O :  1.24
  436O :  1.22  484O :  1.21  223O :  1.20  313O :  1.15  103O :  1.15  499O :  1.11  304O :  1.11   61O :  1.02  487O :  1.01  205O :  1.01  361O :  1.01   64O :  1.01
  277O :  0.99  175O :  0.98   85O :  0.94  217O :  0.93  139O :  0.91  187O :  0.89  478O :  0.88  322O :  0.87  283O :  0.86  520O :  0.86  160O :  0.85  427O :  0.84
  433O :  0.84  496O :  0.83  325O :  0.82  229O :  0.80  355O :  0.80  148O :  0.77  259O :  0.77  121O :  0.77  379O :  0.76   19O :  0.74  208O :  0.73  232O :  0.72
  370O :  0.71  358O :  0.71  412O :  0.71  460O :  0.70  256O :  0.70  397O :  0.69  298O :  0.68  151O :  0.68  406O :  0.68    7O :  0.67  199O :  0.67  442O :  0.67
  211O :  0.66  184O :  0.65   10O :  0.64  292O :  0.64  166O :  0.63  367O :  0.63   16O :  0.62   73O :  0.61  124O :  0.61  364O :  0.60  475O :  0.58  127O :  0.58
  523O :  0.57  349O :  0.56   94O :  0.56  241O :  0.55  418O :  0.54  319O :  0.53  265O :  0.52  331O :  0.51  163O :  0.50   28O :  0.50  178O :  0.48  445O :  0.47
  142O :  0.47  190O :  0.46  464H :  0.46  250O :  0.45   43O :  0.44  193O :  0.43  391O :  0.43   82O :  0.42  439O :  0.41  289O :  0.41  316O :  0.37  196O :  0.37
  346O :  0.36  157O :  0.35  526O :  0.34   37O :  0.34  517O :  0.34  301O :  0.33  220O :  0.33  100O :  0.32   86H :  0.31  200H :  0.30  236H :  0.30  136O :  0.29
   70O :  0.29  514O :  0.28  430O :  0.27  472O :  0.26  465H :  0.25  216H :  0.25   49O :  0.25   46O :  0.24  280O :  0.24  274O :  0.24  337O :  0.24   11H :  0.24
   90H :  0.23  240H :  0.22  119H :  0.22  530H :  0.21  202O :  0.21  469O :  0.21   57H :  0.20  314H :  0.20  226O :  0.19  352O :  0.19  271O :  0.19  481O :  0.18
  350H :  0.18  451O :  0.18   69H :  0.18  171H :  0.17  113H :  0.16  373O :  0.16  324H :  0.15  249H :  0.15  334O :  0.15  328O :  0.15  386H :  0.15  177H :  0.15
  224H :  0.15  144H :  0.14  125H :  0.14  233H :  0.14  286O :  0.14   98H :  0.14  409O :  0.13    2H :  0.13  290H :  0.13  308H :  0.13   89H :  0.13  305H :  0.12
  154O :  0.12  116H :  0.12   80H :  0.12   21H :  0.11   14H :  0.11  502O :  0.11  192H :  0.11   78H :  0.11  467H :  0.10  246H :  0.10  278H :  0.10  268O :  0.10
  101H :  0.10  423H :  0.10   51H :  0.10  287H :  0.10  110H :  0.10  372H :  0.10  407H :  0.10  114H :  0.10  106O :  0.09  476H :  0.09   75H :  0.09    4O :  0.09
  174H :  0.09  186H :  0.09  117H :  0.09  132H :  0.09  242H :  0.08  161H :  0.08   53H :  0.08  272H :  0.08   30H :  0.08  189H :  0.08  300H :  0.08   38H :  0.08
  262O :  0.08   87H :  0.08  493O :  0.08  296H :  0.08  294H :  0.08  416H :  0.08  105H :  0.08   15H :  0.08  392H :  0.07  321H :  0.07  389H :  0.07  306H :  0.07
  315H :  0.07  420H :  0.07
    3 LP   *******   0.00  -3.55565   2.83707  11.60108  130O :  5.36   76O :  3.52  244O :  3.11   97O :  3.04  424O :  2.94   88O :  2.91   13O :  2.83  394O :  2.32  388O :  2.30  112O :  2.29  109O :  2.29  181O :  2.27
  454O :  2.26  376O :  2.18   79O :  2.14  343O :  2.13  307O :  2.13   67O :  2.12  505O :  2.05  385O :  2.01  247O :  1.95  463O :  1.94  118O :  1.89  235O :  1.84
    1O :  1.83  508O :  1.83  115O :  1.79  400O :  1.76  133O :  1.73  169O :  1.55   25O :  1.54   52O :  1.53  238O :  1.48  403O :  1.44  310O :  1.42   91O :  1.41
  214O :  1.39  253O :  1.37  295O :  1.37  415O :  1.36   31O :  1.36   34O :  1.35  529O :  1.30  421O :  1.29  448O :  1.26   55O :  1.25  466O :  1.24  172O :  1.22
  436O :  1.21  484O :  1.20  223O :  1.19  313O :  1.14  103O :  1.13  499O :  1.10  304O :  1.10   61O :  1.01  487O :  1.00  205O :  1.00  361O :  1.00   64O :  1.00
  277O :  0.98  175O :  0.98   85O :  0.93  217O :  0.92  139O :  0.91  187O :  0.88  478O :  0.87  322O :  0.86  283O :  0.85  520O :  0.85  427O :  0.84  433O :  0.84
  496O :  0.83  160O :  0.82  325O :  0.81  229O :  0.80  355O :  0.79  148O :  0.77  259O :  0.76  121O :  0.76  379O :  0.75   19O :  0.74  208O :  0.72  232O :  0.71
  370O :  0.71  412O :  0.70  358O :  0.70  460O :  0.70  256O :  0.69  397O :  0.68  298O :  0.68  151O :  0.68  406O :  0.67    7O :  0.67  199O :  0.66  442O :  0.66
  211O :  0.66  184O :  0.65   10O :  0.64  292O :  0.63  166O :  0.63  367O :  0.62   16O :  0.61   73O :  0.60  364O :  0.60  124O :  0.59  475O :  0.58  127O :  0.57
  523O :  0.56  349O :  0.56   94O :  0.55  241O :  0.55  418O :  0.54  319O :  0.53  265O :  0.51  331O :  0.50   28O :  0.49  163O :  0.49  178O :  0.48  445O :  0.47
  142O :  0.47  190O :  0.46  464H :  0.45  250O :  0.45   43O :  0.43  193O :  0.43  391O :  0.42   82O :  0.41  439O :  0.41  289O :  0.40  316O :  0.37  196O :  0.36
  346O :  0.35  157O :  0.35  526O :  0.34   37O :  0.33  517O :  0.33  301O :  0.33  220O :  0.33  100O :  0.32   86H :  0.30  200H :  0.30  236H :  0.30  136O :  0.29
   70O :  0.29  514O :  0.27  430O :  0.27  472O :  0.26  465H :  0.25  216H :  0.24   49O :  0.24   46O :  0.24  280O :  0.24  274O :  0.24  337O :  0.24   11H :  0.23
   90H :  0.23  119H :  0.22  240H :  0.21  530H :  0.21  202O :  0.21  469O :  0.20   57H :  0.20  314H :  0.19  226O :  0.19  352O :  0.19  271O :  0.19  481O :  0.18
  350H :  0.18  451O :  0.18   69H :  0.17  171H :  0.17  113H :  0.16  373O :  0.16  324H :  0.15  249H :  0.15  334O :  0.15  328O :  0.15  386H :  0.15  177H :  0.15
  224H :  0.14  144H :  0.14  233H :  0.14  125H :  0.14  286O :  0.14   98H :  0.13  409O :  0.13    2H :  0.13  290H :  0.13  308H :  0.13   89H :  0.13  305H :  0.12
  154O :  0.12  116H :  0.12   80H :  0.12  246H :  0.11   14H :  0.11  502O :  0.11  192H :  0.11   78H :  0.11   21H :  0.11  467H :  0.10  278H :  0.10  268O :  0.10
  101H :  0.10  423H :  0.10   51H :  0.10  287H :  0.10  110H :  0.10  372H :  0.10  114H :  0.09  407H :  0.09  106O :  0.09  476H :  0.09   75H :  0.09    4O :  0.09
  174H :  0.09  186H :  0.09  117H :  0.09  242H :  0.08   53H :  0.08  272H :  0.08   30H :  0.08  189H :  0.08  161H :  0.08  300H :  0.08   38H :  0.08  262O :  0.08
   87H :  0.08  493O :  0.08  296H :  0.08  105H :  0.08  294H :  0.08  416H :  0.08   15H :  0.08  392H :  0.07  321H :  0.07  389H :  0.07  306H :  0.07  315H :  0.07
  132H :  0.07
    4 LP   *******   0.00  14.26408   4.84694  -6.40843  424O :  5.37   76O :  3.22  244O :  2.85   97O :  2.78   88O :  2.67   13O :  2.59  130O :  2.46  394O :  2.13  388O :  2.11  112O :  2.10  109O :  2.10  181O :  2.08
  454O :  2.07  376O :  2.00   79O :  1.96  343O :  1.95  307O :  1.95   67O :  1.94  505O :  1.88  385O :  1.84  247O :  1.78  463O :  1.78  118O :  1.73  235O :  1.69
    1O :  1.68  508O :  1.67  115O :  1.64  400O :  1.62  133O :  1.58  169O :  1.42   25O :  1.41   52O :  1.40  238O :  1.35  403O :  1.32  310O :  1.30   91O :  1.29
  214O :  1.27  253O :  1.26  295O :  1.25  415O :  1.25   31O :  1.25   34O :  1.24  529O :  1.19  421O :  1.18  448O :  1.15   55O :  1.15  466O :  1.13  172O :  1.12
  436O :  1.11  223O :  1.09  484O :  1.09  313O :  1.04  103O :  1.04  499O :  1.01  304O :  1.01   61O :  0.92  487O :  0.92  205O :  0.92  361O :  0.92   64O :  0.91
  277O :  0.90  175O :  0.89   85O :  0.85  217O :  0.84  139O :  0.83  478O :  0.83  187O :  0.81  322O :  0.79  283O :  0.78  520O :  0.78  160O :  0.77  427O :  0.77
  433O :  0.77  496O :  0.76  325O :  0.74  229O :  0.73  355O :  0.73  148O :  0.70  259O :  0.70  121O :  0.70  379O :  0.69   19O :  0.68  208O :  0.66  232O :  0.65
  370O :  0.65  412O :  0.64  358O :  0.64  256O :  0.63  460O :  0.63  397O :  0.63  298O :  0.62  151O :  0.62  406O :  0.61    7O :  0.61  199O :  0.61  442O :  0.60
  211O :  0.60  184O :  0.59   10O :  0.58  292O :  0.58  166O :  0.57  367O :  0.57   16O :  0.56   73O :  0.55  124O :  0.55  364O :  0.55  475O :  0.53  127O :  0.52
  523O :  0.51  349O :  0.51   94O :  0.51  241O :  0.50  418O :  0.49  319O :  0.48  265O :  0.47  331O :  0.46  163O :  0.45   28O :  0.45  178O :  0.44  445O :  0.43
  142O :  0.43  190O :  0.42  464H :  0.41  250O :  0.41   43O :  0.40  193O :  0.39  391O :  0.39   82O :  0.38  439O :  0.37  289O :  0.37  316O :  0.34  196O :  0.33
  346O :  0.32  157O :  0.32  526O :  0.31   37O :  0.31  517O :  0.31  301O :  0.30  220O :  0.30  100O :  0.29   86H :  0.28  200H :  0.27  236H :  0.27  136O :  0.27
   70O :  0.26  514O :  0.25  430O :  0.24  472O :  0.24  465H :  0.23  216H :  0.22   49O :  0.22   46O :  0.22  280O :  0.22  274O :  0.22  337O :  0.22   11H :  0.21
   90H :  0.21  119H :  0.20  240H :  0.20  530H :  0.19  202O :  0.19  469O :  0.19   57H :  0.18  314H :  0.18  226O :  0.17  352O :  0.17  271O :  0.17  350H :  0.17
  481O :  0.17  451O :  0.16   69H :  0.16  171H :  0.15  113H :  0.15  373O :  0.14  324H :  0.14  249H :  0.14  334O :  0.14  328O :  0.14  386H :  0.14  177H :  0.13
  224H :  0.13  144H :  0.13  125H :  0.13  233H :  0.13  286O :  0.13   98H :  0.12  409O :  0.12    2H :  0.12  290H :  0.12  308H :  0.12   89H :  0.12  305H :  0.11
  154O :  0.11  116H :  0.11   80H :  0.11  246H :  0.10   21H :  0.10   14H :  0.10  502O :  0.10  192H :  0.10   78H :  0.10  467H :  0.09  278H :  0.09  268O :  0.09
  101H :  0.09  423H :  0.09   51H :  0.09  287H :  0.09  110H :  0.09  372H :  0.09  114H :  0.09  407H :  0.09  106O :  0.09  476H :  0.09   75H :  0.08    4O :  0.08
  117H :  0.08  174H :  0.08  186H :  0.08  132H :  0.08  242H :  0.08  161H :  0.08   53H :  0.08  272H :  0.08   30H :  0.08  189H :  0.08  300H :  0.07   38H :  0.07
  262O :  0.07   87H :  0.07  493O :  0.07  296H :  0.07
    5 LP   *******   0.00   5.67315  -6.16822  -0.81089   76O :  5.25  244O :  2.86   97O :  2.79  424O :  2.71   88O :  2.68   13O :  2.60  130O :  2.48  394O :  2.14  388O :  2.12  112O :  2.11  109O :  2.11  181O :  2.09
  454O :  2.08  376O :  2.01   79O :  1.97  343O :  1.96  307O :  1.96   67O :  1.95  505O :  1.89  385O :  1.85  463O :  1.79  247O :  1.78  118O :  1.74  235O :  1.70
    1O :  1.69  508O :  1.68  115O :  1.64  400O :  1.62  133O :  1.59  169O :  1.42   25O :  1.42   52O :  1.41  238O :  1.36  403O :  1.33  310O :  1.31   91O :  1.30
  214O :  1.28  253O :  1.26  295O :  1.26  415O :  1.25   31O :  1.25   34O :  1.25  529O :  1.20  421O :  1.19  448O :  1.16   55O :  1.15  466O :  1.14  172O :  1.13
  436O :  1.11  484O :  1.10  223O :  1.10  313O :  1.05  103O :  1.05  499O :  1.01  304O :  1.01   61O :  0.93  487O :  0.92  205O :  0.92  361O :  0.92   64O :  0.92
  277O :  0.91  175O :  0.90   85O :  0.85  217O :  0.85  139O :  0.83  187O :  0.81  478O :  0.80  322O :  0.79  283O :  0.79  520O :  0.78  160O :  0.77  433O :  0.77
  427O :  0.77  496O :  0.76  325O :  0.75  229O :  0.73  355O :  0.73  148O :  0.70  259O :  0.70  121O :  0.69  379O :  0.69   19O :  0.68  208O :  0.66  232O :  0.65
  370O :  0.65  412O :  0.64  358O :  0.64  460O :  0.64  256O :  0.63  397O :  0.63  298O :  0.62  151O :  0.62  199O :  0.62    7O :  0.62  406O :  0.62  442O :  0.61
  211O :  0.60  184O :  0.60  292O :  0.58  166O :  0.58  367O :  0.57   10O :  0.57   16O :  0.56   73O :  0.56  124O :  0.55  364O :  0.55  475O :  0.53  127O :  0.52
  523O :  0.52  349O :  0.51   94O :  0.51  241O :  0.51  418O :  0.50  319O :  0.49  265O :  0.47  331O :  0.46  163O :  0.45   28O :  0.45  178O :  0.44  445O :  0.43
  142O :  0.43  190O :  0.42  464H :  0.42  250O :  0.41   43O :  0.40  193O :  0.39  391O :  0.39   82O :  0.38  439O :  0.38  289O :  0.37  316O :  0.34  196O :  0.34
  346O :  0.32  157O :  0.32  526O :  0.31   37O :  0.31  517O :  0.31  301O :  0.31  220O :  0.30  100O :  0.29   86H :  0.28  200H :  0.28  236H :  0.27  136O :  0.27
   70O :  0.26  514O :  0.25  430O :  0.24  472O :  0.24  465H :  0.23  216H :  0.22   49O :  0.22   46O :  0.22  274O :  0.22  280O :  0.22  337O :  0.22   11H :  0.21
   90H :  0.21  119H :  0.20  240H :  0.20  530H :  0.19  202O :  0.19  469O :  0.19   57H :  0.19  314H :  0.18  226O :  0.18  352O :  0.17  271O :  0.17  481O :  0.17
  350H :  0.17  451O :  0.16   69H :  0.16  171H :  0.15  113H :  0.15  373O :  0.14  249H :  0.14  324H :  0.14  334O :  0.14  328O :  0.14  386H :  0.14  177H :  0.13
  224H :  0.13  144H :  0.13  125H :  0.13  233H :  0.13  286O :  0.13    2H :  0.13   98H :  0.12  409O :  0.12  290H :  0.12  308H :  0.12   89H :  0.12  305H :  0.11
  154O :  0.11   80H :  0.11  116H :  0.11  246H :  0.10   21H :  0.10   14H :  0.10  502O :  0.10  192H :  0.10   59H :  0.10  467H :  0.09  278H :  0.09  268O :  0.09
  423H :  0.09   51H :  0.09  287H :  0.09  101H :  0.09  110H :  0.09  372H :  0.09  114H :  0.09  106O :  0.09  407H :  0.09  476H :  0.09   78H :  0.08   75H :  0.08
    4O :  0.08  174H :  0.08  186H :  0.08  117H :  0.08  132H :  0.08  242H :  0.08   53H :  0.08  161H :  0.08  272H :  0.08   30H :  0.08  189H :  0.08  300H :  0.08
   38H :  0.07  262O :  0.07   87H :  0.07  493O :  0.07  296H :  0.07  294H :  0.07
    6 LP   *******   0.01   6.08944  -3.50148   6.76660  109O :  4.51   76O :  3.05  244O :  2.69   97O :  2.63  424O :  2.55   88O :  2.53   13O :  2.45  130O :  2.33  394O :  2.01  388O :  1.99  112O :  1.98  181O :  1.97
  454O :  1.96  376O :  1.89   79O :  1.85  343O :  1.85  307O :  1.84   67O :  1.83  385O :  1.74  505O :  1.74  247O :  1.68  463O :  1.68  118O :  1.64  235O :  1.60
    1O :  1.58  508O :  1.58  115O :  1.56  400O :  1.53  133O :  1.50  169O :  1.34   25O :  1.34   52O :  1.33  238O :  1.28  403O :  1.25  310O :  1.23   91O :  1.22
  214O :  1.20  253O :  1.19  295O :  1.19   31O :  1.18   34O :  1.17  415O :  1.15  529O :  1.12  421O :  1.12  448O :  1.09   55O :  1.09  466O :  1.07  172O :  1.06
  436O :  1.05  484O :  1.04  223O :  1.03  313O :  0.98  103O :  0.98  499O :  0.95  304O :  0.95   61O :  0.87  487O :  0.87  205O :  0.87  361O :  0.87   64O :  0.86
  277O :  0.85  175O :  0.84   85O :  0.80  217O :  0.80  139O :  0.78  187O :  0.76  478O :  0.75  322O :  0.75  283O :  0.74  520O :  0.73  160O :  0.73  427O :  0.72
  433O :  0.72  496O :  0.71  325O :  0.70  229O :  0.69  355O :  0.69  259O :  0.68  148O :  0.66  121O :  0.66  379O :  0.65   19O :  0.64  208O :  0.62  232O :  0.62
  370O :  0.61  412O :  0.60  358O :  0.60  460O :  0.60  256O :  0.60  397O :  0.59  298O :  0.59  151O :  0.59  406O :  0.58  199O :  0.58    7O :  0.58  442O :  0.57
  211O :  0.57  184O :  0.56   10O :  0.55  292O :  0.55  166O :  0.54  367O :  0.54   16O :  0.53   73O :  0.52  124O :  0.52  364O :  0.52  475O :  0.50  127O :  0.49
  523O :  0.49  349O :  0.48   94O :  0.48  241O :  0.48  418O :  0.47  319O :  0.46  265O :  0.44  331O :  0.44  163O :  0.43   28O :  0.43  178O :  0.41  445O :  0.41
  142O :  0.40  190O :  0.40  464H :  0.39  250O :  0.39   43O :  0.37  193O :  0.37  391O :  0.37   82O :  0.36  439O :  0.35  289O :  0.35  316O :  0.32  196O :  0.32
  346O :  0.30  157O :  0.30  526O :  0.29   37O :  0.29  517O :  0.29  301O :  0.29  220O :  0.28  100O :  0.27   86H :  0.26  200H :  0.26  236H :  0.25  136O :  0.25
   70O :  0.25  514O :  0.24  430O :  0.23  472O :  0.22  465H :  0.22  216H :  0.21   49O :  0.21   46O :  0.21  280O :  0.21  274O :  0.21  337O :  0.21   11H :  0.20
   90H :  0.20  119H :  0.19  240H :  0.19  530H :  0.18  202O :  0.18  469O :  0.18   57H :  0.17  314H :  0.17  226O :  0.17  352O :  0.16  271O :  0.16  481O :  0.16
  350H :  0.16  451O :  0.15   69H :  0.15  171H :  0.14  113H :  0.14  373O :  0.14  249H :  0.13  324H :  0.13  334O :  0.13  328O :  0.13  386H :  0.13  177H :  0.13
  224H :  0.12  144H :  0.12  125H :  0.12  233H :  0.12  286O :  0.12   98H :  0.12  409O :  0.12    2H :  0.11  290H :  0.11  308H :  0.11   89H :  0.11  305H :  0.10
  154O :  0.10  116H :  0.10   80H :  0.10  246H :  0.10   14H :  0.10  502O :  0.10   21H :  0.10  192H :  0.10   78H :  0.10  467H :  0.09  278H :  0.09  268O :  0.09
  101H :  0.09  423H :  0.09   51H :  0.09  287H :  0.09  372H :  0.08  114H :  0.08    4O :  0.08  407H :  0.08  106O :  0.08  476H :  0.08   75H :  0.08  117H :  0.07
  174H :  0.07  186H :  0.07  132H :  0.07  242H :  0.07  161H :  0.07   53H :  0.07  272H :  0.07   30H :  0.07  189H :  0.07  300H :  0.07
    7 LP   *******   0.01  -6.45576  -1.56817   8.95065   79O :  4.34   76O :  3.01  244O :  2.66   97O :  2.59  424O :  2.51   88O :  2.49   13O :  2.35  130O :  2.30  394O :  1.99  388O :  1.97  112O :  1.96  109O :  1.96
  181O :  1.94  454O :  1.93  376O :  1.86  343O :  1.82  307O :  1.82   67O :  1.81  505O :  1.75  385O :  1.72  247O :  1.66  463O :  1.66  118O :  1.61  235O :  1.58
    1O :  1.56  508O :  1.56  115O :  1.53  400O :  1.51  133O :  1.48  169O :  1.32   25O :  1.32   52O :  1.31  238O :  1.26  403O :  1.23  310O :  1.21   91O :  1.20
  214O :  1.18  253O :  1.17  295O :  1.17  415O :  1.16   31O :  1.16   34O :  1.16  529O :  1.11  421O :  1.10  448O :  1.07   55O :  1.07  466O :  1.06  172O :  1.05
  436O :  1.03  484O :  1.03  223O :  1.02  313O :  0.97  103O :  0.97  499O :  0.94  304O :  0.94  205O :  0.86   61O :  0.86  487O :  0.86  361O :  0.85   64O :  0.85
  277O :  0.84  175O :  0.83   85O :  0.79  217O :  0.79  139O :  0.77  187O :  0.75  478O :  0.74  322O :  0.74  283O :  0.73  520O :  0.73  160O :  0.72  427O :  0.71
  433O :  0.71  496O :  0.71  325O :  0.69  229O :  0.68  355O :  0.68  148O :  0.65  259O :  0.65  121O :  0.65  379O :  0.64   19O :  0.63  208O :  0.62  232O :  0.61
  370O :  0.60  412O :  0.60  358O :  0.60  460O :  0.59  256O :  0.59  397O :  0.58  298O :  0.58  151O :  0.58  406O :  0.57    7O :  0.57  199O :  0.57  442O :  0.56
  211O :  0.56  184O :  0.55   10O :  0.54  292O :  0.54  166O :  0.54  367O :  0.53   16O :  0.52   73O :  0.52  124O :  0.51  364O :  0.51  475O :  0.49  127O :  0.49
  523O :  0.48  349O :  0.47   94O :  0.47  241O :  0.47  418O :  0.46  319O :  0.45  265O :  0.44  331O :  0.43  163O :  0.42   28O :  0.42  178O :  0.41  445O :  0.40
  142O :  0.40  190O :  0.39  464H :  0.39  250O :  0.38   43O :  0.37  193O :  0.37  391O :  0.36   82O :  0.35  439O :  0.35  289O :  0.34  316O :  0.32  196O :  0.31
  346O :  0.30  157O :  0.30  526O :  0.29   37O :  0.29  517O :  0.29  301O :  0.28  220O :  0.28  100O :  0.27   86H :  0.26  200H :  0.26  236H :  0.25  136O :  0.25
   70O :  0.24  514O :  0.23  430O :  0.23  472O :  0.22  465H :  0.22   49O :  0.21   46O :  0.21  280O :  0.21  274O :  0.21  216H :  0.20  337O :  0.20   11H :  0.20
   90H :  0.20  119H :  0.19  240H :  0.18  530H :  0.18  202O :  0.18  469O :  0.17   57H :  0.17  314H :  0.17  226O :  0.16  352O :  0.16  271O :  0.16  481O :  0.16
  350H :  0.16  451O :  0.15   69H :  0.15  171H :  0.14  113H :  0.14  373O :  0.13  324H :  0.13  249H :  0.13  334O :  0.13  328O :  0.13  386H :  0.13  177H :  0.13
  224H :  0.12  144H :  0.12  125H :  0.12  233H :  0.12  286O :  0.12   98H :  0.11  409O :  0.11    2H :  0.11  290H :  0.11  308H :  0.11   89H :  0.11  305H :  0.10
  154O :  0.10  116H :  0.10   21H :  0.10  246H :  0.10   14H :  0.10  502O :  0.09  192H :  0.09   78H :  0.09  467H :  0.09  278H :  0.09  268O :  0.09  101H :  0.09
  423H :  0.08   51H :  0.08  287H :  0.08  110H :  0.08  372H :  0.08  114H :  0.08  407H :  0.08  106O :  0.08  476H :  0.08   75H :  0.08    4O :  0.08  161H :  0.08
   80H :  0.07  174H :  0.07  186H :  0.07  117H :  0.07  242H :  0.07   53H :  0.07   30H :  0.07  272H :  0.07  189H :  0.07
    8 LP   *******   0.01 -11.01322  -7.01456  -9.49752  463O :  3.57   76O :  2.96  244O :  2.61   97O :  2.55  424O :  2.47   88O :  2.45   13O :  2.38  130O :  2.26  394O :  1.94  388O :  1.94  112O :  1.92  109O :  1.92
  181O :  1.91  454O :  1.90  376O :  1.83   79O :  1.80  343O :  1.79  307O :  1.79   67O :  1.78  505O :  1.72  385O :  1.69  247O :  1.63  118O :  1.59  235O :  1.55
    1O :  1.54  508O :  1.54  115O :  1.50  400O :  1.49  133O :  1.45  169O :  1.30   25O :  1.30   52O :  1.29  464H :  1.28  238O :  1.24  403O :  1.21  310O :  1.19
   91O :  1.18  214O :  1.16  253O :  1.15  295O :  1.15   31O :  1.14  415O :  1.14   34O :  1.14  529O :  1.09  421O :  1.08  448O :  1.05   55O :  1.05  466O :  1.04
  172O :  1.03  436O :  1.02  484O :  1.01  223O :  1.00  313O :  0.95  103O :  0.95  499O :  0.93  304O :  0.92   61O :  0.85  487O :  0.84  205O :  0.84  361O :  0.84
   64O :  0.84  277O :  0.83  175O :  0.82   85O :  0.78  217O :  0.77  139O :  0.76  187O :  0.74  478O :  0.73  322O :  0.72  283O :  0.72  520O :  0.71  160O :  0.71
  427O :  0.70  433O :  0.70  496O :  0.69  325O :  0.68  229O :  0.67  355O :  0.67  148O :  0.64  259O :  0.64  121O :  0.64  379O :  0.63   19O :  0.62  208O :  0.61
  232O :  0.60  370O :  0.59  412O :  0.59  358O :  0.59  460O :  0.58  256O :  0.58  298O :  0.57  151O :  0.57  406O :  0.56    7O :  0.56  199O :  0.56  442O :  0.55
  211O :  0.55  184O :  0.54   10O :  0.53  292O :  0.53  166O :  0.53  367O :  0.52   16O :  0.51  397O :  0.51   73O :  0.51  124O :  0.50  364O :  0.50  475O :  0.48
  127O :  0.48  523O :  0.47  349O :  0.47   94O :  0.46  241O :  0.46  418O :  0.45  319O :  0.44  265O :  0.43  331O :  0.42  163O :  0.41   28O :  0.41  178O :  0.40
  445O :  0.39  142O :  0.39  190O :  0.38  250O :  0.38   43O :  0.36  193O :  0.36  391O :  0.35   82O :  0.35  439O :  0.34  289O :  0.34  316O :  0.31  196O :  0.31
  346O :  0.30  157O :  0.29  526O :  0.28   37O :  0.28  517O :  0.28  301O :  0.28  220O :  0.28  100O :  0.26   86H :  0.25  200H :  0.25  236H :  0.25  136O :  0.24
   70O :  0.24  514O :  0.23  430O :  0.22  472O :  0.22  216H :  0.20   49O :  0.20   46O :  0.20  280O :  0.20  274O :  0.20  337O :  0.20   11H :  0.20   90H :  0.19
  119H :  0.18  240H :  0.18  530H :  0.18  465H :  0.18  202O :  0.17  469O :  0.17   57H :  0.17  314H :  0.16  226O :  0.16  352O :  0.16  271O :  0.16  481O :  0.15
  350H :  0.15  451O :  0.15   69H :  0.15  171H :  0.14  113H :  0.13  373O :  0.13  324H :  0.13  249H :  0.13  334O :  0.13  328O :  0.13  386H :  0.12  177H :  0.12
  144H :  0.12  125H :  0.12  233H :  0.12  286O :  0.12   98H :  0.11  409O :  0.11    2H :  0.11  290H :  0.11  308H :  0.11  224H :  0.11   89H :  0.11  305H :  0.10
  154O :  0.10  116H :  0.10   80H :  0.10  246H :  0.10   21H :  0.09   14H :  0.09  502O :  0.09  192H :  0.09   78H :  0.09  467H :  0.09  278H :  0.09  268O :  0.08
  101H :  0.08  423H :  0.08   51H :  0.08  287H :  0.08  110H :  0.08  372H :  0.08  114H :  0.08  407H :  0.08  106O :  0.08  476H :  0.08    4O :  0.07   75H :  0.07
  174H :  0.07  186H :  0.07  117H :  0.07  132H :  0.07  242H :  0.07
    9 LP   *******   0.01  -6.19722  -1.81538   5.02093   13O :  4.54   76O :  2.92  244O :  2.58   97O :  2.52  424O :  2.44   88O :  2.42  130O :  2.23  394O :  1.93  112O :  1.90  109O :  1.90  181O :  1.89  388O :  1.89
  454O :  1.87  376O :  1.81  343O :  1.77  307O :  1.77   67O :  1.76   79O :  1.75  505O :  1.70  385O :  1.67  247O :  1.61  463O :  1.61  118O :  1.57  235O :  1.53
    1O :  1.52  508O :  1.52  115O :  1.48  400O :  1.46  133O :  1.43  169O :  1.28   25O :  1.28   52O :  1.27  238O :  1.23  403O :  1.20   91O :  1.17  310O :  1.17
  214O :  1.15  253O :  1.14  295O :  1.14  415O :  1.13   31O :  1.13   34O :  1.12  529O :  1.08  421O :  1.07  448O :  1.04   55O :  1.04  466O :  1.03  172O :  1.02
  436O :  1.00  484O :  1.00  223O :  0.99  103O :  0.94  313O :  0.94  499O :  0.91  304O :  0.91   61O :  0.84  487O :  0.83  205O :  0.83  361O :  0.83   64O :  0.83
  277O :  0.82  175O :  0.81   85O :  0.77  217O :  0.76  139O :  0.75  187O :  0.73  478O :  0.72  322O :  0.71  283O :  0.71  520O :  0.70  160O :  0.70  433O :  0.69
  427O :  0.69  496O :  0.68  325O :  0.67  229O :  0.66  355O :  0.66  148O :  0.63  259O :  0.63  121O :  0.63  379O :  0.62   19O :  0.61  208O :  0.60  232O :  0.59
  370O :  0.59  412O :  0.58  358O :  0.58  460O :  0.58  256O :  0.57  397O :  0.57  298O :  0.56  151O :  0.56  406O :  0.55    7O :  0.55  199O :  0.55  442O :  0.55
  211O :  0.54  184O :  0.54   10O :  0.53  292O :  0.52  166O :  0.52  367O :  0.52   16O :  0.51   73O :  0.50  124O :  0.50  364O :  0.50  475O :  0.48  127O :  0.47
  523O :  0.47  349O :  0.46   94O :  0.46  241O :  0.46  418O :  0.45  319O :  0.44  265O :  0.42  331O :  0.42   28O :  0.41  163O :  0.41  142O :  0.40  178O :  0.39
  445O :  0.39  190O :  0.38  464H :  0.38  250O :  0.37   43O :  0.36  193O :  0.36  391O :  0.35   82O :  0.34  439O :  0.34  289O :  0.33  316O :  0.31  196O :  0.30
  346O :  0.29  157O :  0.29  526O :  0.28   37O :  0.28  517O :  0.28  301O :  0.27  220O :  0.27  100O :  0.26   86H :  0.25  200H :  0.25  236H :  0.24  136O :  0.24
   70O :  0.24  514O :  0.23  430O :  0.22  472O :  0.21  465H :  0.21   49O :  0.20   46O :  0.20  216H :  0.20  280O :  0.20  274O :  0.20  337O :  0.20   11H :  0.19
   90H :  0.19  119H :  0.18  240H :  0.18  530H :  0.17  202O :  0.17  469O :  0.17   57H :  0.17  314H :  0.16  226O :  0.16  352O :  0.16  271O :  0.16  481O :  0.15
  350H :  0.15  451O :  0.15   69H :  0.14  171H :  0.14  113H :  0.13  373O :  0.13  324H :  0.13  334O :  0.13  249H :  0.13  328O :  0.12  386H :  0.12  177H :  0.12
  224H :  0.12  125H :  0.12  144H :  0.12  233H :  0.12  286O :  0.11   98H :  0.11  409O :  0.11    2H :  0.11  290H :  0.11  308H :  0.11   89H :  0.11  161H :  0.10
   14H :  0.10  305H :  0.10  154O :  0.10   80H :  0.10  116H :  0.10   21H :  0.09  246H :  0.09  502O :  0.09  192H :  0.09   78H :  0.09  467H :  0.09  278H :  0.08
  268O :  0.08  101H :  0.08  423H :  0.08   51H :  0.08  287H :  0.08  110H :  0.08  372H :  0.08  114H :  0.08  407H :  0.08  106O :  0.08  476H :  0.08   75H :  0.07
    4O :  0.07  132H :  0.07  174H :  0.07  186H :  0.07  117H :  0.07
   10 LP   *******   0.01  -6.49797   5.32441  -9.18766  454O :  4.05   76O :  2.92  244O :  2.58   97O :  2.51  424O :  2.44   88O :  2.41   13O :  2.34  130O :  2.23  394O :  1.93  388O :  1.91  112O :  1.90  109O :  1.90
  181O :  1.88  376O :  1.81   79O :  1.77  343O :  1.77  307O :  1.76   67O :  1.76  505O :  1.70  385O :  1.67  247O :  1.61  463O :  1.61  118O :  1.57  235O :  1.53
    1O :  1.52  508O :  1.51  115O :  1.48  400O :  1.46  133O :  1.43  169O :  1.28   25O :  1.28   52O :  1.27  238O :  1.23  403O :  1.19  310O :  1.18   91O :  1.17
  214O :  1.15  295O :  1.13  253O :  1.13  415O :  1.13   31O :  1.13   34O :  1.12  529O :  1.08  421O :  1.06  448O :  1.04   55O :  1.04  466O :  1.03  172O :  1.02
  436O :  1.00  484O :  0.99  223O :  0.99  313O :  0.94  103O :  0.94  499O :  0.91  304O :  0.91   61O :  0.84  487O :  0.83  205O :  0.83  361O :  0.83   64O :  0.83
  277O :  0.82  175O :  0.81   85O :  0.77  217O :  0.76  139O :  0.75  187O :  0.73  478O :  0.72  322O :  0.71  283O :  0.71  520O :  0.70  160O :  0.70  427O :  0.69
  433O :  0.69  496O :  0.68  325O :  0.67  229O :  0.66  355O :  0.66  148O :  0.65  259O :  0.63  121O :  0.63  379O :  0.62   19O :  0.61  208O :  0.60  232O :  0.59
  370O :  0.58  412O :  0.58  358O :  0.58  460O :  0.58  256O :  0.57  397O :  0.57  298O :  0.56  151O :  0.56  406O :  0.55    7O :  0.55  199O :  0.55  442O :  0.55
  211O :  0.54  184O :  0.54   10O :  0.53  292O :  0.52  166O :  0.52  367O :  0.52   16O :  0.51   73O :  0.50  124O :  0.50  364O :  0.49  475O :  0.48  127O :  0.47
  523O :  0.47  349O :  0.46   94O :  0.46  241O :  0.46  418O :  0.45  319O :  0.44  265O :  0.42  331O :  0.42  163O :  0.41   28O :  0.41  178O :  0.39  445O :  0.39
  142O :  0.39  190O :  0.38  464H :  0.38  250O :  0.37  193O :  0.36   43O :  0.35  391O :  0.35  439O :  0.34  289O :  0.33   82O :  0.33  316O :  0.31  196O :  0.30
  346O :  0.29  157O :  0.29  526O :  0.28   37O :  0.28  517O :  0.28  301O :  0.27  220O :  0.27  100O :  0.26   86H :  0.25  200H :  0.25  236H :  0.24  136O :  0.24
   70O :  0.24  514O :  0.23  430O :  0.22  472O :  0.21  465H :  0.21  216H :  0.20   49O :  0.20   46O :  0.20  280O :  0.20  274O :  0.20  337O :  0.20   11H :  0.19
   90H :  0.19  119H :  0.18  240H :  0.18  530H :  0.17  202O :  0.17  469O :  0.17   57H :  0.17  314H :  0.16  226O :  0.16  352O :  0.16  271O :  0.16  481O :  0.15
  350H :  0.15  451O :  0.15   69H :  0.14  171H :  0.14  113H :  0.13  373O :  0.13  324H :  0.13  249H :  0.13  334O :  0.13  328O :  0.12  386H :  0.12  177H :  0.12
  224H :  0.12  144H :  0.12  125H :  0.12   98H :  0.12  233H :  0.12  286O :  0.11  409O :  0.11    2H :  0.11  290H :  0.11  308H :  0.11   89H :  0.11  305H :  0.10
  154O :  0.10  116H :  0.10   80H :  0.10  246H :  0.09   21H :  0.09   14H :  0.09  502O :  0.09  192H :  0.09   78H :  0.09  467H :  0.09  278H :  0.08  268O :  0.08
  101H :  0.08  423H :  0.08  287H :  0.08   51H :  0.08  110H :  0.08  372H :  0.08  114H :  0.08  407H :  0.08  106O :  0.08  476H :  0.08    4O :  0.07   75H :  0.07
  174H :  0.07  186H :  0.07  117H :  0.07  132H :  0.07
   11 LP   *******   0.01   8.33694   5.30918  12.00800   67O :  4.26   76O :  2.85  244O :  2.52   97O :  2.45  424O :  2.38   88O :  2.37   13O :  2.29  130O :  2.17  394O :  1.88  388O :  1.86  112O :  1.85  109O :  1.85
  181O :  1.84  454O :  1.83  376O :  1.76   79O :  1.73  343O :  1.72  307O :  1.72  505O :  1.66  385O :  1.63  247O :  1.57  463O :  1.57  118O :  1.53  235O :  1.49
    1O :  1.48  508O :  1.48  115O :  1.44  400O :  1.43  133O :  1.40  169O :  1.25   25O :  1.25   52O :  1.24  238O :  1.20  403O :  1.16  310O :  1.15   91O :  1.14
  214O :  1.12  253O :  1.11  295O :  1.11  415O :  1.10   31O :  1.10   34O :  1.09  529O :  1.05  421O :  1.04  448O :  1.01   55O :  1.01  466O :  1.00  172O :  0.99
  436O :  0.98  484O :  0.97  223O :  0.96  313O :  0.92  103O :  0.92  499O :  0.89  304O :  0.89   61O :  0.81  487O :  0.81  205O :  0.81  361O :  0.81   64O :  0.81
  277O :  0.80  175O :  0.79   85O :  0.75  217O :  0.74  139O :  0.73  187O :  0.71  478O :  0.70  322O :  0.70  283O :  0.69  520O :  0.69  160O :  0.68  427O :  0.68
  433O :  0.68  496O :  0.67  325O :  0.66  229O :  0.64  355O :  0.64  148O :  0.62  259O :  0.62  121O :  0.61  379O :  0.60   19O :  0.60  208O :  0.58  232O :  0.57
  370O :  0.57  412O :  0.56  358O :  0.56  460O :  0.56  256O :  0.56  397O :  0.55  298O :  0.55  151O :  0.55  406O :  0.54    7O :  0.54  199O :  0.54  442O :  0.53
  211O :  0.53  184O :  0.52   10O :  0.51  292O :  0.51  166O :  0.51  367O :  0.50   16O :  0.49   73O :  0.49  124O :  0.49  364O :  0.48  475O :  0.46  127O :  0.46
  523O :  0.45  349O :  0.45   94O :  0.45  241O :  0.44  418O :  0.44  319O :  0.41  265O :  0.41  331O :  0.41   28O :  0.40  163O :  0.40  178O :  0.38  445O :  0.38
  142O :  0.38  190O :  0.37  464H :  0.37  250O :  0.36   43O :  0.35  193O :  0.35  391O :  0.34   82O :  0.34  439O :  0.33  289O :  0.33  316O :  0.30  196O :  0.29
  346O :  0.28  157O :  0.28  526O :  0.27   37O :  0.27  517O :  0.27  301O :  0.27  220O :  0.26  100O :  0.25   86H :  0.25  200H :  0.24  236H :  0.24  136O :  0.23
   70O :  0.23  514O :  0.22  430O :  0.21   90H :  0.21  472O :  0.21  465H :  0.20  216H :  0.20   49O :  0.20   46O :  0.20  280O :  0.19  274O :  0.19  337O :  0.19
   11H :  0.19  119H :  0.18  240H :  0.17  530H :  0.17  202O :  0.17  469O :  0.17   57H :  0.16  314H :  0.16  226O :  0.15  352O :  0.15  271O :  0.15  481O :  0.15
  350H :  0.15  451O :  0.14  171H :  0.13   69H :  0.13  113H :  0.13  373O :  0.13  324H :  0.12  334O :  0.12  249H :  0.12  328O :  0.12  386H :  0.12  177H :  0.12
  224H :  0.12  144H :  0.11  125H :  0.11  233H :  0.11  286O :  0.11   98H :  0.11  409O :  0.11  501H :  0.11    2H :  0.11  290H :  0.11  308H :  0.10   89H :  0.10
  305H :  0.10  154O :  0.10  116H :  0.09   80H :  0.09  246H :  0.09   21H :  0.09   14H :  0.09  502O :  0.09  192H :  0.09   78H :  0.09  467H :  0.08  278H :  0.08
  101H :  0.08  423H :  0.08   51H :  0.08  287H :  0.08  110H :  0.08  268O :  0.08  372H :  0.08  114H :  0.08  407H :  0.08  106O :  0.08  476H :  0.08   75H :  0.07
    4O :  0.07
   12 LP   *******   0.01  -7.42669   4.14683   3.33287  181O :  3.64   76O :  2.80  244O :  2.48   97O :  2.41  424O :  2.34   88O :  2.32   13O :  2.25  130O :  2.14  394O :  1.85  388O :  1.84  112O :  1.82  109O :  1.82
  454O :  1.80  376O :  1.74   79O :  1.70  343O :  1.70  307O :  1.69   67O :  1.69  505O :  1.63  385O :  1.60  247O :  1.55  463O :  1.54  118O :  1.50  235O :  1.47
    1O :  1.46  508O :  1.45  115O :  1.42  400O :  1.40  133O :  1.38  169O :  1.23   25O :  1.23   52O :  1.22  238O :  1.18  403O :  1.15  310O :  1.13   91O :  1.12
  214O :  1.10  253O :  1.09  295O :  1.09  415O :  1.08   31O :  1.08   34O :  1.08  529O :  1.03  421O :  1.03  448O :  1.00   55O :  1.00  466O :  0.98  172O :  0.97
  436O :  0.96  484O :  0.96  223O :  0.95  313O :  0.90  103O :  0.90  499O :  0.88  304O :  0.87   61O :  0.80  487O :  0.80  205O :  0.80  361O :  0.80   64O :  0.79
  277O :  0.78  175O :  0.78   85O :  0.74  217O :  0.73  139O :  0.72  187O :  0.70  478O :  0.69  322O :  0.69  283O :  0.68  520O :  0.67  160O :  0.67  427O :  0.67
  433O :  0.67  496O :  0.66  325O :  0.65  229O :  0.63  355O :  0.63  148O :  0.61  259O :  0.61  121O :  0.61  379O :  0.59   19O :  0.59  208O :  0.58  232O :  0.57
  370O :  0.56  358O :  0.56  412O :  0.56  460O :  0.55  256O :  0.55  397O :  0.54  298O :  0.54  151O :  0.54  406O :  0.53    7O :  0.53  199O :  0.53  442O :  0.52
  211O :  0.52  184O :  0.51   10O :  0.51  292O :  0.50  166O :  0.50   16O :  0.49   73O :  0.48  367O :  0.48  124O :  0.48  364O :  0.48  475O :  0.46  127O :  0.45
  523O :  0.45  349O :  0.44   94O :  0.44  241O :  0.44  418O :  0.43  319O :  0.42  265O :  0.41  331O :  0.40   28O :  0.39  163O :  0.39  178O :  0.38  445O :  0.37
  190O :  0.37  142O :  0.36  464H :  0.36  250O :  0.36   43O :  0.34  193O :  0.34  391O :  0.34   82O :  0.33  439O :  0.33  289O :  0.32  316O :  0.30  196O :  0.29
  346O :  0.28  157O :  0.28  526O :  0.27   37O :  0.27  517O :  0.27  301O :  0.26  220O :  0.26  100O :  0.25   86H :  0.24  200H :  0.24  236H :  0.23  136O :  0.23
   70O :  0.23  514O :  0.22  430O :  0.21  472O :  0.21  465H :  0.20   49O :  0.19  216H :  0.19   46O :  0.19  280O :  0.19  274O :  0.19  337O :  0.19   11H :  0.19
   90H :  0.18  119H :  0.17  240H :  0.17  530H :  0.17  202O :  0.16  469O :  0.16   57H :  0.16  314H :  0.15  226O :  0.15  352O :  0.15  271O :  0.15  481O :  0.15
  350H :  0.14  451O :  0.14   69H :  0.14  171H :  0.13  113H :  0.13  373O :  0.12  324H :  0.12  249H :  0.12  334O :  0.12  328O :  0.12  386H :  0.12  177H :  0.12
  224H :  0.11  125H :  0.11  144H :  0.11  233H :  0.11  286O :  0.11   98H :  0.11  409O :  0.11    2H :  0.11  290H :  0.10  308H :  0.10   89H :  0.10  305H :  0.10
  154O :  0.09  116H :  0.09   80H :  0.09  246H :  0.09   21H :  0.09  192H :  0.09  502O :  0.09   78H :  0.09   14H :  0.08  467H :  0.08  278H :  0.08  268O :  0.08
  101H :  0.08  423H :  0.08   51H :  0.08  287H :  0.08  110H :  0.08  372H :  0.08  114H :  0.08  407H :  0.07  106O :  0.07  476H :  0.07   75H :  0.07    4O :  0.07
   13 LP   *******   0.01  -2.23668  -3.86500  -1.90329    1O :  3.26   76O :  2.77  244O :  2.44   97O :  2.38  424O :  2.31   88O :  2.29   13O :  2.22  130O :  2.11  394O :  1.82  388O :  1.81  112O :  1.80  109O :  1.80
  181O :  1.79  454O :  1.77  376O :  1.71   79O :  1.68  343O :  1.67  307O :  1.67   67O :  1.66  505O :  1.61  385O :  1.58  247O :  1.55  463O :  1.52  118O :  1.48
  235O :  1.45  508O :  1.43  115O :  1.40  400O :  1.39  133O :  1.36  169O :  1.21   25O :  1.20   52O :  1.20  238O :  1.16  403O :  1.13  310O :  1.12   91O :  1.11
  214O :  1.09  253O :  1.08   31O :  1.08  295O :  1.07  415O :  1.07   34O :  1.06  529O :  1.02  421O :  1.01  448O :  0.99   55O :  0.98  466O :  0.97  172O :  0.96
  436O :  0.95  484O :  0.94  223O :  0.94  313O :  0.89  103O :  0.89  499O :  0.86  304O :  0.86   61O :  0.79  487O :  0.79  205O :  0.79  361O :  0.78   64O :  0.78
  277O :  0.77  175O :  0.76   85O :  0.73  139O :  0.72  217O :  0.72  187O :  0.69  478O :  0.68  322O :  0.68  283O :  0.67  520O :  0.67  160O :  0.66  433O :  0.66
  427O :  0.66  496O :  0.65  325O :  0.64  229O :  0.62  355O :  0.62  148O :  0.60  259O :  0.60  121O :  0.60  379O :  0.59   19O :  0.58  208O :  0.57  232O :  0.56
  370O :  0.55  412O :  0.55  358O :  0.55  460O :  0.55  256O :  0.54  397O :  0.54  298O :  0.53  151O :  0.53  406O :  0.52    7O :  0.52  199O :  0.52  442O :  0.52
  211O :  0.52  184O :  0.51   10O :  0.50  292O :  0.50  166O :  0.49  367O :  0.49   16O :  0.48   73O :  0.47  124O :  0.47  364O :  0.47  475O :  0.45  127O :  0.45
  523O :  0.44  349O :  0.44   94O :  0.43  241O :  0.43  418O :  0.42  319O :  0.41  265O :  0.40  331O :  0.39  163O :  0.39   28O :  0.39  178O :  0.37  445O :  0.37
  142O :  0.37  190O :  0.36  464H :  0.36  250O :  0.35   43O :  0.34  193O :  0.34  391O :  0.33   82O :  0.33  439O :  0.32  289O :  0.32  316O :  0.29  196O :  0.29
  346O :  0.28  157O :  0.27   37O :  0.26  526O :  0.26  517O :  0.26  301O :  0.26  220O :  0.26   86H :  0.24  200H :  0.24  100O :  0.24  236H :  0.23  136O :  0.23
   70O :  0.22  514O :  0.21  430O :  0.21  472O :  0.20  465H :  0.20  530H :  0.19  216H :  0.19   49O :  0.19   46O :  0.19  280O :  0.19  274O :  0.19  337O :  0.19
   11H :  0.19   90H :  0.18  119H :  0.17  240H :  0.17  202O :  0.16  469O :  0.16   57H :  0.16  314H :  0.15  226O :  0.15  352O :  0.15  271O :  0.15  481O :  0.14
  350H :  0.14  451O :  0.14   69H :  0.14  171H :  0.13  177H :  0.13  113H :  0.12  373O :  0.12  249H :  0.12  324H :  0.12  334O :  0.12  328O :  0.12  386H :  0.12
  224H :  0.11  144H :  0.11  125H :  0.11  233H :  0.11  286O :  0.11   98H :  0.11  409O :  0.10  308H :  0.10  290H :  0.10   89H :  0.10  305H :  0.09  154O :  0.09
  116H :  0.09   80H :  0.09   78H :  0.09  246H :  0.09   21H :  0.09   14H :  0.09  502O :  0.09  192H :  0.09  467H :  0.08  278H :  0.08  101H :  0.08  268O :  0.08
  423H :  0.08   51H :  0.08  287H :  0.08  110H :  0.08  372H :  0.08  114H :  0.07  407H :  0.07  106O :  0.07  476H :  0.07
   14 LP   *******   0.01  -8.64919 -11.79613  -8.73488  343O :  3.79   76O :  2.62  244O :  2.32   97O :  2.26  424O :  2.19   88O :  2.17   13O :  2.11  130O :  2.00  394O :  1.73  388O :  1.72  112O :  1.71  109O :  1.71
  181O :  1.70  454O :  1.68  376O :  1.63   79O :  1.60  307O :  1.59   67O :  1.58  505O :  1.53  385O :  1.50  247O :  1.45  463O :  1.45  118O :  1.41  235O :  1.38
    1O :  1.36  508O :  1.33  115O :  1.33  400O :  1.32  133O :  1.29  169O :  1.15   25O :  1.15   52O :  1.14  238O :  1.10  403O :  1.07  310O :  1.06   91O :  1.05
  214O :  1.03  253O :  1.02  295O :  1.02  415O :  1.01   31O :  1.01   34O :  1.01  529O :  0.97  421O :  0.96  448O :  0.94   55O :  0.93  466O :  0.92  172O :  0.91
  436O :  0.90  484O :  0.89  223O :  0.89  313O :  0.85  103O :  0.85  499O :  0.82  304O :  0.82   61O :  0.75  487O :  0.75  205O :  0.75  361O :  0.75   64O :  0.74
  277O :  0.73  175O :  0.73   85O :  0.69  217O :  0.69  139O :  0.67  187O :  0.66  478O :  0.65  322O :  0.64  283O :  0.64  520O :  0.63  160O :  0.63  427O :  0.62
  433O :  0.62  496O :  0.62  325O :  0.61  229O :  0.59  355O :  0.59  148O :  0.57  259O :  0.57  121O :  0.57  379O :  0.56   19O :  0.55  208O :  0.54  232O :  0.53
  370O :  0.53  412O :  0.52  358O :  0.52  460O :  0.52  256O :  0.51  397O :  0.51  151O :  0.50  406O :  0.50    7O :  0.50  199O :  0.50  298O :  0.49  442O :  0.49
  211O :  0.49  184O :  0.48   10O :  0.47  292O :  0.47  166O :  0.47  367O :  0.46   16O :  0.46   73O :  0.45  124O :  0.45  364O :  0.45  475O :  0.43  127O :  0.42
  523O :  0.42  349O :  0.41   94O :  0.41  241O :  0.41  418O :  0.40  319O :  0.39  265O :  0.38  331O :  0.37  163O :  0.37   28O :  0.37  178O :  0.35  445O :  0.35
  142O :  0.35  190O :  0.34  464H :  0.34  250O :  0.34   43O :  0.32  193O :  0.32  391O :  0.31   82O :  0.31  439O :  0.30  289O :  0.30  316O :  0.28  196O :  0.27
  346O :  0.26  157O :  0.26  526O :  0.25   37O :  0.25  301O :  0.25  220O :  0.24  517O :  0.24  100O :  0.24   86H :  0.23  200H :  0.22  236H :  0.22  136O :  0.22
   70O :  0.21  514O :  0.20  430O :  0.20  472O :  0.19  465H :  0.19  216H :  0.18   49O :  0.18   46O :  0.18  280O :  0.18  274O :  0.18  337O :  0.18   11H :  0.17
   90H :  0.17  119H :  0.16  240H :  0.16  530H :  0.16  202O :  0.15  469O :  0.15   57H :  0.15  314H :  0.14  226O :  0.14  352O :  0.14  271O :  0.14  481O :  0.14
  350H :  0.14  451O :  0.13   69H :  0.13  171H :  0.12  113H :  0.12  373O :  0.12  324H :  0.11  249H :  0.11  334O :  0.11  328O :  0.11  386H :  0.11  177H :  0.11
  224H :  0.11  144H :  0.11  125H :  0.11  233H :  0.10  286O :  0.10   98H :  0.10  409O :  0.10    2H :  0.10  290H :  0.10  308H :  0.10   89H :  0.10  305H :  0.09
  154O :  0.09  116H :  0.09   80H :  0.09  246H :  0.08   21H :  0.08   14H :  0.08  502O :  0.08  192H :  0.08   78H :  0.08  467H :  0.08  278H :  0.08  268O :  0.08
  101H :  0.07  423H :  0.07   51H :  0.07  287H :  0.07  110H :  0.07  372H :  0.07  114H :  0.07
   15 LP   *******   0.01  -5.60902   0.16047  -8.98086  400O :  3.29   76O :  2.63  244O :  2.32   97O :  2.27  424O :  2.19   88O :  2.17   13O :  2.11  130O :  2.01  394O :  1.73  388O :  1.72  112O :  1.71  109O :  1.71
  181O :  1.70  454O :  1.69  376O :  1.63   79O :  1.60  343O :  1.59  307O :  1.59   67O :  1.58  505O :  1.53  385O :  1.50  463O :  1.46  247O :  1.45  118O :  1.41
  235O :  1.38    1O :  1.37  508O :  1.36  115O :  1.33  133O :  1.29  169O :  1.15   25O :  1.15   52O :  1.14  238O :  1.10  403O :  1.08  310O :  1.06   91O :  1.05
  214O :  1.03  253O :  1.02  415O :  1.02   34O :  1.01   31O :  1.01  295O :  0.99  529O :  0.97  421O :  0.96  448O :  0.94   55O :  0.94  466O :  0.92  172O :  0.92
  436O :  0.90  484O :  0.90  223O :  0.89  313O :  0.85  103O :  0.85  499O :  0.82  304O :  0.82   61O :  0.75  487O :  0.75  205O :  0.75  361O :  0.75   64O :  0.74
  277O :  0.73  175O :  0.73   85O :  0.69  217O :  0.69  139O :  0.68  187O :  0.66  478O :  0.65  322O :  0.64  283O :  0.64  520O :  0.63  160O :  0.63  427O :  0.62
  433O :  0.62  496O :  0.62  325O :  0.61  229O :  0.59  355O :  0.59  259O :  0.57  121O :  0.57  379O :  0.56  148O :  0.55   19O :  0.55  208O :  0.54  232O :  0.53
  370O :  0.52  412O :  0.52  358O :  0.52  460O :  0.52  256O :  0.51  397O :  0.51  298O :  0.51  151O :  0.51  406O :  0.50    7O :  0.50  199O :  0.50  442O :  0.49
  211O :  0.49  184O :  0.48   10O :  0.47  292O :  0.47  166O :  0.47  367O :  0.46   16O :  0.46  124O :  0.45   73O :  0.45  364O :  0.45  475O :  0.43  127O :  0.43
  523O :  0.42  349O :  0.41   94O :  0.41  241O :  0.41  418O :  0.40  319O :  0.39  265O :  0.38  331O :  0.38  163O :  0.37   28O :  0.37  178O :  0.36  445O :  0.35
  142O :  0.35  190O :  0.34  464H :  0.34  250O :  0.34   43O :  0.32  193O :  0.32  391O :  0.32   82O :  0.31  439O :  0.31  289O :  0.30  316O :  0.28  196O :  0.27
  346O :  0.26  157O :  0.26  526O :  0.25   37O :  0.25  517O :  0.25  301O :  0.25  220O :  0.24  100O :  0.24   86H :  0.23  200H :  0.22  236H :  0.22  136O :  0.22
   70O :  0.21  514O :  0.20  430O :  0.20  465H :  0.20  472O :  0.19  216H :  0.18   49O :  0.18   46O :  0.18  280O :  0.18  274O :  0.18  337O :  0.18   11H :  0.17
   90H :  0.17  119H :  0.16  240H :  0.16  530H :  0.16  202O :  0.15  469O :  0.15   57H :  0.15  314H :  0.15  226O :  0.14  352O :  0.14  271O :  0.14  481O :  0.14
  350H :  0.14  451O :  0.13   69H :  0.13  171H :  0.12  113H :  0.12  373O :  0.12  324H :  0.11  334O :  0.11  249H :  0.11  328O :  0.11  386H :  0.11  177H :  0.11
  224H :  0.11  144H :  0.11  125H :  0.11  233H :  0.10  286O :  0.10    2H :  0.10  409O :  0.10   98H :  0.10  290H :  0.10  308H :  0.10   89H :  0.10  305H :  0.09
  154O :  0.09  116H :  0.09   80H :  0.09  246H :  0.08   21H :  0.08   14H :  0.08  502O :  0.08  192H :  0.08   78H :  0.08  467H :  0.08  278H :  0.08  268O :  0.08
  101H :  0.07  423H :  0.07   51H :  0.07  287H :  0.07  110H :  0.07  372H :  0.07  114H :  0.07
   16 LP   *******   0.01   4.50015   1.92199  -1.29897  385O :  3.48   76O :  2.58  244O :  2.28   97O :  2.22  424O :  2.15   88O :  2.13   13O :  2.07  130O :  1.97  394O :  1.70  388O :  1.69  112O :  1.68  109O :  1.68
  181O :  1.66  454O :  1.65  376O :  1.60   79O :  1.57  343O :  1.56  307O :  1.56   67O :  1.55  505O :  1.50  247O :  1.42  463O :  1.42  118O :  1.38  235O :  1.35
    1O :  1.34  508O :  1.34  115O :  1.31  400O :  1.29  133O :  1.27  169O :  1.13   25O :  1.13   52O :  1.12  238O :  1.09  403O :  1.06  310O :  1.04   91O :  1.03
  214O :  1.01  253O :  1.00  295O :  1.00  415O :  1.00   31O :  1.00   34O :  0.99  529O :  0.95  421O :  0.94   55O :  0.92  466O :  0.91  448O :  0.91  172O :  0.90
  436O :  0.89  484O :  0.87  223O :  0.87  103O :  0.83  313O :  0.83  499O :  0.81  304O :  0.80   61O :  0.74  487O :  0.74  205O :  0.73  361O :  0.73   64O :  0.73
  277O :  0.72  175O :  0.71   85O :  0.68  217O :  0.67  139O :  0.66  187O :  0.64  478O :  0.64  322O :  0.63  283O :  0.62  520O :  0.62  160O :  0.62  427O :  0.61
  433O :  0.61  496O :  0.60  325O :  0.60  229O :  0.58  355O :  0.58  148O :  0.56  259O :  0.56  121O :  0.56  379O :  0.55   19O :  0.54  208O :  0.53  232O :  0.52
  370O :  0.52  412O :  0.51  358O :  0.51  460O :  0.51  256O :  0.50  397O :  0.50  298O :  0.50  151O :  0.50  406O :  0.49  199O :  0.49    7O :  0.48  442O :  0.48
  211O :  0.48  184O :  0.47   10O :  0.47  292O :  0.46  166O :  0.46  367O :  0.45   16O :  0.45   73O :  0.44  124O :  0.44  364O :  0.44  475O :  0.42  127O :  0.42
  523O :  0.41  349O :  0.41   94O :  0.40  241O :  0.40  418O :  0.39  319O :  0.39  265O :  0.37  331O :  0.37  163O :  0.36   28O :  0.36  178O :  0.35  445O :  0.34
  142O :  0.34  190O :  0.33  464H :  0.33  250O :  0.33   43O :  0.32  193O :  0.31  391O :  0.31   82O :  0.30  439O :  0.30  289O :  0.30  316O :  0.27  196O :  0.26
  346O :  0.26  157O :  0.26  526O :  0.24  517O :  0.24   37O :  0.24  301O :  0.24  220O :  0.24  100O :  0.23   86H :  0.22  200H :  0.22  236H :  0.21  136O :  0.21
   70O :  0.21  514O :  0.20  430O :  0.19  472O :  0.19  465H :  0.18  216H :  0.18   49O :  0.18   46O :  0.18  280O :  0.18  274O :  0.18  337O :  0.17   11H :  0.17
   90H :  0.17  119H :  0.16  240H :  0.16  530H :  0.15  202O :  0.15  469O :  0.15   57H :  0.15  314H :  0.14  226O :  0.14  352O :  0.14  350H :  0.14  271O :  0.14
  481O :  0.13  451O :  0.13   69H :  0.13  171H :  0.12  113H :  0.12  373O :  0.11  324H :  0.11  334O :  0.11  249H :  0.11  328O :  0.11  177H :  0.11  224H :  0.11
  144H :  0.10  125H :  0.10  233H :  0.10  286O :  0.10   98H :  0.10  409O :  0.10    2H :  0.10  290H :  0.10  308H :  0.10   89H :  0.09  305H :  0.09  116H :  0.09
  154O :  0.09   80H :  0.09  246H :  0.08   21H :  0.08   14H :  0.08  502O :  0.08  192H :  0.08   78H :  0.08  386H :  0.08  467H :  0.08  278H :  0.07  268O :  0.07
  101H :  0.07  423H :  0.07   51H :  0.07  287H :  0.07  110H :  0.07  372H :  0.07
   17 LP   *******   0.01   8.77331   0.90918   6.07938   88O :  4.35   76O :  2.50  244O :  2.21   97O :  2.16  424O :  2.09   13O :  2.01  130O :  1.91  394O :  1.65  388O :  1.64  109O :  1.63  112O :  1.63  181O :  1.62
  454O :  1.61  376O :  1.55   79O :  1.52   67O :  1.52  343O :  1.52  307O :  1.51  505O :  1.45  385O :  1.43  247O :  1.38  463O :  1.38  118O :  1.34  235O :  1.31
    1O :  1.30  508O :  1.30  115O :  1.27  400O :  1.25  133O :  1.23  169O :  1.10   25O :  1.10   52O :  1.09  238O :  1.05  403O :  1.02  310O :  1.01   91O :  1.00
  214O :  0.98  253O :  0.97  295O :  0.97  415O :  0.97   31O :  0.97   34O :  0.96  529O :  0.92  421O :  0.92  448O :  0.89   55O :  0.89  466O :  0.88  172O :  0.87
  436O :  0.86  484O :  0.85  223O :  0.85  313O :  0.81  499O :  0.78  304O :  0.78  103O :  0.77   61O :  0.72  487O :  0.71  205O :  0.71  361O :  0.71   64O :  0.71
  277O :  0.70  175O :  0.69   85O :  0.66  217O :  0.65  139O :  0.64  187O :  0.63  478O :  0.62  322O :  0.61  283O :  0.61  520O :  0.60  160O :  0.60  427O :  0.59
  433O :  0.59  496O :  0.59  325O :  0.58  229O :  0.57  355O :  0.56  148O :  0.54  121O :  0.54  259O :  0.53  379O :  0.53   19O :  0.52  208O :  0.51  232O :  0.50
  370O :  0.50  412O :  0.50  358O :  0.50  460O :  0.49  256O :  0.49  397O :  0.49  298O :  0.48  151O :  0.48  406O :  0.47    7O :  0.47  199O :  0.47  442O :  0.47
  211O :  0.47  184O :  0.46   10O :  0.45  292O :  0.45  166O :  0.45  367O :  0.44   16O :  0.43   73O :  0.43  124O :  0.43  364O :  0.42  475O :  0.41  523O :  0.40
  349O :  0.39   94O :  0.39  127O :  0.39  241O :  0.39  418O :  0.38  319O :  0.37  265O :  0.36  331O :  0.36  163O :  0.35   28O :  0.35  178O :  0.34  445O :  0.33
  142O :  0.33  190O :  0.32  464H :  0.32  250O :  0.32   43O :  0.31  193O :  0.30  391O :  0.30   82O :  0.29  439O :  0.29  289O :  0.29  316O :  0.26  196O :  0.26
  346O :  0.25  157O :  0.25  526O :  0.24   37O :  0.24  517O :  0.24  301O :  0.24  220O :  0.23  100O :  0.22   86H :  0.22  200H :  0.21  236H :  0.21  136O :  0.21
   70O :  0.20  514O :  0.19  430O :  0.19  472O :  0.18  465H :  0.18  216H :  0.17   49O :  0.17   46O :  0.17  280O :  0.17  274O :  0.17  337O :  0.17   11H :  0.17
  119H :  0.16  240H :  0.15  530H :  0.15  202O :  0.15  469O :  0.15   90H :  0.14   57H :  0.14  314H :  0.14  226O :  0.14  352O :  0.13  271O :  0.13  481O :  0.13
  350H :  0.13  451O :  0.13   69H :  0.13  171H :  0.12  113H :  0.11  373O :  0.11  324H :  0.11  334O :  0.11  249H :  0.11  328O :  0.11  386H :  0.11  177H :  0.10
  224H :  0.10  125H :  0.10  144H :  0.10  233H :  0.10  286O :  0.10   98H :  0.10  409O :  0.09    2H :  0.09  290H :  0.09  308H :  0.09  305H :  0.09  154O :  0.08
   80H :  0.08  116H :  0.08  246H :  0.08   21H :  0.08   14H :  0.08  502O :  0.08  192H :  0.08   78H :  0.08   89H :  0.07  467H :  0.07  278H :  0.07  268O :  0.07
  101H :  0.07  423H :  0.07   51H :  0.07
   18 LP   *******   0.01   2.11358   4.18860  -7.92779  133O :  2.90   76O :  2.40  244O :  2.13   97O :  2.07  424O :  2.01   88O :  1.99   13O :  1.93  130O :  1.84  394O :  1.59  388O :  1.57  112O :  1.56  109O :  1.56
  181O :  1.55  454O :  1.54  376O :  1.49   79O :  1.46  343O :  1.46  307O :  1.45   67O :  1.45  505O :  1.40  385O :  1.37  247O :  1.33  463O :  1.32  118O :  1.29
  235O :  1.26    1O :  1.25  508O :  1.25  115O :  1.22  400O :  1.21  169O :  1.06   25O :  1.05   52O :  1.05  238O :  1.01  403O :  0.98  310O :  0.97   91O :  0.96
  214O :  0.95  253O :  0.94  295O :  0.94  415O :  0.93   31O :  0.93   34O :  0.92  529O :  0.89  421O :  0.88  448O :  0.86   55O :  0.86  466O :  0.85  172O :  0.84
  436O :  0.83  484O :  0.82  223O :  0.81  313O :  0.78  103O :  0.78  499O :  0.75  304O :  0.75   61O :  0.69  487O :  0.69  205O :  0.68  361O :  0.68  277O :  0.67
   64O :  0.67  175O :  0.67   85O :  0.63  217O :  0.63  139O :  0.62  187O :  0.60  478O :  0.59  322O :  0.59  283O :  0.58  520O :  0.58  160O :  0.58  433O :  0.57
  427O :  0.57  496O :  0.56  325O :  0.55  229O :  0.54  355O :  0.54  148O :  0.52  259O :  0.52  121O :  0.52  379O :  0.51   19O :  0.50  208O :  0.49  232O :  0.49
  370O :  0.48  412O :  0.48  358O :  0.48  460O :  0.48  256O :  0.47  397O :  0.47  298O :  0.46  151O :  0.46  406O :  0.46    7O :  0.45  199O :  0.45  442O :  0.45
  211O :  0.45  184O :  0.44   10O :  0.43  292O :  0.43  166O :  0.43  367O :  0.42   16O :  0.42   73O :  0.41  124O :  0.41  364O :  0.41  475O :  0.39  127O :  0.39
  523O :  0.38   94O :  0.38  241O :  0.38  349O :  0.37  418O :  0.37  319O :  0.36  265O :  0.35  331O :  0.34  163O :  0.34   28O :  0.34  178O :  0.33  445O :  0.32
  142O :  0.32  190O :  0.31  464H :  0.31  250O :  0.31   43O :  0.30  193O :  0.29  391O :  0.29   82O :  0.28  439O :  0.28  289O :  0.28  316O :  0.25  196O :  0.25
  346O :  0.24  157O :  0.24  526O :  0.23   37O :  0.23  517O :  0.23  301O :  0.23  220O :  0.22  100O :  0.22   86H :  0.21  200H :  0.20  236H :  0.20  136O :  0.20
   70O :  0.20  514O :  0.19  430O :  0.18  472O :  0.18  465H :  0.17  216H :  0.17   49O :  0.17   46O :  0.17  280O :  0.16  274O :  0.16  337O :  0.16   11H :  0.16
   90H :  0.16  119H :  0.15  240H :  0.15  530H :  0.14  202O :  0.14  469O :  0.14   57H :  0.14  314H :  0.13  226O :  0.13  352O :  0.13  271O :  0.13  481O :  0.13
  350H :  0.12  451O :  0.12   69H :  0.12  171H :  0.11  113H :  0.11  373O :  0.11  324H :  0.10  249H :  0.10  334O :  0.10  328O :  0.10  386H :  0.10  177H :  0.10
  224H :  0.10  144H :  0.10  125H :  0.10  233H :  0.10  286O :  0.09   98H :  0.09  409O :  0.09    2H :  0.09  290H :  0.09  308H :  0.09   89H :  0.09  305H :  0.08
  154O :  0.08  116H :  0.08   80H :  0.08  246H :  0.08   21H :  0.08   14H :  0.08  502O :  0.08  192H :  0.08   78H :  0.08  467H :  0.07
   19 LP   *******   0.01   5.34718   9.95354  -4.60000  118O :  3.19   76O :  2.31  244O :  2.05   97O :  2.00  424O :  1.93   88O :  1.91   13O :  1.86  130O :  1.77  394O :  1.53  388O :  1.51  112O :  1.50  109O :  1.50
  181O :  1.49  454O :  1.48  376O :  1.43   79O :  1.41  343O :  1.40  307O :  1.40   67O :  1.39  505O :  1.35  385O :  1.32  247O :  1.28  463O :  1.27  235O :  1.21
    1O :  1.20  508O :  1.20  115O :  1.17  400O :  1.16  133O :  1.14  169O :  1.02   25O :  1.01   52O :  1.01  238O :  0.97  403O :  0.95  310O :  0.93   91O :  0.93
  214O :  0.91  253O :  0.90  295O :  0.90  415O :  0.89   31O :  0.89   34O :  0.89  529O :  0.85  421O :  0.85   55O :  0.82  466O :  0.81  448O :  0.81  172O :  0.80
  436O :  0.80  484O :  0.79  223O :  0.78  313O :  0.75  103O :  0.75  499O :  0.72  304O :  0.72   61O :  0.66  487O :  0.66  205O :  0.66  361O :  0.66   64O :  0.66
  277O :  0.65  175O :  0.64   85O :  0.61  217O :  0.60  139O :  0.59  187O :  0.58  478O :  0.57  322O :  0.57  283O :  0.56  520O :  0.56  160O :  0.55  427O :  0.55
  433O :  0.55  496O :  0.54  325O :  0.53  229O :  0.52  355O :  0.52  148O :  0.50  259O :  0.50  121O :  0.50  379O :  0.49   19O :  0.48  208O :  0.47  232O :  0.47
  370O :  0.46  412O :  0.46  358O :  0.46  460O :  0.46  256O :  0.45  397O :  0.45  298O :  0.45  151O :  0.44  406O :  0.44    7O :  0.44  199O :  0.44  442O :  0.43
  211O :  0.43  184O :  0.42   10O :  0.42  292O :  0.42  166O :  0.41  367O :  0.41   16O :  0.40   73O :  0.40  124O :  0.39  364O :  0.39  475O :  0.38  127O :  0.37
  523O :  0.37  349O :  0.36   94O :  0.36  241O :  0.36  418O :  0.35  319O :  0.35  265O :  0.34  331O :  0.33  163O :  0.32   28O :  0.32  445O :  0.31  142O :  0.31
  178O :  0.31  190O :  0.30  464H :  0.30  250O :  0.30   43O :  0.28  193O :  0.28  391O :  0.28   82O :  0.27  439O :  0.27  289O :  0.27  316O :  0.24  196O :  0.24
  346O :  0.23  157O :  0.23  526O :  0.22  517O :  0.22   37O :  0.22  301O :  0.22  220O :  0.22  100O :  0.21   86H :  0.20  200H :  0.20  236H :  0.19   70O :  0.19
  136O :  0.18  514O :  0.18  430O :  0.18  472O :  0.17  465H :  0.17  216H :  0.16   49O :  0.16   46O :  0.16  280O :  0.16  274O :  0.16  337O :  0.16   11H :  0.15
   90H :  0.15  240H :  0.14  530H :  0.14  202O :  0.14  469O :  0.13   57H :  0.13  314H :  0.13  226O :  0.13  352O :  0.12  271O :  0.12  481O :  0.12  350H :  0.12
  119H :  0.12  451O :  0.12   69H :  0.11  171H :  0.11  113H :  0.10  373O :  0.10  324H :  0.10  249H :  0.10  334O :  0.10  328O :  0.10  386H :  0.10  177H :  0.10
  224H :  0.09  144H :  0.09  125H :  0.09  233H :  0.09  286O :  0.09   98H :  0.09  409O :  0.09    2H :  0.09  290H :  0.09  308H :  0.09   89H :  0.08  305H :  0.08
  154O :  0.08  116H :  0.08   80H :  0.08  246H :  0.07   21H :  0.07   14H :  0.07  502O :  0.07  192H :  0.07   78H :  0.07
   20 LP   *******   0.01 -20.30884   5.99091   0.38386  376O :  3.59   76O :  2.29  244O :  2.03   97O :  1.98  424O :  1.92   88O :  1.90   13O :  1.84  130O :  1.75  394O :  1.52  388O :  1.50  112O :  1.49  109O :  1.49
  181O :  1.48  454O :  1.47   79O :  1.40  343O :  1.39  307O :  1.39   67O :  1.38  505O :  1.34  385O :  1.31  247O :  1.27  463O :  1.26  118O :  1.23  235O :  1.20
    1O :  1.19  508O :  1.19  115O :  1.16  400O :  1.15  133O :  1.13  169O :  1.01   25O :  1.01   52O :  1.00  238O :  0.96  403O :  0.94  310O :  0.92   91O :  0.92
  214O :  0.90  253O :  0.89  295O :  0.89  415O :  0.89   31O :  0.89   34O :  0.88  529O :  0.85  421O :  0.84  448O :  0.82   55O :  0.82  466O :  0.81  172O :  0.80
  436O :  0.79  484O :  0.78  223O :  0.78  313O :  0.74  103O :  0.74  499O :  0.72  304O :  0.72   61O :  0.66  487O :  0.65  205O :  0.65  361O :  0.65   64O :  0.65
  277O :  0.64  175O :  0.64   85O :  0.60  217O :  0.60  139O :  0.59  187O :  0.57  478O :  0.57  322O :  0.56  283O :  0.56  520O :  0.55  160O :  0.55  427O :  0.55
  433O :  0.54  496O :  0.54  325O :  0.53  229O :  0.52  355O :  0.52  148O :  0.50  259O :  0.50  121O :  0.50  379O :  0.49   19O :  0.48  208O :  0.47  232O :  0.46
  370O :  0.46  358O :  0.46  412O :  0.46  460O :  0.45  256O :  0.45  397O :  0.45  298O :  0.44  151O :  0.44  406O :  0.44    7O :  0.43  199O :  0.43  442O :  0.43
  211O :  0.43  184O :  0.42   10O :  0.41  292O :  0.41  166O :  0.41  367O :  0.41   16O :  0.40   73O :  0.39  124O :  0.39  364O :  0.39  475O :  0.37  127O :  0.37
  523O :  0.37  349O :  0.36   94O :  0.36  241O :  0.36  418O :  0.35  319O :  0.34  265O :  0.33  331O :  0.33  163O :  0.32   28O :  0.32  178O :  0.31  445O :  0.31
  142O :  0.30  464H :  0.30  250O :  0.29  190O :  0.28   43O :  0.28  193O :  0.28  391O :  0.28   82O :  0.27  439O :  0.27  289O :  0.26  316O :  0.24  196O :  0.24
  346O :  0.23  157O :  0.23  526O :  0.22   37O :  0.22  517O :  0.22  301O :  0.22  220O :  0.21  100O :  0.21   86H :  0.20  200H :  0.20  236H :  0.19  136O :  0.19
   70O :  0.19  514O :  0.18  430O :  0.17  472O :  0.17  465H :  0.16  216H :  0.16   49O :  0.16   46O :  0.16  280O :  0.16  274O :  0.16  337O :  0.16   11H :  0.15
   90H :  0.15  119H :  0.14  240H :  0.14  530H :  0.14  202O :  0.13  469O :  0.13   57H :  0.13  314H :  0.13  226O :  0.12  352O :  0.12  271O :  0.12  481O :  0.12
  350H :  0.12  451O :  0.12   69H :  0.11  171H :  0.11  113H :  0.10  373O :  0.10  334O :  0.10  249H :  0.10  328O :  0.10  324H :  0.10  386H :  0.10  177H :  0.10
  224H :  0.09  144H :  0.09  125H :  0.09  233H :  0.09  286O :  0.09   98H :  0.09  409O :  0.09    2H :  0.09  290H :  0.08  308H :  0.08   89H :  0.08  305H :  0.08
  154O :  0.08  116H :  0.08   80H :  0.08  192H :  0.07  246H :  0.07   21H :  0.07   14H :  0.07  502O :  0.07   78H :  0.07
   21 LP   *******   0.01 -10.15235  -7.84995  -3.16366  508O :  3.14   76O :  2.22  244O :  1.96   97O :  1.91  424O :  1.85   88O :  1.83   13O :  1.78  130O :  1.69  112O :  1.46  388O :  1.45  394O :  1.44  109O :  1.44
  181O :  1.43  454O :  1.42  376O :  1.37   79O :  1.35  307O :  1.34   67O :  1.33  343O :  1.31  505O :  1.29  385O :  1.27  247O :  1.22  463O :  1.22  118O :  1.19
  235O :  1.16    1O :  1.15  115O :  1.12  400O :  1.11  133O :  1.09   25O :  0.97  169O :  0.97   52O :  0.96  238O :  0.93  403O :  0.91  310O :  0.89   91O :  0.89
  214O :  0.87  253O :  0.86  295O :  0.86  415O :  0.86   31O :  0.86   34O :  0.85  529O :  0.82  421O :  0.81  448O :  0.79   55O :  0.79  466O :  0.78  172O :  0.77
  436O :  0.76  484O :  0.76  223O :  0.75  313O :  0.71  103O :  0.71  499O :  0.69  304O :  0.69   61O :  0.63  487O :  0.63  205O :  0.63  361O :  0.63   64O :  0.63
  277O :  0.62  175O :  0.61   85O :  0.58  217O :  0.58  187O :  0.55  139O :  0.55  478O :  0.55  322O :  0.54  283O :  0.54  520O :  0.53  160O :  0.53  427O :  0.53
  433O :  0.53  496O :  0.52  325O :  0.51  229O :  0.50  355O :  0.50  148O :  0.48  259O :  0.48  121O :  0.48  379O :  0.47   19O :  0.46  208O :  0.45  232O :  0.45
  370O :  0.44  412O :  0.44  358O :  0.44  460O :  0.44  256O :  0.43  397O :  0.43  298O :  0.43  151O :  0.43  406O :  0.42    7O :  0.42  199O :  0.42  442O :  0.41
  211O :  0.41  184O :  0.41   10O :  0.40  292O :  0.40  166O :  0.39  367O :  0.39   16O :  0.38   73O :  0.38  124O :  0.38  364O :  0.37  475O :  0.36  127O :  0.36
  523O :  0.35  349O :  0.35   94O :  0.35  241O :  0.35  418O :  0.34  319O :  0.33  265O :  0.32  331O :  0.32  163O :  0.31   28O :  0.31  178O :  0.30  445O :  0.29
  142O :  0.29  190O :  0.29  464H :  0.29  250O :  0.28   43O :  0.27  193O :  0.27  391O :  0.27   82O :  0.26  439O :  0.26  289O :  0.25  316O :  0.23  196O :  0.23
  346O :  0.22  157O :  0.22  526O :  0.21  517O :  0.21   37O :  0.21  301O :  0.21  220O :  0.21  100O :  0.20   86H :  0.19  200H :  0.19  236H :  0.18  136O :  0.18
   70O :  0.18  514O :  0.17  430O :  0.17  472O :  0.16  465H :  0.16  216H :  0.15   49O :  0.15   46O :  0.15  280O :  0.15  274O :  0.15  337O :  0.15   11H :  0.15
   90H :  0.15  119H :  0.14  240H :  0.14  530H :  0.13  202O :  0.13  469O :  0.13   57H :  0.13  314H :  0.12  226O :  0.12  352O :  0.12  271O :  0.12  481O :  0.12
  350H :  0.11  451O :  0.11   69H :  0.11  113H :  0.11  171H :  0.11  373O :  0.10  324H :  0.10  249H :  0.10  334O :  0.10  328O :  0.09  386H :  0.09  177H :  0.09
  224H :  0.09  144H :  0.09  125H :  0.09  233H :  0.09  286O :  0.09   98H :  0.08  409O :  0.08    2H :  0.08  308H :  0.08  290H :  0.08   89H :  0.08  305H :  0.08
  154O :  0.07  116H :  0.07   80H :  0.07  246H :  0.07   21H :  0.07   14H :  0.07
   22 LP   *******   0.01  -9.49759   2.45175   7.55310  388O :  3.11   76O :  2.15  244O :  1.90   97O :  1.85  424O :  1.80   88O :  1.78   13O :  1.71  130O :  1.64  394O :  1.42  112O :  1.40  109O :  1.40  181O :  1.39
  454O :  1.38  376O :  1.33   79O :  1.31  343O :  1.30  307O :  1.30   67O :  1.29  505O :  1.25  385O :  1.23  247O :  1.19  463O :  1.18  118O :  1.15  235O :  1.13
    1O :  1.12  508O :  1.12  115O :  1.09  400O :  1.08  133O :  1.06  169O :  0.94   25O :  0.94   52O :  0.93  238O :  0.90  403O :  0.88  310O :  0.87   91O :  0.86
[...]
   146   1 h    0.883 --   145 o    0.826
   147   1 h    0.892 --   145 o    0.835
   148   8 o    1.864 --   150 h    0.847   149 h    0.798
   149   1 h    0.872 --   148 o    0.798
   150   1 h    0.900 --   148 o    0.847
   151   8 o    1.814 --   152 h    0.860   153 h    0.853
   152   1 h    0.901 --   151 o    0.860
   153   1 h    0.900 --   151 o    0.853
   154   8 o    1.837 --   156 h    0.889   155 h    0.817
   155   1 h    0.881 --   154 o    0.817
   156   1 h    0.907 --   154 o    0.889
   157   8 o    1.863 --   158 h    0.851   159 h    0.822
   158   1 h    0.898 --   157 o    0.851
   159   1 h    0.879 --   157 o    0.822
   160   8 o    1.858 --   162 h    0.830   161 h    0.829
   161   1 h    0.879 --   160 o    0.829
   162   1 h    0.875 --   160 o    0.830
   163   8 o    1.854 --   164 h    0.879   165 h    0.830
   164   1 h    0.900 --   163 o    0.879
   165   1 h    0.884 --   163 o    0.830
   166   8 o    1.864 --   168 h    0.879   167 h    0.849
   167   1 h    0.894 --   166 o    0.849
   168   1 h    0.899 --   166 o    0.879
   169   8 o    1.855 --   170 h    0.873   171 h    0.871
   170   1 h    0.899 --   169 o    0.873
   171   1 h    0.897 --   169 o    0.871
   172   8 o    1.854 --   174 h    0.884   173 h    0.801
   173   1 h    0.874 --   172 o    0.801
   174   1 h    0.909 --   172 o    0.884
   175   8 o    1.814 --   176 h    0.813   177 h    0.803
   176   1 h    0.881 --   175 o    0.813
   177   1 h    0.884 --   175 o    0.803
   178   8 o    1.847 --   180 h    0.859   179 h    0.837
   179   1 h    0.891 --   178 o    0.837
   180   1 h    0.892 --   178 o    0.859
   181   8 o    1.827 --   183 h    0.839   182 h    0.837
   182   1 h    0.893 --   181 o    0.837
   183   1 h    0.889 --   181 o    0.839
   184   8 o    1.868 --   185 h    0.838   186 h    0.838
   185   1 h    0.895 --   184 o    0.838
   186   1 h    0.895 --   184 o    0.838
   187   8 o    1.859 --   188 h    0.864   189 h    0.818
   188   1 h    0.900 --   187 o    0.864
   189   1 h    0.875 --   187 o    0.818
   190   8 o    1.893 --   192 h    0.791   191 h    0.788
   191   1 h    0.874 --   190 o    0.788
   192   1 h    0.877 --   190 o    0.791
   193   8 o    1.866 --   195 h    0.808   194 h    0.774
   194   1 h    0.873 --   193 o    0.774
   195   1 h    0.882 --   193 o    0.808
   196   8 o    1.858 --   198 h    0.841   197 h    0.809
   197   1 h    0.885 --   196 o    0.809
   198   1 h    0.885 --   196 o    0.841
   199   8 o    1.834 --   200 h    0.827   201 h    0.795
   200   1 h    0.891 --   199 o    0.827
   201   1 h    0.878 --   199 o    0.795
   202   8 o    1.840 --   203 h    0.880   204 h    0.832
   203   1 h    0.904 --   202 o    0.880
   204   1 h    0.886 --   202 o    0.832
   205   8 o    1.854 --   206 h    0.914   207 h    0.777
   206   1 h    0.921 --   205 o    0.914
   207   1 h    0.871 --   205 o    0.777
   208   8 o    1.827 --   209 h    0.841   210 h    0.828
   209   1 h    0.895 --   208 o    0.841
   210   1 h    0.888 --   208 o    0.828
   211   8 o    1.854 --   212 h    0.857   213 h    0.822
   212   1 h    0.897 --   211 o    0.857
   213   1 h    0.888 --   211 o    0.822
   214   8 o    1.861 --   215 h    0.865   216 h    0.825
   215   1 h    0.904 --   214 o    0.865
   216   1 h    0.874 --   214 o    0.825
   217   8 o    1.840 --   219 h    0.863   218 h    0.820
   218   1 h    0.888 --   217 o    0.820
   219   1 h    0.901 --   217 o    0.863
   220   8 o    1.866 --   221 h    0.825   222 h    0.824
   221   1 h    0.891 --   220 o    0.825
   222   1 h    0.886 --   220 o    0.824
   223   8 o    1.861 --   224 h    0.878   225 h    0.823
   224   1 h    0.901 --   223 o    0.878
   225   1 h    0.889 --   223 o    0.823
   226   8 o    1.823 --   227 h    0.847   228 h    0.814
   227   1 h    0.893 --   226 o    0.847
   228   1 h    0.886 --   226 o    0.814
   229   8 o    1.840 --   231 h    0.901   230 h    0.821
   230   1 h    0.875 --   229 o    0.821
   231   1 h    0.911 --   229 o    0.901
   232   8 o    1.844 --   234 h    0.858   233 h    0.807
   233   1 h    0.882 --   232 o    0.807
   234   1 h    0.895 --   232 o    0.858
   235   8 o    1.863 --   236 h    0.855   237 h    0.840
   236   1 h    0.899 --   235 o    0.855
   237   1 h    0.891 --   235 o    0.840
   238   8 o    1.867 --   240 h    0.847   239 h    0.799
   239   1 h    0.874 --   238 o    0.799
   240   1 h    0.899 --   238 o    0.847
   241   8 o    1.879 --   242 h    0.865   243 h    0.820
   242   1 h    0.896 --   241 o    0.865
   243   1 h    0.890 --   241 o    0.820
   244   8 o    1.846 --   245 h    0.913   246 h    0.792
   245   1 h    0.922 --   244 o    0.913
   246   1 h    0.878 --   244 o    0.792
   247   8 o    1.829 --   248 h    0.832   249 h    0.825
   248   1 h    0.879 --   247 o    0.832
   249   1 h    0.885 --   247 o    0.825
   250   8 o    1.873 --   252 h    0.832   251 h    0.793
   251   1 h    0.874 --   250 o    0.793
   252   1 h    0.889 --   250 o    0.832
   253   8 o    1.856 --   255 h    0.830   254 h    0.810
   254   1 h    0.890 --   253 o    0.810
   255   1 h    0.890 --   253 o    0.830
   256   8 o    1.848 --   257 h    0.868   258 h    0.844
   257   1 h    0.902 --   256 o    0.868
   258   1 h    0.895 --   256 o    0.844
   259   8 o    1.840 --   260 h    0.837   261 h    0.828
   260   1 h    0.895 --   259 o    0.837
   261   1 h    0.880 --   259 o    0.828
   262   8 o    1.835 --   264 h    0.858   263 h    0.850
   263   1 h    0.896 --   262 o    0.850
   264   1 h    0.893 --   262 o    0.858
   265   8 o    1.861 --   267 h    0.912   266 h    0.782
   266   1 h    0.877 --   265 o    0.782
   267   1 h    0.918 --   265 o    0.912
   268   8 o    1.871 --   270 h    0.825   269 h    0.809
   269   1 h    0.890 --   268 o    0.809
   270   1 h    0.893 --   268 o    0.825
   271   8 o    1.879 --   272 h    0.848   273 h    0.813
   272   1 h    0.896 --   271 o    0.848
   273   1 h    0.885 --   271 o    0.813
   274   8 o    1.834 --   276 h    0.815   275 h    0.808
   275   1 h    0.877 --   274 o    0.808
   276   1 h    0.874 --   274 o    0.815
   277   8 o    1.842 --   279 h    0.871   278 h    0.860
   278   1 h    0.892 --   277 o    0.860
   279   1 h    0.902 --   277 o    0.871
   280   8 o    1.820 --   282 h    0.861   281 h    0.860
   281   1 h    0.903 --   280 o    0.860
   282   1 h    0.900 --   280 o    0.861
   283   8 o    1.828 --   285 h    0.849   284 h    0.782
   284   1 h    0.876 --   283 o    0.782
   285   1 h    0.898 --   283 o    0.849
   286   8 o    1.876 --   288 h    0.843   287 h    0.778
   287   1 h    0.883 --   286 o    0.778
   288   1 h    0.894 --   286 o    0.843
   289   8 o    1.843 --   290 h    0.884   291 h    0.825
   290   1 h    0.904 --   289 o    0.884
   291   1 h    0.875 --   289 o    0.825
   292   8 o    1.870 --   294 h    0.864   293 h    0.841
   293   1 h    0.882 --   292 o    0.841
   294   1 h    0.896 --   292 o    0.864
   295   8 o    1.820 --   297 h    0.846   296 h    0.835
   296   1 h    0.893 --   295 o    0.835
   297   1 h    0.897 --   295 o    0.846
   298   8 o    1.847 --   299 h    0.867   300 h    0.803
   299   1 h    0.902 --   298 o    0.867
   300   1 h    0.877 --   298 o    0.803
   301   8 o    1.876 --   302 h    0.907   303 h    0.764
   302   1 h    0.914 --   301 o    0.907
   303   1 h    0.875 --   301 o    0.764   391 o    0.107
   304   8 o    1.843 --   306 h    0.869   305 h    0.835
   305   1 h    0.889 --   304 o    0.835
   306   1 h    0.899 --   304 o    0.869
   307   8 o    1.874 --   309 h    0.844   308 h    0.797
   308   1 h    0.874 --   307 o    0.797
   309   1 h    0.895 --   307 o    0.844
   310   8 o    1.827 --   312 h    0.826   311 h    0.812
   311   1 h    0.875 --   310 o    0.812
   312   1 h    0.888 --   310 o    0.826
   313   8 o    1.828 --   314 h    0.871   315 h    0.852
   314   1 h    0.900 --   313 o    0.871
   315   1 h    0.895 --   313 o    0.852
   316   8 o    1.881 --   317 h    0.833   318 h    0.832
   317   1 h    0.888 --   316 o    0.833
   318   1 h    0.883 --   316 o    0.832
   319   8 o    1.846 --   320 h    0.849   321 h    0.825
   320   1 h    0.886 --   319 o    0.849
   321   1 h    0.891 --   319 o    0.825
   322   8 o    1.844 --   323 h    0.864   324 h    0.829
   323   1 h    0.897 --   322 o    0.864
   324   1 h    0.890 --   322 o    0.829
   325   8 o    1.871 --   326 h    0.822   327 h    0.816
   326   1 h    0.876 --   325 o    0.822
   327   1 h    0.887 --   325 o    0.816
   328   8 o    1.879 --   329 h    0.860   330 h    0.802
   329   1 h    0.895 --   328 o    0.860
   330   1 h    0.881 --   328 o    0.802
   331   8 o    1.857 --   332 h    0.912   333 h    0.782
   332   1 h    0.919 --   331 o    0.912
   333   1 h    0.874 --   331 o    0.782
   334   8 o    1.877 --   336 h    0.913   335 h    0.820
   335   1 h    0.885 --   334 o    0.820
   336   1 h    0.918 --   334 o    0.913
   337   8 o    1.842 --   338 h    0.885   339 h    0.832
   338   1 h    0.897 --   337 o    0.885
   339   1 h    0.888 --   337 o    0.832
   340   8 o    1.843 --   341 h    0.839   342 h    0.791
   341   1 h    0.894 --   340 o    0.839
   342   1 h    0.875 --   340 o    0.791
   343   8 o    1.869 --   344 h    0.874   345 h    0.819
   344   1 h    0.898 --   343 o    0.874
   345   1 h    0.879 --   343 o    0.819
   346   8 o    1.852 --   348 h    0.847   347 h    0.843
   347   1 h    0.885 --   346 o    0.843
   348   1 h    0.883 --   346 o    0.847
   349   8 o    1.882 --   351 h    0.846   350 h    0.808
   350   1 h    0.877 --   349 o    0.808
   351   1 h    0.891 --   349 o    0.846
   352   8 o    1.845 --   354 h    0.851   353 h    0.832
   353   1 h    0.886 --   352 o    0.832
   354   1 h    0.894 --   352 o    0.851
   355   8 o    1.843 --   357 h    0.868   356 h    0.821
   356   1 h    0.891 --   355 o    0.821
   357   1 h    0.896 --   355 o    0.868
   358   8 o    1.862 --   359 h    0.912   360 h    0.778
   359   1 h    0.920 --   358 o    0.912
   360   1 h    0.877 --   358 o    0.778
   361   8 o    1.852 --   363 h    0.840   362 h    0.775
   362   1 h    0.884 --   361 o    0.775   436 o    0.100
   363   1 h    0.891 --   361 o    0.840
   364   8 o    1.835 --   366 h    0.913   365 h    0.784
   365   1 h    0.876 --   364 o    0.784
   366   1 h    0.920 --   364 o    0.913
   367   8 o    1.885 --   368 h    0.852   369 h    0.789
   368   1 h    0.891 --   367 o    0.852
   369   1 h    0.879 --   367 o    0.789
   370   8 o    1.836 --   372 h    0.835   371 h    0.784
   371   1 h    0.872 --   370 o    0.784
   372   1 h    0.897 --   370 o    0.835
   373   8 o    1.855 --   375 h    0.870   374 h    0.782
   374   1 h    0.868 --   373 o    0.782
   375   1 h    0.900 --   373 o    0.870
   376   8 o    1.862 --   378 h    0.909   377 h    0.769
   377   1 h    0.869 --   376 o    0.769
   378   1 h    0.916 --   376 o    0.909
   379   8 o    1.877 --   380 h    0.894   381 h    0.807
   380   1 h    0.906 --   379 o    0.894
   381   1 h    0.875 --   379 o    0.807
   382   8 o    1.869 --   383 h    0.855   384 h    0.802
   383   1 h    0.896 --   382 o    0.855
   384   1 h    0.879 --   382 o    0.802
   385   8 o    1.855 --   387 h    0.825   386 h    0.818
   386   1 h    0.889 --   385 o    0.818
   387   1 h    0.884 --   385 o    0.825
   388   8 o    1.860 --   389 h    0.837   390 h    0.835
   389   1 h    0.891 --   388 o    0.837
   390   1 h    0.894 --   388 o    0.835
   391   8 o    1.887 --   392 h    0.880   393 h    0.811   303 h    0.107
   392   1 h    0.900 --   391 o    0.880
   393   1 h    0.884 --   391 o    0.811
   394   8 o    1.886 --   396 h    0.850   395 h    0.806
   395   1 h    0.881 --   394 o    0.806
   396   1 h    0.897 --   394 o    0.850
   397   8 o    1.839 --   398 h    0.882   399 h    0.863
   398   1 h    0.900 --   397 o    0.882
   399   1 h    0.895 --   397 o    0.863
   400   8 o    1.885 --   401 h    0.867   402 h    0.796
   401   1 h    0.893 --   400 o    0.867
   402   1 h    0.876 --   400 o    0.796
   403   8 o    1.847 --   404 h    0.863   405 h    0.841
   404   1 h    0.894 --   403 o    0.863
   405   1 h    0.890 --   403 o    0.841
   406   8 o    1.826 --   408 h    0.877   407 h    0.846
   407   1 h    0.892 --   406 o    0.846
   408   1 h    0.903 --   406 o    0.877
   409   8 o    1.828 --   411 h    0.862   410 h    0.848
   410   1 h    0.897 --   409 o    0.848
   411   1 h    0.901 --   409 o    0.862
   412   8 o    1.845 --   414 h    0.918   413 h    0.789
   413   1 h    0.876 --   412 o    0.789
   414   1 h    0.923 --   412 o    0.918
   415   8 o    1.834 --   416 h    0.849   417 h    0.823
   416   1 h    0.893 --   415 o    0.849
   417   1 h    0.892 --   415 o    0.823
   418   8 o    1.837 --   419 h    0.860   420 h    0.851
   419   1 h    0.902 --   418 o    0.860
   420   1 h    0.892 --   418 o    0.851
   421   8 o    1.877 --   423 h    0.917   422 h    0.793
   422   1 h    0.872 --   421 o    0.793
   423   1 h    0.921 --   421 o    0.917
   424   8 o    1.875 --   425 h    0.818   426 h    0.808
   425   1 h    0.890 --   424 o    0.818
   426   1 h    0.890 --   424 o    0.808
   427   8 o    1.863 --   428 h    0.837   429 h    0.830
   428   1 h    0.892 --   427 o    0.837
   429   1 h    0.890 --   427 o    0.830
   430   8 o    1.855 --   431 h    0.830   432 h    0.784
   431   1 h    0.894 --   430 o    0.830
   432   1 h    0.870 --   430 o    0.784
   433   8 o    1.856 --   434 h    0.859   435 h    0.833
   434   1 h    0.899 --   433 o    0.859
   435   1 h    0.892 --   433 o    0.833
   436   8 o    1.888 --   438 h    0.860   437 h    0.836   362 h    0.100
   437   1 h    0.892 --   436 o    0.836
   438   1 h    0.898 --   436 o    0.860
   439   8 o    1.878 --   440 h    0.891   441 h    0.831
   440   1 h    0.902 --   439 o    0.891
   441   1 h    0.886 --   439 o    0.831
   442   8 o    1.836 --   443 h    0.884   444 h    0.809
   443   1 h    0.905 --   442 o    0.884
   444   1 h    0.879 --   442 o    0.809
   445   8 o    1.835 --   446 h    0.891   447 h    0.816
   446   1 h    0.907 --   445 o    0.891
   447   1 h    0.882 --   445 o    0.816
   448   8 o    1.863 --   449 h    0.819   450 h    0.798
   449   1 h    0.889 --   448 o    0.819
   450   1 h    0.873 --   448 o    0.798
   451   8 o    1.857 --   452 h    0.884   453 h    0.802
   452   1 h    0.906 --   451 o    0.884
   453   1 h    0.875 --   451 o    0.802
   454   8 o    1.860 --   456 h    0.853   455 h    0.832
   455   1 h    0.884 --   454 o    0.832
   456   1 h    0.900 --   454 o    0.853
   457   8 o    1.862 --   459 h    0.867   458 h    0.865
   458   1 h    0.896 --   457 o    0.865
   459   1 h    0.894 --   457 o    0.867
   460   8 o    1.903 --   461 h    0.835   462 h    0.813
   461   1 h    0.876 --   460 o    0.835
   462   1 h    0.879 --   460 o    0.813
   463   8 o    1.811 --   464 h    0.864   465 h    0.810
   464   1 h    0.905 --   463 o    0.864
   465   1 h    0.879 --   463 o    0.810
   466   8 o    1.857 --   468 h    0.870   467 h    0.867
   467   1 h    0.894 --   466 o    0.867
   468   1 h    0.898 --   466 o    0.870
   469   8 o    1.854 --   470 h    0.871   471 h    0.858
   470   1 h    0.896 --   469 o    0.871
   471   1 h    0.892 --   469 o    0.858
   472   8 o    1.859 --   473 h    0.848   474 h    0.840
   473   1 h    0.894 --   472 o    0.848
   474   1 h    0.889 --   472 o    0.840
   475   8 o    1.860 --   477 h    0.901   476 h    0.830
   476   1 h    0.874 --   475 o    0.830
   477   1 h    0.910 --   475 o    0.901
   478   8 o    1.858 --   479 h    0.871   480 h    0.838
   479   1 h    0.898 --   478 o    0.871
   480   1 h    0.893 --   478 o    0.838
   481   8 o    1.866 --   482 h    0.868   483 h    0.795
   482   1 h    0.902 --   481 o    0.868
   483   1 h    0.874 --   481 o    0.795
   484   8 o    1.876 --   486 h    0.805   485 h    0.804
   485   1 h    0.881 --   484 o    0.804
   486   1 h    0.877 --   484 o    0.805
   487   8 o    1.862 --   488 h    0.853   489 h    0.835
   488   1 h    0.894 --   487 o    0.853
   489   1 h    0.892 --   487 o    0.835
   490   8 o    1.866 --   492 h    0.829   491 h    0.799
   491   1 h    0.880 --   490 o    0.799
   492   1 h    0.892 --   490 o    0.829
   493   8 o    1.875 --   494 h    0.855   495 h    0.795
   494   1 h    0.894 --   493 o    0.855
   495   1 h    0.871 --   493 o    0.795
   496   8 o    1.841 --   498 h    0.868   497 h    0.853
   497   1 h    0.899 --   496 o    0.853
   498   1 h    0.899 --   496 o    0.868
   499   8 o    1.861 --   501 h    0.857   500 h    0.835
   500   1 h    0.883 --   499 o    0.835
   501   1 h    0.895 --   499 o    0.857
   502   8 o    1.869 --   504 h    0.849   503 h    0.847
   503   1 h    0.892 --   502 o    0.847
   504   1 h    0.889 --   502 o    0.849
   505   8 o    1.856 --   506 h    0.846   507 h    0.809
   506   1 h    0.893 --   505 o    0.846
   507   1 h    0.879 --   505 o    0.809
   508   8 o    1.899 --   510 h    0.801   509 h    0.795
   509   1 h    0.872 --   508 o    0.795
   510   1 h    0.887 --   508 o    0.801
   511   8 o    1.850 --   513 h    0.883   512 h    0.845
   512   1 h    0.882 --   511 o    0.845
   513   1 h    0.902 --   511 o    0.883
   514   8 o    1.857 --   516 h    0.902   515 h    0.810
   515   1 h    0.880 --   514 o    0.810
   516   1 h    0.909 --   514 o    0.902
   517   8 o    1.870 --   519 h    0.846   518 h    0.826
   518   1 h    0.885 --   517 o    0.826
   519   1 h    0.892 --   517 o    0.846
   520   8 o    1.842 --   522 h    0.801   521 h    0.795
   521   1 h    0.880 --   520 o    0.795
   522   1 h    0.892 --   520 o    0.801
   523   8 o    1.887 --   524 h    0.904   525 h    0.790
   524   1 h    0.910 --   523 o    0.904
   525   1 h    0.874 --   523 o    0.790
   526   8 o    1.851 --   527 h    0.864   528 h    0.807
   527   1 h    0.889 --   526 o    0.864
   528   1 h    0.864 --   526 o    0.807
   529   8 o    1.828 --   530 h    0.875   531 h    0.861
   530   1 h    0.891 --   529 o    0.875
   531   1 h    0.894 --   529 o    0.861
 ---------------------------------------------------------------------------

Topologies differ in total number of bonds
Writing topology from bond orders to xtbtopo.mol

molecular dipole:
                 x           y           z       tot (Debye)
 q only:        0.901      -0.679       1.094
   full:        1.077      -1.380       1.415       5.721
molecular quadrupole (traceless):
                xx          xy          yy          xz          yz          zz
 q only:       62.625      -4.136     -41.354     -47.845      38.171     -21.271
  q+dip:       70.711     -13.971     -44.635     -82.599      47.909     -26.076
   full:       70.265     -15.049     -43.944     -83.712      48.247     -26.321


           -------------------------------------------------
          | TOTAL ENERGY             -901.187605966326 Eh   |
          | GRADIENT NORM               0.100591799782 Eh/α |
          | HOMO-LUMO GAP               6.229624104697 eV   |
           -------------------------------------------------

------------------------------------------------------------------------
 * finished run on 2022/11/17 at 06:55:18.340     
------------------------------------------------------------------------
 total:
 * wall-time:     0 d,  0 h,  0 min, 18.603 sec
 *  cpu-time:     0 d,  0 h,  0 min, 24.998 sec
 * ratio c/w:     1.344 speedup
 SCF:
 * wall-time:     0 d,  0 h,  0 min, 18.069 sec
 *  cpu-time:     0 d,  0 h,  0 min, 23.994 sec
 * ratio c/w:     1.328 speedup

