      -----------------------------------------------------------      
     |                   =====================                   |     
     |                           x T B                           |     
     |                   =====================                   |     
     |                         S. Grimme                         |     
     |          Mulliken Center for Theoretical Chemistry        |     
     |                    University of Bonn                     |     
      -----------------------------------------------------------      

   * xtb version 6.5.1 (579679a) compiled by 'ehlert@majestix' on 2022-07-11

   xtb is free software: you can redistribute it and/or modify it under
   the terms of the GNU Lesser General Public License as published by
   the Free Software Foundation, either version 3 of the License, or
   (at your option) any later version.
   
   xtb is distributed in the hope that it will be useful,
   but WITHOUT ANY WARRANTY; without even the implied warranty of
   MERCHANTABILITY or FITNESS FOR A PARTICULAR PURPOSE.  See the
   GNU Lesser General Public License for more details.
   
   Cite this work as:
   * C. Bannwarth, E. Caldeweyher, S. Ehlert, A. Hansen, P. Pracht,
     J. Seibert, S. Spicher, S. Grimme, WIREs Comput. Mol. Sci., 2020, 11,
     e01493. DOI: 10.1002/wcms.1493
   
   for GFN2-xTB:
   * C. Bannwarth, S. Ehlert and S. Grimme., J. Chem. Theory Comput., 2019,
     15, 1652-1671. DOI: 10.1021/acs.jctc.8b01176
   for GFN1-xTB:
   * S. Grimme, C. Bannwarth, P. Shushkov, J. Chem. Theory Comput., 2017,
     13, 1989-2009. DOI: 10.1021/acs.jctc.7b00118
   for GFN0-xTB:
   * P. Pracht, E. Caldeweyher, S. Ehlert, S. Grimme, ChemRxiv, 2019, preprint.
     DOI: 10.26434/chemrxiv.8326202.v1
   for GFN-FF:
   * S. Spicher and S. Grimme, Angew. Chem. Int. Ed., 2020, 59, 15665-15673.
     DOI: 10.1002/anie.202004239
   
   for ALPB and GBSA implicit solvation:
   * S. Ehlert, M. Stahn, S. Spicher, S. Grimme, J. Chem. Theory Comput.,
     2021, 17, 4250-4261. DOI: 10.1021/acs.jctc.1c00471
   
   for DFT-D4:
   * E. Caldeweyher, C. Bannwarth and S. Grimme, J. Chem. Phys., 2017,
     147, 034112. DOI: 10.1063/1.4993215
   * E. Caldeweyher, S. Ehlert, A. Hansen, H. Neugebauer, S. Spicher,
     C. Bannwarth and S. Grimme, J. Chem. Phys., 2019, 150, 154122.
     DOI: 10.1063/1.5090222
   * E. Caldeweyher, J.-M. Mewes, S. Ehlert and S. Grimme, Phys. Chem. Chem. Phys.
     2020, 22, 8499-8512. DOI: 10.1039/D0CP00502A
   
   for sTDA-xTB:
   * S. Grimme and C. Bannwarth, J. Chem. Phys., 2016, 145, 054103.
     DOI: 10.1063/1.4959605
   
   in the mass-spec context:
   * V. Asgeirsson, C. Bauer and S. Grimme, Chem. Sci., 2017, 8, 4879.
     DOI: 10.1039/c7sc00601b
   * J. Koopman and S. Grimme, ACS Omega 2019, 4, 12, 15120-15133.
     DOI: 10.1021/acsomega.9b02011
   
   for metadynamics refer to:
   * S. Grimme, J. Chem. Theory Comput., 2019, 155, 2847-2862
     DOI: 10.1021/acs.jctc.9b00143
   
   for SPH calculations refer to:
   * S. Spicher and S. Grimme, J. Chem. Theory Comput., 2021, 17, 1701-1714
     DOI: 10.1021/acs.jctc.0c01306
   
   with help from (in alphabetical order)
   P. Atkinson, C. Bannwarth, F. Bohle, G. Brandenburg, E. Caldeweyher
   M. Checinski, S. Dohm, S. Ehlert, S. Ehrlich, I. Gerasimov, C. Hölzer
   A. Katbashev, J. Koopman, C. Lavigne, S. Lehtola, F. März, M. Müller,
   F. Musil, H. Neugebauer, J. Pisarek, C. Plett, P. Pracht, F. Pultar,
   J. Seibert, P. Shushkov, S. Spicher, M. Stahn, M. Steiner, T. Strunk,
   J. Stückrath, T. Rose, and J. Unsleber
   
 * started run on 2022/11/17 at 06:54:49.176     

           -------------------------------------------------
          |                Calculation Setup                |
           -------------------------------------------------

          program call               : xtb xtbopt.coord --gfn2 --sp --gbsa water
          hostname                   : cn0363
          coordinate file            : xtbopt.coord
          omp threads                :                     2

   ID    Z sym.   atoms
    1    8 o      1, 4, 7, 10, 13, 16, 19, 22, 25, 28, 31, 34, 37, 40, 43,
                  46, 49, 52, 55, 58, 61, 64, 67, 70, 73, 76, 79, 82, 85, 88,
                  91, 94, 97, 100, 103, 106, 109, 112, 115, 118, 121, 124,
                  127, 130, 133, 136, 139, 142, 145, 148, 151, 154, 157, 160,
                  163, 166, 169, 172, 175, 178, 181, 184, 187, 190, 193, 196,
                  199, 202, 205, 208, 211, 214, 217, 220, 223, 226, 229, 232,
                  235, 238, 241, 244, 247, 250, 253, 256, 259, 262, 265, 268,
                  271, 274, 277, 280, 283, 286, 289, 292, 295, 298, 301, 304,
                  307, 310, 313, 316, 319, 322, 325, 328, 331, 334, 337, 340,
                  343, 346, 349, 352, 355, 358, 361, 364, 367, 370, 373, 376,
                  379, 382, 385, 388, 391, 394, 397, 400, 403, 406, 409, 412,
                  415, 418, 421, 424, 427, 430, 433, 436, 439, 442, 445, 448,
                  451, 454, 457, 460, 463, 466, 469, 472, 475, 478, 481, 484,
                  487, 490, 493, 496, 499, 502, 505, 508, 511, 514, 517, 520,
                  523, 526, 529
    2    1 h      2, 3, 5, 6, 8, 9, 11, 12, 14, 15, 17, 18, 20, 21, 23, 24,
                  26, 27, 29, 30, 32, 33, 35, 36, 38, 39, 41, 42, 44, 45, 47,
                  48, 50, 51, 53, 54, 56, 57, 59, 60, 62, 63, 65, 66, 68, 69,
                  71, 72, 74, 75, 77, 78, 80, 81, 83, 84, 86, 87, 89, 90, 92,
                  93, 95, 96, 98, 99, 101, 102, 104, 105, 107, 108, 110, 111,
                  113, 114, 116, 117, 119, 120, 122, 123, 125, 126, 128, 129,
                  131, 132, 134, 135, 137, 138, 140, 141, 143, 144, 146, 147,
                  149, 150, 152, 153, 155, 156, 158, 159, 161, 162, 164, 165,
                  167, 168, 170, 171, 173, 174, 176, 177, 179, 180, 182, 183,
                  185, 186, 188, 189, 191, 192, 194, 195, 197, 198, 200, 201,
                  203, 204, 206, 207, 209, 210, 212, 213, 215, 216, 218, 219,
                  221, 222, 224, 225, 227, 228, 230, 231, 233, 234, 236, 237,
                  239, 240, 242, 243, 245, 246, 248, 249, 251, 252, 254, 255,
                  257, 258, 260, 261, 263, 264, 266, 267, 269, 270, 272, 273,
                  275, 276, 278, 279, 281, 282, 284, 285, 287, 288, 290, 291,
                  293, 294, 296, 297, 299, 300, 302, 303, 305, 306, 308, 309,
                  311, 312, 314, 315, 317, 318, 320, 321, 323, 324, 326, 327,
                  329, 330, 332, 333, 335, 336, 338, 339, 341, 342, 344, 345,
                  347, 348, 350, 351, 353, 354, 356, 357, 359, 360, 362, 363,
                  365, 366, 368, 369, 371, 372, 374, 375, 377, 378, 380, 381,
                  383, 384, 386, 387, 389, 390, 392, 393, 395, 396, 398, 399,
                  401, 402, 404, 405, 407, 408, 410, 411, 413, 414, 416, 417,
                  419, 420, 422, 423, 425, 426, 428, 429, 431, 432, 434, 435,
                  437, 438, 440, 441, 443, 444, 446, 447, 449, 450, 452, 453,
                  455, 456, 458, 459, 461, 462, 464, 465, 467, 468, 470, 471,
                  473, 474, 476, 477, 479, 480, 482, 483, 485, 486, 488, 489,
                  491, 492, 494, 495, 497, 498, 500, 501, 503, 504, 506, 507,
                  509, 510, 512, 513, 515, 516, 518, 519, 521, 522, 524, 525,
                  527, 528, 530, 531

molecular fragmentation (1/2 indicates fragments):
111222222222222222222222222222222222222222222222222222222222222222222222
222222222222222222222222222222222222222222222222222222222222222222222222
222222222222222222222222222222222222222222222222222222222222222222222222
222222222222222222222222222222222222222222222222222222222222222222222222
222222222222222222222222222222222222222222222222222222222222222222222222
222222222222222222222222222222222222222222222222222222222222222222222222
222222222222222222222222222222222222222222222222222222222222222222222222
222222222222222222222222222
# atoms in fragment 1/2:     3   528
 fragment masses (1/2) :       18.02     3170.69
CMA distance (Bohr)    :   5.821
constraining FC (au)   :  0.0500

           -------------------------------------------------
          |                 G F N 2 - x T B                 |
           -------------------------------------------------

        Reference                      10.1021/acs.jctc.8b01176
      * Hamiltonian:
        H0-scaling (s, p, d)           1.850000    2.230000    2.230000
        zeta-weighting                 0.500000
      * Dispersion:
        s8                             2.700000
        a1                             0.520000
        a2                             5.000000
        s9                             5.000000
      * Repulsion:
        kExp                           1.500000    1.000000
        rExp                           1.000000
      * Coulomb:
        alpha                          2.000000
        third order                    shell-resolved
        anisotropic                    true
        a3                             3.000000
        a5                             4.000000
        cn-shift                       1.200000
        cn-exp                         4.000000
        max-rad                        5.000000

      * Solvation model:               GBSA
        Solvent                        water
        Parameter file                 internal GFN2-xTB/GBSA
        Dielectric constant                8.0200E+01
        Reference state                gsolv [1 M gas/solution]
        Free energy shift                  1.8574E-03 Eh       1.1656E+00 kcal/mol
        Temperature                        2.9815E+02 K
        Density                            1.0000E+00 kg/L
        Solvent mass                       1.8000E+01 g/mol
        Interaction kernel             Still
        Born radius scaling (c1)           1.5524E+00
        Born radii integrator          GBOBC
        Born offset                        2.4628E-02 a0       4.6540E-02 AA
        H-bond correction              true
        Ion screening                  false
        Surface tension                    1.0000E-05 Eh       1.5569E+01 dyn/cm
        Grid points                               230 per atom

          ...................................................
          :                      SETUP                      :
          :.................................................:
          :  # basis functions                1062          :
          :  # atomic orbitals                1062          :
          :  # shells                          708          :
          :  # electrons                      1416          :
          :  max. iterations                   250          :
          :  Hamiltonian                  GFN2-xTB          :
          :  restarted?                      false          :
          :  GBSA solvation                   true          :
          :  PC potential                    false          :
          :  electronic temp.          300.0000000     K    :
          :  accuracy                    1.0000000          :
          :  -> integral cutoff          0.2500000E+02      :
          :  -> integral neglect         0.1000000E-07      :
          :  -> SCF convergence          0.1000000E-05 Eh   :
          :  -> wf. convergence          0.1000000E-03 e    :
          :  Broyden damping             0.4000000          :
          ...................................................

 iter      E             dE          RMSdq      gap      omega  full diag
   1   -906.7511189 -0.906751E+03  0.408E+00    8.71       0.0  T
   2   -906.8137566 -0.626377E-01  0.241E+00    8.05       1.0  T
   3   -906.8391023 -0.253457E-01  0.228E-01    7.09       1.0  T
   4   -906.8431309 -0.402861E-02  0.494E-02    7.33       1.0  T
   5   -906.8432565 -0.125563E-03  0.313E-02    7.27       1.0  T
   6   -906.8432901 -0.335988E-04  0.362E-03    7.28       1.2  T
   7   -906.8432912 -0.107133E-05  0.863E-04    7.28       5.0  T
   8   -906.8432912 -0.401451E-07  0.460E-04    7.28       9.4  T
   9   -906.8432912 -0.196816E-07  0.110E-04    7.28      39.4  T

   *** convergence criteria satisfied after 9 iterations ***

         #    Occupation            Energy/Eh            Energy/eV
      -------------------------------------------------------------
         1        2.0000           -0.6578730             -17.9016
       ...           ...                  ...                  ...
       702        2.0000           -0.3509835              -9.5507
       703        2.0000           -0.3488994              -9.4940
       704        2.0000           -0.3416665              -9.2972
       705        2.0000           -0.3407763              -9.2730
       706        2.0000           -0.3341918              -9.0938
       707        2.0000           -0.3333215              -9.0701
       708        2.0000           -0.3183629              -8.6631 (HOMO)
       709                         -0.0507442              -1.3808 (LUMO)
       710                         -0.0405978              -1.1047
       711                         -0.0279457              -0.7604
       712                         -0.0247099              -0.6724
       713                         -0.0206674              -0.5624
       ...                                ...                  ...
      1062                          0.4891494              13.3104
      -------------------------------------------------------------
                  HL-Gap            0.2676187 Eh            7.2823 eV
             Fermi-level           -0.1845536 Eh           -5.0220 eV

 SCC (total)                   0 d,  0 h,  0 min,  7.407 sec
 SCC setup                      ...        0 min,  0.060 sec (  0.808%)
 Dispersion                     ...        0 min,  0.050 sec (  0.675%)
 classical contributions        ...        0 min,  0.012 sec (  0.156%)
 integral evaluation            ...        0 min,  0.306 sec (  4.127%)
 iterations                     ...        0 min,  2.194 sec ( 29.625%)
 molecular gradient             ...        0 min,  4.759 sec ( 64.254%)
 printout                       ...        0 min,  0.026 sec (  0.355%)

         :::::::::::::::::::::::::::::::::::::::::::::::::::::
         ::                     SUMMARY                     ::
         :::::::::::::::::::::::::::::::::::::::::::::::::::::
         :: total energy            -901.405320144711 Eh    ::
         :: total w/o Gsasa/hb      -901.210119108179 Eh    ::
         :: gradient norm              0.105345629594 Eh/a0 ::
         :: HOMO-LUMO gap              7.282274843537 eV    ::
         ::.................................................::
         :: SCC energy              -906.843291220176 Eh    ::
         :: -> isotropic ES            5.273879605083 Eh    ::
         :: -> anisotropic ES         -1.128654986216 Eh    ::
         :: -> anisotropic XC         -0.086717196180 Eh    ::
         :: -> dispersion             -0.525721182873 Eh    ::
         :: -> Gsolv                  -0.232428982122 Eh    ::
         ::    -> Gelec               -0.037227945591 Eh    ::
         ::    -> Gsasa                0.003860122157 Eh    ::
         ::    -> Ghb                 -0.200918601815 Eh    ::
         ::    -> Gshift               0.001857443127 Eh    ::
         :: repulsion energy           5.345429873528 Eh    ::
         :: add. restraining           0.000000000000 Eh    ::
         :: total charge              -0.000000000000 e     ::
         :::::::::::::::::::::::::::::::::::::::::::::::::::::

           -------------------------------------------------
          |                Property Printout                |
           -------------------------------------------------

    * Orbital Energies and Occupations

         #    Occupation            Energy/Eh            Energy/eV
      -------------------------------------------------------------
         1        2.0000           -0.6578730             -17.9016
       ...           ...                  ...                  ...
       696        2.0000           -0.3571985              -9.7199
       697        2.0000           -0.3569456              -9.7130
       698        2.0000           -0.3566295              -9.7044
       699        2.0000           -0.3560519              -9.6887
       700        2.0000           -0.3530594              -9.6072
       701        2.0000           -0.3517467              -9.5715
       702        2.0000           -0.3509835              -9.5507
       703        2.0000           -0.3488994              -9.4940
       704        2.0000           -0.3416665              -9.2972
       705        2.0000           -0.3407763              -9.2730
       706        2.0000           -0.3341918              -9.0938
       707        2.0000           -0.3333215              -9.0701
       708        2.0000           -0.3183629              -8.6631 (HOMO)
       709                         -0.0507442              -1.3808 (LUMO)
       710                         -0.0405978              -1.1047
       711                         -0.0279457              -0.7604
       712                         -0.0247099              -0.6724
       713                         -0.0206674              -0.5624
       714                         -0.0134269              -0.3654
       715                         -0.0059974              -0.1632
       716                         -0.0003412              -0.0093
       717                          0.0036494               0.0993
       718                          0.0086071               0.2342
       719                          0.0113081               0.3077
       ...                                ...                  ...
      1062                          0.4891494              13.3104
      -------------------------------------------------------------
                  HL-Gap            0.2676187 Eh            7.2823 eV
             Fermi-level           -0.1845536 Eh           -5.0220 eV

     #   Z          covCN         q      C6AA      α(0)
     1   8 o        1.610    -0.654    26.519     6.950
     2   1 h        0.805     0.341     0.609     1.225
     3   1 h        0.804     0.333     0.630     1.247
     4   8 o        1.607    -0.681    27.214     7.041
     5   1 h        0.803     0.342     0.608     1.224
     6   1 h        0.803     0.355     0.576     1.192
     7   8 o        1.609    -0.675    27.057     7.020
     8   1 h        0.805     0.338     0.616     1.233
     9   1 h        0.805     0.340     0.611     1.228
    10   8 o        1.606    -0.674    27.024     7.016
    11   1 h        0.803     0.340     0.612     1.229
    12   1 h        0.803     0.350     0.589     1.206
    13   8 o        1.605    -0.690    27.439     7.070
    14   1 h        0.802     0.351     0.586     1.202
    15   1 h        0.803     0.333     0.630     1.247
    16   8 o        1.606    -0.687    27.362     7.060
    17   1 h        0.803     0.349     0.590     1.207
    18   1 h        0.804     0.330     0.639     1.255
    19   8 o        1.608    -0.685    27.312     7.053
    20   1 h        0.804     0.345     0.601     1.218
    21   1 h        0.804     0.350     0.588     1.205
    22   8 o        1.606    -0.697    27.643     7.096
    23   1 h        0.805     0.322     0.658     1.274
    24   1 h        0.802     0.357     0.573     1.189
    25   8 o        1.607    -0.685    27.326     7.055
    26   1 h        0.803     0.345     0.600     1.217
    27   1 h        0.803     0.343     0.604     1.221
    28   8 o        1.608    -0.671    26.957     7.007
    29   1 h        0.804     0.350     0.588     1.204
    30   1 h        0.804     0.347     0.594     1.211
    31   8 o        1.608    -0.676    27.081     7.024
    32   1 h        0.804     0.323     0.655     1.271
    33   1 h        0.804     0.329     0.640     1.257
    34   8 o        1.607    -0.694    27.541     7.083
    35   1 h        0.803     0.349     0.591     1.207
    36   1 h        0.803     0.342     0.606     1.223
    37   8 o        1.605    -0.695    27.590     7.089
    38   1 h        0.804     0.347     0.595     1.211
    39   1 h        0.803     0.339     0.614     1.231
    40   8 o        1.608    -0.665    26.804     6.987
    41   1 h        0.804     0.349     0.590     1.207
    42   1 h        0.804     0.354     0.580     1.196
    43   8 o        1.607    -0.659    26.649     6.967
    44   1 h        0.803     0.327     0.646     1.262
    45   1 h        0.805     0.323     0.655     1.271
    46   8 o        1.608    -0.680    27.185     7.037
    47   1 h        0.804     0.336     0.623     1.240
    48   1 h        0.804     0.331     0.633     1.250
    49   8 o        1.607    -0.668    26.882     6.998
    50   1 h        0.803     0.334     0.628     1.245
    51   1 h        0.804     0.343     0.605     1.222
    52   8 o        1.608    -0.669    26.910     7.001
    53   1 h        0.805     0.310     0.691     1.306
    54   1 h        0.804     0.336     0.622     1.239
    55   8 o        1.606    -0.694    27.544     7.083
    56   1 h        0.803     0.337     0.620     1.237
    57   1 h        0.802     0.364     0.556     1.172
    58   8 o        1.608    -0.693    27.530     7.081
    59   1 h        0.804     0.350     0.589     1.206
    60   1 h        0.803     0.354     0.578     1.195
    61   8 o        1.606    -0.698    27.666     7.099
    62   1 h        0.803     0.344     0.604     1.221
    63   1 h        0.803     0.323     0.657     1.273
    64   8 o        1.607    -0.679    27.152     7.033
    65   1 h        0.803     0.340     0.613     1.230
    66   1 h        0.804     0.335     0.624     1.240
    67   8 o        1.607    -0.659    26.655     6.968
    68   1 h        0.805     0.325     0.649     1.266
    69   1 h        0.802     0.338     0.618     1.235
    70   8 o        1.607    -0.657    26.599     6.961
    71   1 h        0.805     0.332     0.633     1.250
    72   1 h        0.802     0.339     0.616     1.233
    73   8 o        1.607    -0.674    27.040     7.018
    74   1 h        0.804     0.344     0.602     1.219
    75   1 h        0.804     0.344     0.602     1.219
    76   8 o        1.609    -0.678    27.120     7.029
    77   1 h        0.804     0.345     0.600     1.217
    78   1 h        0.805     0.330     0.637     1.254
    79   8 o        1.608    -0.660    26.677     6.971
    80   1 h        0.804     0.322     0.657     1.274
    81   1 h        0.804     0.338     0.616     1.233
    82   8 o        1.607    -0.666    26.821     6.990
    83   1 h        0.803     0.331     0.636     1.253
    84   1 h        0.804     0.335     0.623     1.240
    85   8 o        1.609    -0.677    27.102     7.026
    86   1 h        0.804     0.341     0.611     1.228
    87   1 h        0.805     0.331     0.634     1.250
    88   8 o        1.609    -0.671    26.961     7.008
    89   1 h        0.804     0.346     0.597     1.214
    90   1 h        0.804     0.325     0.650     1.267
    91   8 o        1.608    -0.673    27.007     7.014
    92   1 h        0.803     0.343     0.605     1.222
    93   1 h        0.804     0.322     0.658     1.274
    94   8 o        1.609    -0.655    26.539     6.953
    95   1 h        0.803     0.343     0.604     1.221
    96   1 h        0.805     0.323     0.656     1.273
    97   8 o        1.609    -0.680    27.194     7.038
    98   1 h        0.805     0.328     0.641     1.258
    99   1 h        0.804     0.334     0.628     1.245
   100   8 o        1.608    -0.667    26.843     6.993
   101   1 h        0.804     0.327     0.645     1.261
   102   1 h        0.804     0.320     0.664     1.280
   103   8 o        1.607    -0.688    27.402     7.065
   104   1 h        0.803     0.338     0.617     1.233
   105   1 h        0.804     0.341     0.610     1.227
   106   8 o        1.608    -0.679    27.164     7.034
   107   1 h        0.802     0.348     0.592     1.209
   108   1 h        0.806     0.316     0.675     1.290
   109   8 o        1.607    -0.672    26.967     7.009
   110   1 h        0.803     0.333     0.629     1.246
   111   1 h        0.804     0.353     0.581     1.197
   112   8 o        1.607    -0.676    27.092     7.025
   113   1 h        0.803     0.363     0.560     1.176
   114   1 h        0.804     0.335     0.623     1.240
   115   8 o        1.608    -0.679    27.151     7.033
   116   1 h        0.803     0.345     0.601     1.217
   117   1 h        0.805     0.331     0.636     1.253
   118   8 o        1.608    -0.671    26.946     7.006
   119   1 h        0.805     0.322     0.658     1.274
   120   1 h        0.803     0.341     0.611     1.228
   121   8 o        1.608    -0.681    27.207     7.040
   122   1 h        0.805     0.338     0.616     1.233
   123   1 h        0.803     0.360     0.565     1.181
   124   8 o        1.608    -0.685    27.314     7.054
   125   1 h        0.804     0.328     0.642     1.259
   126   1 h        0.803     0.334     0.627     1.244
   127   8 o        1.604    -0.691    27.475     7.074
   128   1 h        0.805     0.317     0.671     1.286
   129   1 h        0.801     0.367     0.550     1.166
   130   8 o        1.607    -0.683    27.256     7.046
   131   1 h        0.804     0.328     0.643     1.260
   132   1 h        0.803     0.359     0.568     1.184
   133   8 o        1.607    -0.701    27.751     7.110
   134   1 h        0.803     0.346     0.597     1.214
   135   1 h        0.803     0.355     0.577     1.194
   136   8 o        1.607    -0.664    26.779     6.984
   137   1 h        0.803     0.336     0.622     1.239
   138   1 h        0.804     0.343     0.604     1.221
   139   8 o        1.606    -0.681    27.222     7.042
   140   1 h        0.805     0.332     0.632     1.249
   141   1 h        0.802     0.365     0.555     1.171
   142   8 o        1.609    -0.663    26.741     6.979
   143   1 h        0.804     0.356     0.574     1.190
   144   1 h        0.805     0.332     0.632     1.249
   145   8 o        1.608    -0.686    27.346     7.058
   146   1 h        0.804     0.355     0.578     1.194
   147   1 h        0.804     0.332     0.633     1.249
   148   8 o        1.606    -0.683    27.276     7.049
   149   1 h        0.803     0.357     0.573     1.189
   150   1 h        0.804     0.324     0.654     1.270
   151   8 o        1.608    -0.674    27.035     7.017
   152   1 h        0.804     0.323     0.656     1.272
   153   1 h        0.804     0.325     0.650     1.266
   154   8 o        1.608    -0.685    27.307     7.053
   155   1 h        0.803     0.356     0.575     1.192
   156   1 h        0.805     0.319     0.666     1.281
   157   8 o        1.608    -0.683    27.270     7.048
   158   1 h        0.804     0.328     0.642     1.258
   159   1 h        0.803     0.356     0.575     1.191
   160   8 o        1.609    -0.669    26.901     7.000
   161   1 h        0.804     0.346     0.598     1.215
   162   1 h        0.805     0.350     0.587     1.204
   163   8 o        1.608    -0.666    26.829     6.991
   164   1 h        0.805     0.327     0.644     1.261
   165   1 h        0.803     0.347     0.594     1.211
   166   8 o        1.609    -0.668    26.872     6.996
   167   1 h        0.804     0.341     0.610     1.227
   168   1 h        0.805     0.334     0.628     1.244
   169   8 o        1.609    -0.665    26.807     6.988
   170   1 h        0.805     0.336     0.621     1.238
   171   1 h        0.805     0.337     0.620     1.237
   172   8 o        1.607    -0.668    26.867     6.996
   173   1 h        0.802     0.352     0.583     1.200
   174   1 h        0.805     0.316     0.675     1.290
   175   8 o        1.608    -0.709    27.958     7.136
   176   1 h        0.804     0.347     0.595     1.212
   177   1 h        0.803     0.341     0.611     1.228
   178   8 o        1.608    -0.670    26.930     7.004
   179   1 h        0.804     0.337     0.619     1.236
   180   1 h        0.805     0.336     0.621     1.238
   181   8 o        1.609    -0.673    27.012     7.015
   182   1 h        0.804     0.328     0.642     1.258
   183   1 h        0.805     0.335     0.624     1.240
   184   8 o        1.608    -0.653    26.499     6.948
   185   1 h        0.804     0.324     0.654     1.271
   186   1 h        0.804     0.323     0.655     1.271
   187   8 o        1.608    -0.661    26.689     6.973
   188   1 h        0.805     0.315     0.677     1.292
   189   1 h        0.803     0.355     0.577     1.193
   190   8 o        1.606    -0.693    27.518     7.080
   191   1 h        0.803     0.351     0.586     1.202
   192   1 h        0.802     0.354     0.580     1.196
   193   8 o        1.604    -0.703    27.804     7.117
   194   1 h        0.802     0.356     0.574     1.190
   195   1 h        0.803     0.347     0.596     1.212
   196   8 o        1.608    -0.676    27.088     7.024
   197   1 h        0.803     0.342     0.608     1.225
   198   1 h        0.805     0.338     0.617     1.234
   199   8 o        1.606    -0.701    27.734     7.108
   200   1 h        0.804     0.332     0.633     1.250
   201   1 h        0.802     0.356     0.575     1.191
   202   8 o        1.608    -0.672    26.989     7.012
   203   1 h        0.805     0.321     0.660     1.277
   204   1 h        0.804     0.348     0.593     1.210
   205   8 o        1.605    -0.679    27.166     7.034
   206   1 h        0.806     0.313     0.682     1.297
   207   1 h        0.801     0.359     0.569     1.185
   208   8 o        1.607    -0.694    27.541     7.083
   209   1 h        0.804     0.325     0.650     1.266
   210   1 h        0.803     0.343     0.604     1.221
   211   8 o        1.608    -0.659    26.635     6.965
   212   1 h        0.805     0.319     0.667     1.283
   213   1 h        0.803     0.336     0.622     1.239
   214   8 o        1.608    -0.671    26.945     7.006
   215   1 h        0.805     0.318     0.670     1.286
   216   1 h        0.804     0.360     0.565     1.181
   217   8 o        1.607    -0.686    27.353     7.059
   218   1 h        0.803     0.339     0.615     1.232
   219   1 h        0.805     0.333     0.631     1.248
   220   8 o        1.607    -0.668    26.873     6.996
   221   1 h        0.803     0.334     0.628     1.244
   222   1 h        0.803     0.334     0.628     1.245
   223   8 o        1.608    -0.655    26.548     6.954
   224   1 h        0.805     0.325     0.651     1.267
   225   1 h        0.803     0.338     0.617     1.234
   226   8 o        1.608    -0.688    27.388     7.063
   227   1 h        0.805     0.331     0.635     1.251
   228   1 h        0.804     0.340     0.613     1.230
   229   8 o        1.609    -0.672    26.987     7.011
   230   1 h        0.803     0.363     0.558     1.174
   231   1 h        0.805     0.312     0.686     1.301
   232   8 o        1.607    -0.686    27.344     7.057
   233   1 h        0.803     0.352     0.583     1.200
   234   1 h        0.804     0.328     0.644     1.260
   235   8 o        1.608    -0.686    27.337     7.057
   236   1 h        0.804     0.330     0.638     1.255
   237   1 h        0.804     0.345     0.600     1.217
   238   8 o        1.606    -0.689    27.424     7.068
   239   1 h        0.802     0.355     0.576     1.192
   240   1 h        0.804     0.332     0.633     1.249
   241   8 o        1.608    -0.657    26.600     6.961
   242   1 h        0.805     0.330     0.637     1.254
   243   1 h        0.803     0.337     0.619     1.236
   244   8 o        1.607    -0.675    27.061     7.021
   245   1 h        0.806     0.317     0.672     1.288
   246   1 h        0.801     0.348     0.593     1.210
   247   8 o        1.608    -0.689    27.427     7.068
   248   1 h        0.804     0.345     0.601     1.218
   249   1 h        0.804     0.344     0.602     1.218
   250   8 o        1.607    -0.681    27.200     7.039
   251   1 h        0.803     0.353     0.580     1.197
   252   1 h        0.804     0.337     0.620     1.237
   253   8 o        1.606    -0.679    27.154     7.033
   254   1 h        0.802     0.337     0.620     1.237
   255   1 h        0.804     0.331     0.635     1.252
   256   8 o        1.609    -0.673    27.006     7.014
   257   1 h        0.805     0.331     0.635     1.252
   258   1 h        0.804     0.332     0.632     1.249
   259   8 o        1.608    -0.670    26.929     7.004
   260   1 h        0.804     0.321     0.662     1.278
   261   1 h        0.804     0.346     0.598     1.215
   262   8 o        1.609    -0.670    26.923     7.003
   263   1 h        0.804     0.331     0.634     1.250
   264   1 h        0.805     0.337     0.620     1.237
   265   8 o        1.606    -0.674    27.024     7.016
   266   1 h        0.801     0.355     0.578     1.195
   267   1 h        0.806     0.313     0.683     1.298
   268   8 o        1.607    -0.668    26.874     6.997
   269   1 h        0.804     0.330     0.636     1.253
   270   1 h        0.803     0.327     0.647     1.263
   271   8 o        1.607    -0.664    26.760     6.982
   272   1 h        0.804     0.329     0.640     1.257
   273   1 h        0.803     0.342     0.608     1.225
   274   8 o        1.607    -0.704    27.811     7.117
   275   1 h        0.803     0.352     0.583     1.199
   276   1 h        0.803     0.358     0.569     1.185
   277   8 o        1.609    -0.671    26.946     7.006
   278   1 h        0.805     0.340     0.612     1.228
   279   1 h        0.805     0.329     0.639     1.255
   280   8 o        1.609    -0.681    27.198     7.039
   281   1 h        0.805     0.325     0.650     1.267
   282   1 h        0.804     0.330     0.638     1.255
   283   8 o        1.606    -0.698    27.665     7.099
   284   1 h        0.803     0.355     0.578     1.194
   285   1 h        0.804     0.323     0.655     1.271
   286   8 o        1.605    -0.676    27.075     7.023
   287   1 h        0.802     0.338     0.617     1.234
   288   1 h        0.804     0.331     0.635     1.252
   289   8 o        1.609    -0.670    26.923     7.003
   290   1 h        0.805     0.322     0.658     1.274
   291   1 h        0.803     0.358     0.570     1.186
   292   8 o        1.608    -0.664    26.763     6.982
   293   1 h        0.804     0.353     0.581     1.197
   294   1 h        0.804     0.327     0.644     1.261
   295   8 o        1.608    -0.677    27.110     7.027
   296   1 h        0.804     0.333     0.630     1.247
   297   1 h        0.804     0.319     0.665     1.281
   298   8 o        1.607    -0.683    27.262     7.047
   299   1 h        0.805     0.319     0.668     1.283
   300   1 h        0.802     0.357     0.572     1.188
   301   8 o        1.603    -0.660    26.684     6.972
   302   1 h        0.806     0.313     0.683     1.298
   303   1 h        0.802     0.352     0.584     1.200
   304   8 o        1.608    -0.689    27.416     7.067
   305   1 h        0.803     0.340     0.613     1.230
   306   1 h        0.805     0.338     0.617     1.234
   307   8 o        1.607    -0.688    27.398     7.064
   308   1 h        0.803     0.360     0.565     1.180
   309   1 h        0.803     0.328     0.642     1.259
   310   8 o        1.607    -0.691    27.483     7.075
   311   1 h        0.804     0.347     0.596     1.213
   312   1 h        0.803     0.337     0.621     1.238
   313   8 o        1.609    -0.686    27.330     7.056
   314   1 h        0.805     0.329     0.639     1.256
   315   1 h        0.804     0.337     0.621     1.238
   316   8 o        1.608    -0.661    26.702     6.974
   317   1 h        0.804     0.333     0.629     1.246
   318   1 h        0.804     0.346     0.597     1.214
   319   8 o        1.607    -0.689    27.422     7.068
   320   1 h        0.805     0.348     0.594     1.210
   321   1 h        0.803     0.335     0.626     1.243
   322   8 o        1.608    -0.682    27.229     7.043
   323   1 h        0.805     0.331     0.634     1.251
   324   1 h        0.803     0.342     0.608     1.225
   325   8 o        1.609    -0.668    26.885     6.998
   326   1 h        0.804     0.348     0.592     1.209
   327   1 h        0.803     0.333     0.631     1.248
   328   8 o        1.608    -0.659    26.654     6.968
   329   1 h        0.805     0.331     0.636     1.252
   330   1 h        0.802     0.343     0.605     1.222
   331   8 o        1.606    -0.674    27.037     7.018
   332   1 h        0.806     0.314     0.680     1.295
   333   1 h        0.801     0.357     0.572     1.188
   334   8 o        1.608    -0.655    26.547     6.954
   335   1 h        0.803     0.346     0.598     1.215
   336   1 h        0.806     0.320     0.663     1.279
   337   8 o        1.608    -0.670    26.920     7.003
   338   1 h        0.805     0.328     0.642     1.259
   339   1 h        0.803     0.343     0.605     1.222
   340   8 o        1.606    -0.697    27.641     7.096
   341   1 h        0.804     0.330     0.637     1.254
   342   1 h        0.802     0.356     0.574     1.190
   343   8 o        1.608    -0.670    26.938     7.005
   344   1 h        0.805     0.332     0.631     1.248
   345   1 h        0.803     0.351     0.587     1.204
   346   8 o        1.609    -0.651    26.449     6.941
   347   1 h        0.804     0.337     0.619     1.236
   348   1 h        0.805     0.338     0.617     1.234
   349   8 o        1.606    -0.675    27.058     7.020
   350   1 h        0.803     0.356     0.575     1.191
   351   1 h        0.804     0.331     0.634     1.251
   352   8 o        1.607    -0.674    27.041     7.018
   353   1 h        0.803     0.342     0.607     1.224
   354   1 h        0.804     0.333     0.629     1.246
   355   8 o        1.607    -0.677    27.120     7.029
   356   1 h        0.802     0.334     0.627     1.244
   357   1 h        0.805     0.333     0.630     1.247
   358   8 o        1.606    -0.674    27.027     7.016
   359   1 h        0.806     0.316     0.675     1.290
   360   1 h        0.801     0.353     0.583     1.199
   361   8 o        1.603    -0.692    27.494     7.077
   362   1 h        0.801     0.336     0.624     1.241
   363   1 h        0.804     0.339     0.614     1.231
   364   8 o        1.606    -0.684    27.289     7.050
   365   1 h        0.801     0.357     0.572     1.188
   366   1 h        0.806     0.308     0.697     1.311
   367   8 o        1.606    -0.665    26.805     6.988
   368   1 h        0.804     0.335     0.624     1.241
   369   1 h        0.802     0.343     0.605     1.222
   370   8 o        1.606    -0.695    27.582     7.088
   371   1 h        0.802     0.358     0.569     1.185
   372   1 h        0.804     0.322     0.659     1.275
   373   8 o        1.606    -0.687    27.371     7.061
   374   1 h        0.801     0.368     0.549     1.164
   375   1 h        0.805     0.322     0.657     1.274
   376   8 o        1.605    -0.678    27.126     7.029
   377   1 h        0.801     0.363     0.559     1.175
   378   1 h        0.806     0.315     0.678     1.293
   379   8 o        1.608    -0.644    26.257     6.916
   380   1 h        0.806     0.317     0.671     1.286
   381   1 h        0.803     0.353     0.581     1.198
   382   8 o        1.606    -0.685    27.306     7.053
   383   1 h        0.804     0.323     0.655     1.271
   384   1 h        0.802     0.357     0.572     1.188
   385   8 o        1.606    -0.694    27.547     7.084
   386   1 h        0.803     0.345     0.600     1.217
   387   1 h        0.804     0.337     0.619     1.236
   388   8 o        1.609    -0.664    26.769     6.983
   389   1 h        0.804     0.333     0.631     1.248
   390   1 h        0.804     0.326     0.648     1.265
   391   8 o        1.612    -0.665    26.792     6.986
   392   1 h        0.805     0.332     0.631     1.248
   393   1 h        0.802     0.347     0.596     1.213
   394   8 o        1.607    -0.666    26.813     6.989
   395   1 h        0.803     0.346     0.597     1.214
   396   1 h        0.804     0.325     0.650     1.267
   397   8 o        1.609    -0.665    26.784     6.985
   398   1 h        0.805     0.329     0.639     1.256
   399   1 h        0.804     0.340     0.612     1.229
   400   8 o        1.608    -0.663    26.737     6.979
   401   1 h        0.805     0.333     0.629     1.246
   402   1 h        0.803     0.351     0.585     1.202
   403   8 o        1.610    -0.670    26.914     7.002
   404   1 h        0.805     0.333     0.630     1.247
   405   1 h        0.804     0.341     0.611     1.228
   406   8 o        1.609    -0.673    27.013     7.015
   407   1 h        0.804     0.339     0.616     1.232
   408   1 h        0.805     0.324     0.652     1.268
   409   8 o        1.609    -0.666    26.829     6.991
   410   1 h        0.804     0.327     0.646     1.262
   411   1 h        0.805     0.323     0.657     1.273
   412   8 o        1.607    -0.675    27.068     7.022
   413   1 h        0.802     0.351     0.586     1.203
   414   1 h        0.806     0.312     0.687     1.302
   415   8 o        1.607    -0.685    27.326     7.055
   416   1 h        0.804     0.335     0.625     1.242
   417   1 h        0.803     0.329     0.639     1.256
   418   8 o        1.609    -0.688    27.396     7.064
   419   1 h        0.804     0.327     0.646     1.262
   420   1 h        0.805     0.344     0.602     1.218
   421   8 o        1.607    -0.658    26.607     6.962
   422   1 h        0.802     0.355     0.577     1.193
   423   1 h        0.806     0.317     0.673     1.289
   424   8 o        1.605    -0.676    27.074     7.022
   425   1 h        0.803     0.336     0.623     1.240
   426   1 h        0.802     0.328     0.643     1.260
   427   8 o        1.607    -0.674    27.030     7.017
   428   1 h        0.804     0.337     0.619     1.236
   429   1 h        0.804     0.330     0.638     1.254
   430   8 o        1.605    -0.710    27.980     7.139
   431   1 h        0.804     0.339     0.615     1.232
   432   1 h        0.803     0.362     0.561     1.177
   433   8 o        1.607    -0.673    26.996     7.012
   434   1 h        0.804     0.332     0.632     1.249
   435   1 h        0.803     0.333     0.629     1.246
   436   8 o        1.609    -0.679    27.160     7.034
   437   1 h        0.803     0.341     0.609     1.226
   438   1 h        0.804     0.339     0.614     1.231
   439   8 o        1.609    -0.642    26.202     6.909
   440   1 h        0.805     0.325     0.650     1.266
   441   1 h        0.804     0.342     0.607     1.224
   442   8 o        1.608    -0.693    27.517     7.080
   443   1 h        0.805     0.324     0.654     1.270
   444   1 h        0.803     0.353     0.582     1.198
   445   8 o        1.608    -0.671    26.958     7.008
   446   1 h        0.805     0.315     0.677     1.293
   447   1 h        0.803     0.351     0.586     1.203
   448   8 o        1.606    -0.684    27.295     7.051
   449   1 h        0.803     0.327     0.644     1.261
   450   1 h        0.803     0.354     0.580     1.196
   451   8 o        1.609    -0.658    26.613     6.963
   452   1 h        0.805     0.310     0.692     1.307
   453   1 h        0.803     0.355     0.576     1.193
   454   8 o        1.608    -0.674    27.036     7.018
   455   1 h        0.803     0.343     0.605     1.222
   456   1 h        0.804     0.331     0.634     1.251
   457   8 o        1.610    -0.664    26.779     6.984
   458   1 h        0.805     0.337     0.619     1.236
   459   1 h        0.805     0.340     0.613     1.230
   460   8 o        1.607    -0.677    27.094     7.025
   461   1 h        0.804     0.358     0.570     1.186
   462   1 h        0.803     0.351     0.587     1.203
   463   8 o        1.608    -0.681    27.204     7.039
   464   1 h        0.805     0.310     0.693     1.307
   465   1 h        0.803     0.351     0.586     1.202
   466   8 o        1.609    -0.665    26.790     6.986
   467   1 h        0.805     0.340     0.612     1.229
   468   1 h        0.805     0.335     0.625     1.242
   469   8 o        1.609    -0.677    27.099     7.026
   470   1 h        0.805     0.336     0.623     1.240
   471   1 h        0.804     0.346     0.599     1.215
   472   8 o        1.609    -0.683    27.263     7.047
   473   1 h        0.804     0.335     0.625     1.242
   474   1 h        0.804     0.344     0.602     1.219
   475   8 o        1.610    -0.645    26.299     6.921
   476   1 h        0.804     0.356     0.574     1.190
   477   1 h        0.806     0.312     0.687     1.302
   478   8 o        1.608    -0.674    27.036     7.018
   479   1 h        0.805     0.335     0.626     1.242
   480   1 h        0.803     0.336     0.623     1.240
   481   8 o        1.607    -0.676    27.070     7.022
   482   1 h        0.805     0.320     0.664     1.280
   483   1 h        0.802     0.358     0.569     1.185
   484   8 o        1.606    -0.684    27.292     7.051
   485   1 h        0.803     0.345     0.601     1.218
   486   1 h        0.803     0.350     0.589     1.206
   487   8 o        1.608    -0.673    26.999     7.013
   488   1 h        0.804     0.336     0.622     1.239
   489   1 h        0.803     0.337     0.620     1.237
   490   8 o        1.606    -0.689    27.413     7.066
   491   1 h        0.803     0.350     0.588     1.205
   492   1 h        0.803     0.332     0.632     1.249
   493   8 o        1.608    -0.666    26.819     6.989
   494   1 h        0.805     0.325     0.650     1.266
   495   1 h        0.803     0.357     0.571     1.187
   496   8 o        1.609    -0.685    27.317     7.054
   497   1 h        0.804     0.334     0.628     1.245
   498   1 h        0.805     0.336     0.623     1.240
   499   8 o        1.609    -0.670    26.931     7.004
   500   1 h        0.804     0.345     0.600     1.217
   501   1 h        0.804     0.337     0.620     1.237
   502   8 o        1.608    -0.668    26.866     6.996
   503   1 h        0.804     0.337     0.620     1.237
   504   1 h        0.804     0.343     0.606     1.222
   505   8 o        1.608    -0.674    27.025     7.016
   506   1 h        0.805     0.325     0.649     1.266
   507   1 h        0.803     0.352     0.585     1.201
   508   8 o        1.605    -0.683    27.271     7.048
   509   1 h        0.803     0.358     0.569     1.185
   510   1 h        0.803     0.333     0.630     1.247
   511   8 o        1.610    -0.658    26.623     6.964
   512   1 h        0.804     0.348     0.593     1.209
   513   1 h        0.805     0.326     0.647     1.264
   514   8 o        1.608    -0.665    26.809     6.988
   515   1 h        0.803     0.357     0.572     1.188
   516   1 h        0.806     0.313     0.684     1.299
   517   8 o        1.608    -0.659    26.651     6.967
   518   1 h        0.804     0.344     0.604     1.220
   519   1 h        0.805     0.327     0.645     1.262
   520   8 o        1.603    -0.718    28.197     7.167
   521   1 h        0.802     0.357     0.573     1.189
   522   1 h        0.802     0.327     0.644     1.261
   523   8 o        1.607    -0.647    26.346     6.927
   524   1 h        0.806     0.316     0.674     1.290
   525   1 h        0.802     0.353     0.582     1.198
   526   8 o        1.608    -0.659    26.632     6.965
   527   1 h        0.805     0.338     0.616     1.233
   528   1 h        0.803     0.348     0.594     1.211
   529   8 o        1.611    -0.639    26.139     6.900
   530   1 h        0.805     0.318     0.670     1.285
   531   1 h        0.805     0.326     0.648     1.264

 Mol. C6AA /au·bohr⁶  :    1428784.480184
 Mol. C8AA /au·bohr⁸  :   25911467.768169
 Mol. α(0) /au        :       1680.205559


Wiberg/Mayer (AO) data.
largest (>0.10) Wiberg bond orders for each atom

 ---------------------------------------------------------------------------
     #   Z sym  total        # sym  WBO       # sym  WBO       # sym  WBO
 ---------------------------------------------------------------------------
     1   8 o    1.879 --     3 h    0.842     2 h    0.840
     2   1 h    0.883 --     1 o    0.840
     3   1 h    0.889 --     1 o    0.842
     4   8 o    1.878 --     5 h    0.821     6 h    0.807
     5   1 h    0.883 --     4 o    0.821
     6   1 h    0.874 --     4 o    0.807
     7   8 o    1.839 --     8 h    0.844     9 h    0.837
     8   1 h    0.885 --     7 o    0.844
     9   1 h    0.884 --     7 o    0.837
    10   8 o    1.883 --    12 h    0.821    11 h    0.813
    11   1 h    0.884 --    10 o    0.813
    12   1 h    0.878 --    10 o    0.821
    13   8 o    1.866 --    15 h    0.829    14 h    0.782
    14   1 h    0.877 --    13 o    0.782
    15   1 h    0.889 --    13 o    0.829
    16   8 o    1.844 --    18 h    0.840    17 h    0.804
    17   1 h    0.878 --    16 o    0.804
    18   1 h    0.891 --    16 o    0.840
    19   8 o    1.845 --    21 h    0.830    20 h    0.815
    20   1 h    0.881 --    19 o    0.815
    21   1 h    0.877 --    19 o    0.830
    22   8 o    1.833 --    23 h    0.862    24 h    0.784
    23   1 h    0.896 --    22 o    0.862
    24   1 h    0.873 --    22 o    0.784
    25   8 o    1.859 --    26 h    0.813    27 h    0.813
    26   1 h    0.881 --    25 o    0.813
    27   1 h    0.882 --    25 o    0.813
    28   8 o    1.884 --    30 h    0.833    29 h    0.815
    29   1 h    0.877 --    28 o    0.815
    30   1 h    0.879 --    28 o    0.833
    31   8 o    1.824 --    32 h    0.841    33 h    0.835
    32   1 h    0.895 --    31 o    0.841
    33   1 h    0.892 --    31 o    0.835
    34   8 o    1.863 --    35 h    0.810    36 h    0.808
    35   1 h    0.878 --    34 o    0.810
    36   1 h    0.883 --    34 o    0.808
    37   8 o    1.880 --    38 h    0.800    39 h    0.796
    38   1 h    0.879 --    37 o    0.800
    39   1 h    0.885 --    37 o    0.796
    40   8 o    1.893 --    41 h    0.826    42 h    0.825
    41   1 h    0.878 --    40 o    0.826
    42   1 h    0.875 --    40 o    0.825
    43   8 o    1.846 --    45 h    0.861    44 h    0.823
    44   1 h    0.893 --    43 o    0.823
    45   1 h    0.895 --    43 o    0.861
    46   8 o    1.818 --    48 h    0.852    47 h    0.838
    47   1 h    0.887 --    46 o    0.838
    48   1 h    0.890 --    46 o    0.852
    49   8 o    1.858 --    51 h    0.831    50 h    0.830
    50   1 h    0.889 --    49 o    0.830
    51   1 h    0.882 --    49 o    0.831
    52   8 o    1.814 --    53 h    0.858    54 h    0.831
    53   1 h    0.904 --    52 o    0.858
    54   1 h    0.887 --    52 o    0.831
    55   8 o    1.864 --    56 h    0.821    57 h    0.786
    56   1 h    0.887 --    55 o    0.821
    57   1 h    0.867 --    55 o    0.786
    58   8 o    1.842 --    59 h    0.825    60 h    0.811
    59   1 h    0.878 --    58 o    0.825
    60   1 h    0.874 --    58 o    0.811
    61   8 o    1.813 --    63 h    0.831    62 h    0.808
    62   1 h    0.882 --    61 o    0.808
    63   1 h    0.896 --    61 o    0.831
    64   8 o    1.864 --    66 h    0.834    65 h    0.811
    65   1 h    0.885 --    64 o    0.811
    66   1 h    0.887 --    64 o    0.834
    67   8 o    1.855 --    68 h    0.872    69 h    0.817
    68   1 h    0.894 --    67 o    0.872
    69   1 h    0.886 --    67 o    0.817
    70   8 o    1.878 --    71 h    0.860    72 h    0.803
    71   1 h    0.890 --    70 o    0.860
    72   1 h    0.885 --    70 o    0.803
    73   8 o    1.885 --    75 h    0.824    74 h    0.818
    74   1 h    0.881 --    73 o    0.818
    75   1 h    0.882 --    73 o    0.824
    76   8 o    1.832 --    78 h    0.849    77 h    0.820
    77   1 h    0.881 --    76 o    0.820
    78   1 h    0.891 --    76 o    0.849
    79   8 o    1.859 --    80 h    0.850    81 h    0.836
    80   1 h    0.896 --    79 o    0.850
    81   1 h    0.886 --    79 o    0.836
    82   8 o    1.859 --    84 h    0.837    83 h    0.825
    83   1 h    0.891 --    82 o    0.825
    84   1 h    0.887 --    82 o    0.837
    85   8 o    1.824 --    87 h    0.873    86 h    0.831
    86   1 h    0.884 --    85 o    0.831
    87   1 h    0.890 --    85 o    0.873
    88   8 o    1.876 --    90 h    0.837    89 h    0.813   129 h    0.104
    89   1 h    0.880 --    88 o    0.813
    90   1 h    0.894 --    88 o    0.837
    91   8 o    1.840 --    93 h    0.850    92 h    0.818
    92   1 h    0.882 --    91 o    0.818
    93   1 h    0.896 --    91 o    0.850
    94   8 o    1.844 --    96 h    0.881    95 h    0.832
    95   1 h    0.882 --    94 o    0.832
    96   1 h    0.896 --    94 o    0.881
    97   8 o    1.812 --    98 h    0.848    99 h    0.834
    98   1 h    0.892 --    97 o    0.848
    99   1 h    0.889 --    97 o    0.834
   100   8 o    1.854 --   102 h    0.843   101 h    0.827
   101   1 h    0.893 --   100 o    0.827
   102   1 h    0.898 --   100 o    0.843
   103   8 o    1.840 --   105 h    0.829   104 h    0.807
   104   1 h    0.885 --   103 o    0.807
   105   1 h    0.884 --   103 o    0.829
   106   8 o    1.810 --   108 h    0.892   107 h    0.802
   107   1 h    0.879 --   106 o    0.802
   108   1 h    0.900 --   106 o    0.892
   109   8 o    1.875 --   110 h    0.827   111 h    0.820
   110   1 h    0.889 --   109 o    0.827
   111   1 h    0.875 --   109 o    0.820
   112   8 o    1.894 --   114 h    0.839   113 h    0.781
   113   1 h    0.869 --   112 o    0.781
   114   1 h    0.887 --   112 o    0.839
   115   8 o    1.848 --   117 h    0.850   116 h    0.813
   116   1 h    0.881 --   115 o    0.813
   117   1 h    0.891 --   115 o    0.850
   118   8 o    1.845 --   119 h    0.862   120 h    0.814
   119   1 h    0.896 --   118 o    0.862
   120   1 h    0.884 --   118 o    0.814
   121   8 o    1.849 --   122 h    0.849   123 h    0.816
   122   1 h    0.886 --   121 o    0.849
   123   1 h    0.870 --   121 o    0.816
   124   8 o    1.794 --   125 h    0.845   126 h    0.830
   125   1 h    0.892 --   124 o    0.845
   126   1 h    0.888 --   124 o    0.830
   127   8 o    1.841 --   128 h    0.876   129 h    0.752
   128   1 h    0.899 --   127 o    0.876
   129   1 h    0.865 --   127 o    0.752    88 o    0.104
   130   8 o    1.852 --   131 h    0.857   132 h    0.797
   131   1 h    0.893 --   130 o    0.857
   132   1 h    0.871 --   130 o    0.797
   133   8 o    1.868 --   134 h    0.796   135 h    0.790
   134   1 h    0.880 --   133 o    0.796
   135   1 h    0.874 --   133 o    0.790
   136   8 o    1.883 --   138 h    0.829   137 h    0.824
   137   1 h    0.887 --   136 o    0.824
   138   1 h    0.882 --   136 o    0.829
   139   8 o    1.875 --   140 h    0.853   141 h    0.764
   140   1 h    0.890 --   139 o    0.853
   141   1 h    0.867 --   139 o    0.764
   142   8 o    1.884 --   144 h    0.844   143 h    0.809
   143   1 h    0.873 --   142 o    0.809
   144   1 h    0.890 --   142 o    0.844
   145   8 o    1.847 --   147 h    0.833   146 h    0.815
   146   1 h    0.874 --   145 o    0.815
   147   1 h    0.890 --   145 o    0.833
   148   8 o    1.859 --   150 h    0.842   149 h    0.798
   149   1 h    0.873 --   148 o    0.798
   150   1 h    0.895 --   148 o    0.842
   151   8 o    1.801 --   152 h    0.854   153 h    0.846
   152   1 h    0.896 --   151 o    0.854
   153   1 h    0.894 --   151 o    0.846
   154   8 o    1.819 --   156 h    0.880   155 h    0.807
   155   1 h    0.873 --   154 o    0.807
   156   1 h    0.898 --   154 o    0.880
   157   8 o    1.850 --   158 h    0.844   159 h    0.815
   158   1 h    0.892 --   157 o    0.844
   159   1 h    0.873 --   157 o    0.815
   160   8 o    1.864 --   162 h    0.835   161 h    0.830
   161   1 h    0.880 --   160 o    0.830
   162   1 h    0.877 --   160 o    0.835
   163   8 o    1.840 --   164 h    0.872   165 h    0.825
   164   1 h    0.893 --   163 o    0.872
   165   1 h    0.879 --   163 o    0.825
   166   8 o    1.837 --   168 h    0.868   167 h    0.837
   167   1 h    0.884 --   166 o    0.837
   168   1 h    0.889 --   166 o    0.868
   169   8 o    1.827 --   171 h    0.861   170 h    0.860
   170   1 h    0.887 --   169 o    0.860
   171   1 h    0.886 --   169 o    0.861
   172   8 o    1.844 --   174 h    0.876   173 h    0.803
   173   1 h    0.876 --   172 o    0.803
   174   1 h    0.900 --   172 o    0.876
   175   8 o    1.815 --   176 h    0.810   177 h    0.804
   176   1 h    0.879 --   175 o    0.810
   177   1 h    0.884 --   175 o    0.804
   178   8 o    1.835 --   180 h    0.855   179 h    0.831
   179   1 h    0.886 --   178 o    0.831
   180   1 h    0.887 --   178 o    0.855
   181   8 o    1.827 --   183 h    0.836   182 h    0.836
   182   1 h    0.892 --   181 o    0.836
   183   1 h    0.887 --   181 o    0.836
   184   8 o    1.870 --   186 h    0.840   185 h    0.839
   185   1 h    0.895 --   184 o    0.839
   186   1 h    0.895 --   184 o    0.840
   187   8 o    1.860 --   188 h    0.865   189 h    0.817
   188   1 h    0.900 --   187 o    0.865
   189   1 h    0.874 --   187 o    0.817
   190   8 o    1.896 --   191 h    0.793   192 h    0.790
   191   1 h    0.877 --   190 o    0.793
   192   1 h    0.875 --   190 o    0.790
   193   8 o    1.871 --   195 h    0.805   194 h    0.776
   194   1 h    0.873 --   193 o    0.776
   195   1 h    0.880 --   193 o    0.805
   196   8 o    1.862 --   198 h    0.841   197 h    0.808
   197   1 h    0.883 --   196 o    0.808
   198   1 h    0.886 --   196 o    0.841
   199   8 o    1.832 --   200 h    0.825   201 h    0.789
   200   1 h    0.890 --   199 o    0.825
   201   1 h    0.873 --   199 o    0.789
   202   8 o    1.824 --   203 h    0.873   204 h    0.821
   203   1 h    0.897 --   202 o    0.873
   204   1 h    0.879 --   202 o    0.821
   205   8 o    1.833 --   206 h    0.894   207 h    0.778
   206   1 h    0.902 --   205 o    0.894
   207   1 h    0.871 --   205 o    0.778
   208   8 o    1.815 --   209 h    0.839   210 h    0.819
   209   1 h    0.894 --   208 o    0.839
   210   1 h    0.882 --   208 o    0.819
   211   8 o    1.856 --   212 h    0.860   213 h    0.822
   212   1 h    0.898 --   211 o    0.860
   213   1 h    0.887 --   211 o    0.822
   214   8 o    1.852 --   215 h    0.859   216 h    0.821
   215   1 h    0.899 --   214 o    0.859
   216   1 h    0.870 --   214 o    0.821
   217   8 o    1.823 --   219 h    0.849   218 h    0.816
   218   1 h    0.885 --   217 o    0.816
   219   1 h    0.889 --   217 o    0.849
   220   8 o    1.866 --   222 h    0.829   221 h    0.823
   221   1 h    0.888 --   220 o    0.823
   222   1 h    0.889 --   220 o    0.829
   223   8 o    1.852 --   224 h    0.872   225 h    0.821
   224   1 h    0.894 --   223 o    0.872
   225   1 h    0.886 --   223 o    0.821
   226   8 o    1.821 --   227 h    0.843   228 h    0.813
   227   1 h    0.890 --   226 o    0.843
   228   1 h    0.884 --   226 o    0.813
   229   8 o    1.823 --   231 h    0.893   230 h    0.813
   230   1 h    0.868 --   229 o    0.813
   231   1 h    0.903 --   229 o    0.893
   232   8 o    1.833 --   234 h    0.857   233 h    0.800
   233   1 h    0.876 --   232 o    0.800
   234   1 h    0.893 --   232 o    0.857
   235   8 o    1.835 --   236 h    0.846   237 h    0.827
   236   1 h    0.891 --   235 o    0.846
   237   1 h    0.881 --   235 o    0.827
   238   8 o    1.856 --   240 h    0.837   239 h    0.797
   239   1 h    0.874 --   238 o    0.797
   240   1 h    0.890 --   238 o    0.837
   241   8 o    1.869 --   242 h    0.860   243 h    0.817
   242   1 h    0.891 --   241 o    0.860
   243   1 h    0.886 --   241 o    0.817
   244   8 o    1.825 --   245 h    0.890   246 h    0.793
   245   1 h    0.900 --   244 o    0.890
   246   1 h    0.879 --   244 o    0.793
   247   8 o    1.829 --   248 h    0.834   249 h    0.819
   248   1 h    0.881 --   247 o    0.834
   249   1 h    0.881 --   247 o    0.819
   250   8 o    1.873 --   252 h    0.829   251 h    0.795
   251   1 h    0.875 --   250 o    0.795
   252   1 h    0.886 --   250 o    0.829
   253   8 o    1.854 --   255 h    0.831   254 h    0.806
   254   1 h    0.886 --   253 o    0.806
   255   1 h    0.890 --   253 o    0.831
   256   8 o    1.827 --   257 h    0.855   258 h    0.840
   257   1 h    0.890 --   256 o    0.855
   258   1 h    0.890 --   256 o    0.840
   259   8 o    1.844 --   260 h    0.841   261 h    0.829
   260   1 h    0.897 --   259 o    0.841
   261   1 h    0.880 --   259 o    0.829
   262   8 o    1.821 --   264 h    0.852   263 h    0.843
   263   1 h    0.890 --   262 o    0.843
   264   1 h    0.887 --   262 o    0.852
   265   8 o    1.842 --   267 h    0.895   266 h    0.779
   266   1 h    0.874 --   265 o    0.779
   267   1 h    0.902 --   265 o    0.895
   268   8 o    1.874 --   270 h    0.828   269 h    0.812
   269   1 h    0.891 --   268 o    0.812
   270   1 h    0.893 --   268 o    0.828
   271   8 o    1.873 --   272 h    0.843   273 h    0.811
   272   1 h    0.892 --   271 o    0.843
   273   1 h    0.883 --   271 o    0.811
   274   8 o    1.837 --   276 h    0.812   275 h    0.808
   275   1 h    0.876 --   274 o    0.808
   276   1 h    0.872 --   274 o    0.812
   277   8 o    1.820 --   279 h    0.859   278 h    0.851
   278   1 h    0.884 --   277 o    0.851
   279   1 h    0.891 --   277 o    0.859
   280   8 o    1.799 --   282 h    0.851   281 h    0.850
   281   1 h    0.894 --   280 o    0.850
   282   1 h    0.891 --   280 o    0.851
   283   8 o    1.823 --   285 h    0.848   284 h    0.779
   284   1 h    0.874 --   283 o    0.779
   285   1 h    0.895 --   283 o    0.848
   286   8 o    1.875 --   288 h    0.839   287 h    0.786
   287   1 h    0.886 --   286 o    0.786
   288   1 h    0.891 --   286 o    0.839
   289   8 o    1.830 --   290 h    0.876   291 h    0.821
   290   1 h    0.896 --   289 o    0.876
   291   1 h    0.872 --   289 o    0.821
   292   8 o    1.860 --   294 h    0.861   293 h    0.833
   293   1 h    0.875 --   292 o    0.833
   294   1 h    0.893 --   292 o    0.861
   295   8 o    1.818 --   297 h    0.848   296 h    0.829
   296   1 h    0.889 --   295 o    0.829
   297   1 h    0.898 --   295 o    0.848
   298   8 o    1.838 --   299 h    0.865   300 h    0.798
   299   1 h    0.898 --   298 o    0.865
   300   1 h    0.872 --   298 o    0.798
   301   8 o    1.871 --   302 h    0.895   303 h    0.772
   302   1 h    0.902 --   301 o    0.895
   303   1 h    0.876 --   301 o    0.772   391 o    0.101
   304   8 o    1.820 --   306 h    0.853   305 h    0.830
   305   1 h    0.885 --   304 o    0.830
   306   1 h    0.886 --   304 o    0.853
   307   8 o    1.859 --   309 h    0.843   308 h    0.791
   308   1 h    0.870 --   307 o    0.791
   309   1 h    0.892 --   307 o    0.843
   310   8 o    1.831 --   312 h    0.824   311 h    0.818
   311   1 h    0.880 --   310 o    0.818
   312   1 h    0.887 --   310 o    0.824
   313   8 o    1.805 --   314 h    0.861   315 h    0.842
   314   1 h    0.891 --   313 o    0.861
   315   1 h    0.887 --   313 o    0.842
   316   8 o    1.882 --   317 h    0.834   318 h    0.829
   317   1 h    0.889 --   316 o    0.834
   318   1 h    0.880 --   316 o    0.829
   319   8 o    1.833 --   320 h    0.842   321 h    0.824
   320   1 h    0.879 --   319 o    0.842
   321   1 h    0.888 --   319 o    0.824
   322   8 o    1.827 --   323 h    0.857   324 h    0.822
   323   1 h    0.890 --   322 o    0.857
   324   1 h    0.883 --   322 o    0.822
   325   8 o    1.876 --   326 h    0.826   327 h    0.819
   326   1 h    0.879 --   325 o    0.826
   327   1 h    0.889 --   325 o    0.819
   328   8 o    1.878 --   329 h    0.855   330 h    0.806
   329   1 h    0.891 --   328 o    0.855
   330   1 h    0.882 --   328 o    0.806
   331   8 o    1.841 --   332 h    0.895   333 h    0.782
   332   1 h    0.901 --   331 o    0.895
   333   1 h    0.872 --   331 o    0.782
   334   8 o    1.854 --   336 h    0.893   335 h    0.816
   335   1 h    0.880 --   334 o    0.816
   336   1 h    0.897 --   334 o    0.893
   337   8 o    1.828 --   338 h    0.880   339 h    0.826
   338   1 h    0.892 --   337 o    0.880
   339   1 h    0.882 --   337 o    0.826
   340   8 o    1.841 --   341 h    0.837   342 h    0.790
   341   1 h    0.891 --   340 o    0.837
   342   1 h    0.873 --   340 o    0.790
   343   8 o    1.854 --   344 h    0.865   345 h    0.819
   344   1 h    0.889 --   343 o    0.865
   345   1 h    0.877 --   343 o    0.819
   346   8 o    1.855 --   348 h    0.851   347 h    0.845
   347   1 h    0.886 --   346 o    0.845
   348   1 h    0.886 --   346 o    0.851
   349   8 o    1.879 --   351 h    0.846   350 h    0.802
   350   1 h    0.873 --   349 o    0.802
   351   1 h    0.890 --   349 o    0.846
   352   8 o    1.836 --   354 h    0.846   353 h    0.829
   353   1 h    0.883 --   352 o    0.829
   354   1 h    0.889 --   352 o    0.846
   355   8 o    1.829 --   357 h    0.860   356 h    0.820
   356   1 h    0.888 --   355 o    0.820
   357   1 h    0.889 --   355 o    0.860
   358   8 o    1.841 --   359 h    0.892   360 h    0.779
   359   1 h    0.900 --   358 o    0.892
   360   1 h    0.876 --   358 o    0.779
   361   8 o    1.846 --   363 h    0.833   362 h    0.785
   362   1 h    0.887 --   361 o    0.785
   363   1 h    0.885 --   361 o    0.833
   364   8 o    1.814 --   366 h    0.898   365 h    0.781
   365   1 h    0.872 --   364 o    0.781
   366   1 h    0.905 --   364 o    0.898
   367   8 o    1.886 --   368 h    0.849   369 h    0.797
   368   1 h    0.888 --   367 o    0.849
   369   1 h    0.882 --   367 o    0.797
   370   8 o    1.839 --   372 h    0.835   371 h    0.783
   371   1 h    0.871 --   370 o    0.783
   372   1 h    0.896 --   370 o    0.835
   373   8 o    1.848 --   375 h    0.866   374 h    0.779
   374   1 h    0.865 --   373 o    0.779
   375   1 h    0.896 --   373 o    0.866
   376   8 o    1.847 --   378 h    0.894   377 h    0.769
   377   1 h    0.868 --   376 o    0.769
   378   1 h    0.901 --   376 o    0.894
   379   8 o    1.875 --   380 h    0.887   381 h    0.808
   380   1 h    0.899 --   379 o    0.887
   381   1 h    0.875 --   379 o    0.808
   382   8 o    1.860 --   383 h    0.854   384 h    0.794
   383   1 h    0.895 --   382 o    0.854
   384   1 h    0.872 --   382 o    0.794
   385   8 o    1.846 --   387 h    0.827   386 h    0.807
   386   1 h    0.881 --   385 o    0.807
   387   1 h    0.886 --   385 o    0.827
   388   8 o    1.856 --   390 h    0.835   389 h    0.835
   389   1 h    0.889 --   388 o    0.835
   390   1 h    0.894 --   388 o    0.835
   391   8 o    1.863 --   392 h    0.870   393 h    0.808   303 h    0.101
   392   1 h    0.890 --   391 o    0.870
   393   1 h    0.880 --   391 o    0.808
   394   8 o    1.885 --   396 h    0.848   395 h    0.805
   395   1 h    0.880 --   394 o    0.805
   396   1 h    0.894 --   394 o    0.848
   397   8 o    1.818 --   398 h    0.874   399 h    0.852
   398   1 h    0.892 --   397 o    0.874
   399   1 h    0.884 --   397 o    0.852
   400   8 o    1.884 --   401 h    0.863   402 h    0.796
   401   1 h    0.889 --   400 o    0.863
   402   1 h    0.877 --   400 o    0.796
   403   8 o    1.830 --   404 h    0.858   405 h    0.833
   404   1 h    0.889 --   403 o    0.858
   405   1 h    0.884 --   403 o    0.833
   406   8 o    1.807 --   408 h    0.868   407 h    0.838
   407   1 h    0.885 --   406 o    0.838
   408   1 h    0.895 --   406 o    0.868
   409   8 o    1.819 --   411 h    0.858   410 h    0.843
   410   1 h    0.893 --   409 o    0.843
   411   1 h    0.896 --   409 o    0.858
   412   8 o    1.825 --   414 h    0.898   413 h    0.791
   413   1 h    0.877 --   412 o    0.791
   414   1 h    0.903 --   412 o    0.898
   415   8 o    1.824 --   416 h    0.842   417 h    0.825
   416   1 h    0.888 --   415 o    0.842
   417   1 h    0.891 --   415 o    0.825
   418   8 o    1.813 --   419 h    0.849   420 h    0.837
   419   1 h    0.893 --   418 o    0.849
   420   1 h    0.881 --   418 o    0.837
   421   8 o    1.860 --   423 h    0.895   422 h    0.799
   422   1 h    0.874 --   421 o    0.799
   423   1 h    0.900 --   421 o    0.895
   424   8 o    1.874 --   426 h    0.815   425 h    0.814
   425   1 h    0.887 --   424 o    0.814
   426   1 h    0.892 --   424 o    0.815
   427   8 o    1.858 --   429 h    0.832   428 h    0.827
   428   1 h    0.886 --   427 o    0.827
   429   1 h    0.891 --   427 o    0.832
   430   8 o    1.847 --   431 h    0.818   432 h    0.784
   431   1 h    0.885 --   430 o    0.818
   432   1 h    0.869 --   430 o    0.784
   433   8 o    1.839 --   434 h    0.849   435 h    0.833
   434   1 h    0.890 --   433 o    0.849
   435   1 h    0.889 --   433 o    0.833
   436   8 o    1.854 --   438 h    0.845   437 h    0.827
   437   1 h    0.883 --   436 o    0.827
   438   1 h    0.885 --   436 o    0.845
   439   8 o    1.868 --   440 h    0.883   441 h    0.829
   440   1 h    0.894 --   439 o    0.883
   441   1 h    0.883 --   439 o    0.829
   442   8 o    1.817 --   443 h    0.872   444 h    0.804
   443   1 h    0.895 --   442 o    0.872
   444   1 h    0.875 --   442 o    0.804
   445   8 o    1.821 --   446 h    0.885   447 h    0.810
   446   1 h    0.901 --   445 o    0.885
   447   1 h    0.877 --   445 o    0.810
   448   8 o    1.870 --   449 h    0.826   450 h    0.801
   449   1 h    0.893 --   448 o    0.826
   450   1 h    0.875 --   448 o    0.801
   451   8 o    1.855 --   452 h    0.882   453 h    0.801
   452   1 h    0.904 --   451 o    0.882
   453   1 h    0.874 --   451 o    0.801
   454   8 o    1.846 --   456 h    0.842   455 h    0.831
   455   1 h    0.882 --   454 o    0.831
   456   1 h    0.890 --   454 o    0.842
   457   8 o    1.837 --   459 h    0.858   458 h    0.854
   458   1 h    0.886 --   457 o    0.854
   459   1 h    0.885 --   457 o    0.858
   460   8 o    1.894 --   461 h    0.831   462 h    0.812
   461   1 h    0.872 --   460 o    0.831
   462   1 h    0.877 --   460 o    0.812
   463   8 o    1.808 --   464 h    0.863   465 h    0.805
   464   1 h    0.904 --   463 o    0.863
   465   1 h    0.877 --   463 o    0.805
   466   8 o    1.833 --   468 h    0.858   467 h    0.857
   467   1 h    0.884 --   466 o    0.857
   468   1 h    0.888 --   466 o    0.858
   469   8 o    1.827 --   470 h    0.862   471 h    0.844
   470   1 h    0.887 --   469 o    0.862
   471   1 h    0.881 --   469 o    0.844
   472   8 o    1.837 --   473 h    0.841   474 h    0.831
   473   1 h    0.888 --   472 o    0.841
   474   1 h    0.881 --   472 o    0.831
   475   8 o    1.853 --   477 h    0.894   476 h    0.829
   476   1 h    0.873 --   475 o    0.829
   477   1 h    0.903 --   475 o    0.894
   478   8 o    1.834 --   479 h    0.860   480 h    0.833
   479   1 h    0.888 --   478 o    0.860
   480   1 h    0.887 --   478 o    0.833
   481   8 o    1.858 --   482 h    0.864   483 h    0.791
   482   1 h    0.898 --   481 o    0.864
   483   1 h    0.871 --   481 o    0.791
   484   8 o    1.882 --   486 h    0.808   485 h    0.807
   485   1 h    0.881 --   484 o    0.807
   486   1 h    0.878 --   484 o    0.808
   487   8 o    1.846 --   488 h    0.847   489 h    0.829
   488   1 h    0.887 --   487 o    0.847
   489   1 h    0.886 --   487 o    0.829
   490   8 o    1.863 --   492 h    0.827   491 h    0.792
   491   1 h    0.877 --   490 o    0.792
   492   1 h    0.890 --   490 o    0.827
   493   8 o    1.877 --   494 h    0.856   495 h    0.798
   494   1 h    0.894 --   493 o    0.856
   495   1 h    0.872 --   493 o    0.798
   496   8 o    1.814 --   498 h    0.855   497 h    0.840
   497   1 h    0.889 --   496 o    0.840
   498   1 h    0.887 --   496 o    0.855
   499   8 o    1.846 --   501 h    0.848   500 h    0.834
   500   1 h    0.881 --   499 o    0.834
   501   1 h    0.887 --   499 o    0.848
   502   8 o    1.853 --   504 h    0.842   503 h    0.842
   503   1 h    0.886 --   502 o    0.842
   504   1 h    0.883 --   502 o    0.842
   505   8 o    1.858 --   506 h    0.849   507 h    0.806
   506   1 h    0.894 --   505 o    0.849
   507   1 h    0.876 --   505 o    0.806
   508   8 o    1.903 --   510 h    0.807   509 h    0.796
   509   1 h    0.872 --   508 o    0.796
   510   1 h    0.889 --   508 o    0.807
   511   8 o    1.836 --   513 h    0.875   512 h    0.842
   512   1 h    0.879 --   511 o    0.842
   513   1 h    0.893 --   511 o    0.875
   514   8 o    1.842 --   516 h    0.895   515 h    0.800
   515   1 h    0.872 --   514 o    0.800
   516   1 h    0.902 --   514 o    0.895
   517   8 o    1.868 --   519 h    0.848   518 h    0.823
   518   1 h    0.882 --   517 o    0.823
   519   1 h    0.893 --   517 o    0.848
   520   8 o    1.833 --   522 h    0.805   521 h    0.786
   521   1 h    0.873 --   520 o    0.786
   522   1 h    0.893 --   520 o    0.805
   523   8 o    1.884 --   524 h    0.895   525 h    0.795
   524   1 h    0.900 --   523 o    0.895
   525   1 h    0.875 --   523 o    0.795
   526   8 o    1.856 --   527 h    0.859   528 h    0.825
   527   1 h    0.886 --   526 o    0.859
   528   1 h    0.879 --   526 o    0.825
   529   8 o    1.830 --   530 h    0.882   531 h    0.859
   530   1 h    0.899 --   529 o    0.882
   531   1 h    0.894 --   529 o    0.859
 ---------------------------------------------------------------------------

Topologies differ in total number of bonds
Writing topology from bond orders to xtbtopo.mol

molecular dipole:
                 x           y           z       tot (Debye)
 q only:        1.356      -0.882       1.766
   full:        1.376      -1.508       1.862       7.023
molecular quadrupole (traceless):
                xx          xy          yy          xz          yz          zz
 q only:       69.364      -6.356     -43.158     -59.527      43.747     -26.206
  q+dip:       75.822     -15.274     -46.134     -90.194      51.773     -29.688
   full:       75.371     -16.349     -45.434     -91.317      52.088     -29.938


           -------------------------------------------------
          | TOTAL ENERGY             -901.405320144711 Eh   |
          | GRADIENT NORM               0.105345629594 Eh/α |
          | HOMO-LUMO GAP               7.282274843537 eV   |
           -------------------------------------------------

------------------------------------------------------------------------
 * finished run on 2022/11/17 at 06:54:57.125     
------------------------------------------------------------------------
 total:
 * wall-time:     0 d,  0 h,  0 min,  7.950 sec
 *  cpu-time:     0 d,  0 h,  0 min, 13.152 sec
 * ratio c/w:     1.654 speedup
 SCF:
 * wall-time:     0 d,  0 h,  0 min,  7.416 sec
 *  cpu-time:     0 d,  0 h,  0 min, 12.130 sec
 * ratio c/w:     1.636 speedup

