531
 energy: -901.165578003822 gnorm: 0.049615125005 xtb: 6.5.1 (579679a)
o           -0.86796363027285       -2.85519844240324       -0.72715150773713
h           -0.37738926938698       -2.75260644372146        0.09978812374194
h           -0.26459961125130       -3.22971712965648       -1.38599382741140
o            2.95108642150677       -4.22671166645817        1.69378094575577
h            2.16457507227699       -4.35423552162708        2.26186976125046
h            3.34637245143348       -3.38841275383284        2.00721036177708
o            2.29813140858614       -0.10041889138359        1.11905182957755
h            2.37140723958774        0.54222059579443        0.40077323101733
h            2.06267419093119        0.39709917355814        1.91340643947982
o            0.80335243006757       -3.29212018496678       -2.87587096438515
h            0.37011818766144       -4.14035488067008       -3.11982884955150
h            0.49723642006787       -2.63412454911360       -3.53082906931985
o           -3.64232593407549       -0.20983034553255        3.15144605091818
h           -4.57097122761848       -0.05319875006448        2.85383871812917
h           -3.69564944722861       -0.49200179395347        4.08788958343770
o            3.35333065658802       -4.11406302170931       -3.15556799153567
h            2.44223684761620       -3.77492765597333       -3.01594216688978
h            3.64733179851148       -3.60239100658056       -3.93062448512845
o           -0.77580568042285       -2.68740363147069        3.88541665382265
h           -1.47526088542960       -2.86493953909930        3.23210063183509
h           -0.60018592981658       -1.73801974855149        3.79072792360735
o            4.53921098046517       -5.98965719499720        2.88950737301986
h            5.14677755549710       -6.29496982317124        2.20099770839778
h            3.95033316089991       -5.34830485779996        2.42260516753798
o           -3.67431669470761       -2.15228847081686       -0.30234578214912
h           -3.19814425108553       -2.31672995166077       -1.13862189336202
h           -4.18175010022959       -1.32966930103731       -0.45699640550107
o           -0.19386826641325        3.14842120629888        4.07905963295673
h           -1.05976831477802        2.78153962413668        3.81760631841347
h           -0.06068285896986        3.90938177629885        3.48884871391468
o           -2.50236543683799       -2.18163210629480       -2.70579259126452
h           -2.42746339688687       -2.86913362491033       -3.38983455660097
h           -2.90702609859478       -1.42169106009984       -3.15957570796363
o            2.92432508368955        5.64382336708245        1.16561892955754
h            2.86002816195524        5.26252235585854        0.26428837177997
h            3.07062906351601        4.85205345574065        1.72093266473691
o            1.05990080806566        2.85117448437624        0.86284794014768
h            0.42396835636535        2.12336950649976        0.99750997675370
h            0.63596168809720        3.63842287453797        1.28796376780676
o           -2.54397787567740        2.39361436632756        3.07483282792584
h           -3.09115777411146        1.59516004070561        2.97605243099054
h           -2.68396187869008        2.93916558161283        2.28034728663633
o           -1.54808106777356        4.37536398346650       -4.37999245453701
h           -0.76581397634997        4.51247151914606       -4.95684841881805
h           -2.20411822730852        3.95600926877303       -4.95306331746934
o           -2.11042024760124        6.85027436275142       -3.38061919265584
h           -1.93016203762522        6.11341902461469       -3.99141542348841
h           -3.04078855898452        6.74783232255584       -3.13189776363162
o           -2.52029555937456        4.40213399288316       -1.79297328135342
h           -3.36871911746028        4.78866626902170       -2.08473120538474
h           -1.98591183725302        4.37065770730345       -2.60565000915569
o           -0.26984156956470       -1.47457252029348       -4.59435752244883
h           -0.53378306357732       -1.97311538894024       -5.38030283583138
h           -0.19200063158669       -0.54470278826396       -4.86925681454458
o            3.23475439858873        3.26401905677411        2.33777873340790
h            2.84310084402528        3.43688831023570        3.21615393971479
h            2.48993857599078        2.94211609303899        1.78001895365532
o            4.99246497731354       -3.55626774886007       -0.27424695515605
h            4.10537115611567       -3.16605108216287       -0.24393866896802
h            5.59770444846163       -2.84464905498182       -0.55853549928088
o           -4.57463479647896        6.02114280847622       -2.32907396811536
h           -4.80199285848506        5.76077445873251       -1.41110337568181
h           -5.43083540284301        5.94931037524028       -2.79736203696912
o           -0.08515866049919        1.27197776628970       -5.08932980412688
h            0.66678814913726        1.68641652683936       -4.61859423120058
h           -0.85672369271562        1.56008922935970       -4.57604765994749
o            5.01945749100928        2.54702265969453        5.67850689156469
h            5.38546665225211        3.30576611330054        5.21276521417491
h            5.78011666383768        2.03921261340767        6.04402950055266
o            8.56878075141357       -0.96867462112938        1.30560590056962
h            8.65211311558229       -1.06800361671370        2.25983532583894
h            9.38161377080125       -1.33625177722628        0.88467550022244
o           -4.79611488193053        0.10650486491868       -1.14164834538144
h           -4.03932648634318        0.71662125421376       -1.18936105345447
h           -5.13911300650807       -0.06335594322222       -2.03890617403614
o            2.40919325448201       -2.57267591991484       -0.70925882859730
h            2.96083930970199       -1.93137331101303       -1.19240344167205
h            1.79079499795544       -2.92427560519434       -1.36137774799548
o           -3.41077211845848       -1.29002970011469        5.59735790579364
h           -4.27676871181388       -1.10238415212385        5.99456947404127
h           -3.36452550024943       -2.24242990645384        5.39730419045384
o           -4.17290859044978        2.45148724295828       -3.32019112366254
h           -3.90346517494782        2.73958478772940       -4.21771623549252
h           -5.13469381741808        2.55876467410546       -3.29389917090194
o           -7.09540651410909        5.48853296768981       -2.96897152164730
h           -7.08235162532040        4.55834469949034       -3.25516102089583
h           -7.43601174460845        5.49593771860303       -2.06714417931625
o            4.11617637231339        0.67649257963705        3.94412028297594
h            3.22852836366668        0.98371740733350        3.68278316562239
h            4.50436731009827        1.38917866211607        4.48282920509632
o            3.48416762564917       -2.63903093645841       -5.41183838550579
h            2.95918773875510       -1.82563630462268       -5.55497676512539
h            4.34759941764269       -2.43359890991807       -5.79867163921647
o           -8.16228626112690       -4.08811330451691       -2.24810844752717
h           -7.96336893108179       -4.56914349868834       -1.42274143940197
h           -8.99880620411732       -3.63154774767555       -2.12629408272855
o           -1.54556045490752        1.86007431212764       -2.94106159813677
h           -2.46046023952592        2.16134542007687       -2.89569731874564
h           -0.99831548567913        2.49251030395214       -2.44117937611439
o            0.33821767212134       -5.49251239592072       -0.95942336548750
h            1.30943024081493       -5.55442994837637       -0.94735250600749
h            0.00492911314272       -6.39406692097720       -0.80387586921894
o            1.57943595526441        1.28164680049256        3.39862429528564
h            0.95170251810390        1.94849970042382        3.73881713372360
h            1.31159934341376        0.41400957978932        3.75210772699041
o            2.23921323795262       -6.28011550114950       -4.29331859777859
h            2.74539564889015       -5.56215691025924       -3.84665661611840
h            2.76262922929140       -7.07753366426701       -4.23371004130873
o            4.00301759531180       -2.22291195676502        3.10228662367913
h            4.49452319961123       -2.83472245980298        3.68318684928483
h            4.62234348475256       -1.50118213462482        2.89350100774960
o           -5.27021581584493       -3.87744321776243        0.93421849042574
h           -4.72162716194133       -3.24488393764923        0.41753573266204
h           -4.67569833930232       -4.58381472962694        1.23671781116081
o            4.77824344088836       -0.91417307928575        0.66619617659245
h            3.84077336696438       -0.81171424679176        0.93064980365726
h            5.16029481764276       -0.04650468748568        0.85077117926806
o            2.44123601570920        5.93643125173508       -3.04570772842812
h            2.38909526604698        5.53309250545612       -3.92208051202111
h            1.52291401760826        6.08795732767717       -2.73965093812304
o            3.01231644502631       -5.54273602916126       -0.70608003289207
h            3.31538434450833       -4.97682249356478       -1.42802686641167
h            2.99727230792168       -4.98994636054734        0.10049567267645
o            1.13265996301496        0.17481108898166        6.55749187121491
h            0.99509499867802       -0.77328726385656        6.69646069912205
h            0.22384931903186        0.50357579227950        6.42038316843554
o            3.70553195041185       -1.03130033221901        5.86394879816022
h            3.04601587499942       -0.58417737210186        6.40149699798787
h            3.84298146985963       -0.43914628765726        5.06803111930287
o           -1.45983402926077        0.64482768127458        5.92642728936365
h           -2.09091092571132       -0.07862690190508        6.05895785006768
h           -1.22720046154402        0.58121059857687        4.97685482516204
o            1.72858743462686        2.35948970919348       -3.47007906205620
h            1.19307385941010        2.75151548052254       -2.74719204482381
h            1.96508567038510        1.44443348698968       -3.20804437876713
o            0.03046168527387        6.04949585864573       -1.93675577661346
h           -0.71719244816082        6.44059208516080       -2.43518330227101
h            0.07747984841158        6.50595247779696       -1.07802747508355
o           -2.54834786387168       -4.81516188486342       -0.39514782723924
h           -2.31140030835490       -5.02541674865634        0.51633528629604
h           -1.96693579901350       -4.04331109637365       -0.61658154509560
o           -6.10633624157189        0.15691163364245        2.31055382493375
h           -6.26417491912836       -0.44545320927236        1.55724319472329
h           -6.69029896649355       -0.13806762359038        3.02322255321442
o            9.46306386094482        2.70518128292097       -0.85522309535495
h            8.83416938149177        2.31023043286385       -0.22611875082154
h           10.10091732116679        1.99725294150076       -1.05176486262008
o           -2.41812491095334        0.34596996990202       -6.32861060585014
h           -2.62617354225115        0.19123786995726       -5.38112353225495
h           -2.93287509409661       -0.34696755650912       -6.78028338224541
o           -7.90102697816590        5.18428808861694       -0.13076440736810
h           -8.62132222353930        4.66074370539013       -0.51154124644076
h           -8.04795369273454        5.19661616707311        0.82984425760954
o           -0.02245055781695        4.09613841877205        6.61508757437156
h           -0.08900363694225        3.70710116096589        5.71759516223821
h            0.73825712070643        3.66888772231138        7.01964671713758
o           -9.21953107353922        1.82820997688430       -2.88494464384357
h           -9.61572830048097        2.58658131582467       -2.42563550105689
h           -8.82716474554133        1.27429054387533       -2.18253798801051
o           -0.97119929669524        0.02929283028255        3.38314755132155
h           -1.91596757044211       -0.14205576222053        3.24079394182851
h           -0.73964579747806        0.65626660981368        2.68497065599657
o            6.33522963673617       -1.62144865416698        5.74611184779275
h            6.37329019840483       -2.57512642458727        5.61575269208680
h            5.40116403909591       -1.41868974667823        5.94855630211062
o           11.87548109802761        1.55463382576567        1.32517783315399
h           11.17788399344888        2.15049090378387        1.64406611496839
h           11.75388087690924        1.44950199681934        0.37517289269280
o          -11.48498863525646       -1.02520317058490        2.92534759219479
h          -11.03199042818456       -0.35400089795677        3.45341406050243
h          -10.96958670007412       -1.83385569136007        3.05072411026277
o           -0.10591788237314       -0.42486958988158       -7.47120712804337
h           -0.89235623271002       -0.08643518078092       -6.98401530304337
h            0.12046979732300        0.29331278778735       -8.07201762960165
o           -0.50976549490550       -4.81625755016170        1.45395294770657
h           -0.09173432628912       -3.98375910399877        1.72042451538421
h           -0.13684489090393       -5.02575838922509        0.57074213124806
o            5.02660724214621        6.46507550628951       -2.13699851123565
h            5.06021270502817        6.65851162494264       -1.18240450000012
h            4.11454464086467        6.62294502674286       -2.41956329252016
o           -4.78491247366978        2.36686908110897        1.46913837019776
h           -5.08895152436206        3.17679173786666        1.91097471960564
h           -5.35546940243509        1.64217031894413        1.76121580589964
o           -8.80232545324630       -0.33847705099726        1.50939439266307
h           -9.07800895486887       -0.11022515267382        2.41347643198459
h           -9.62316200489135       -0.39452879719687        0.99128965973112
o           -5.18226554720461        4.74108461373604       -0.07022030208513
h           -6.06100618357780        5.11314854171725        0.08714281111506
h           -5.38245234443164        3.82290795752163       -0.33812059883034
o           -8.00980621797362        2.09255524015907        0.99538701065098
h           -7.37048944208756        2.26084983514483        0.27036807721628
h           -8.10695095366111        1.11131841819502        1.07599015227268
o            7.82358948565021        1.53110208824898        0.90933659703421
h            7.19285137126848        1.66909644924633        1.65921260296318
h            8.13236929000266        0.60418338124543        1.01819391543495
o            4.97257036835927        1.74700498261783        0.91424997197835
h            5.39796894419230        2.47771150052521        0.42246727760476
h            4.48354546912970        2.13435975968058        1.65336725860556
o            4.21084062433082       -1.01418072510742       -1.93470945340312
h            4.97792409156296       -1.15342917098836       -2.51898878169560
h            4.56368185509484       -0.86498616364914       -1.02748691617257
o            0.44801432633475        6.12701154275388        4.74669953971539
h            0.17699192987935        5.93509850395899        5.65279426125020
h            1.14627103075218        5.46963345154370        4.56715780757252
o           -5.78503670178120       -0.18241429507635        6.36524429705124
h           -5.87041073246059        0.20192257376642        7.23681899128944
h           -5.62916229894298        0.57677924958831        5.73684641515208
o           -3.09306353543480        2.03052708501382       -0.54865844489727
h           -3.02844918672936        2.85811890893228       -1.05394800551801
h           -3.73875960272872        2.18562584422416        0.17547351262004
o            6.35375100231767       -1.47434063441526       -3.53152262355553
h            6.16980480288370       -1.57218946053664       -4.47567761255975
h            6.54807383438877       -2.37482387747081       -3.20216706041221
o           -3.28479435104638       -3.89250370976505        4.64589614816718
h           -4.04804376593432       -4.48401967348573        4.67027145250619
h           -3.25076489420384       -3.54810092561784        3.73492426748486
o            3.21268624193646        1.97001643082790       -6.77443745888749
h            3.08901633551024        2.77813142865317       -6.23262723935494
h            4.13422774353833        1.71566443842554       -6.62885339159453
o            2.15697779678190       -0.36367664595897       -5.90899721238061
h            2.55979713150952        0.47500827343025       -6.21160501190545
h            1.33660470899365       -0.46337978720905       -6.42965598487529
o           -7.53469839815273       -1.79554216231493       -4.99574026021002
h           -7.54849814487277       -2.75592421861344       -5.03891183000477
h           -8.42728278714126       -1.48568219886303       -4.73150881752449
o            6.60479813692628        0.77226011145193       -1.48852516239886
h            6.87808089247199        1.21219248613611       -0.67266571229221
h            6.66531467021174       -0.18470647326321       -1.30549404948006
o            5.63894397423559       -6.15159893237275        0.34521045197225
h            5.28949257965658       -5.26653809998630        0.12129445974667
h            5.05476313873397       -6.78003755476812       -0.08259632923705
o          -10.03290911887620       -1.83621512064133       -1.35138261912262
h           -9.63670381143495       -2.31900469144977       -0.59319181156537
h          -10.72004404502578       -1.28924338088798       -0.93837193784055
o           -2.46805016012136        2.93785742383441        7.02108851770408
h           -1.65999732059008        3.47270689441260        7.10213569868474
h           -2.16031259907251        2.07458040522641        6.68774128273080
o            5.47526890082085        1.06132992113280       -5.54392816855048
h            5.00362950657793        1.15828269923804       -4.68169273884647
h            6.41094675651126        1.16163250732691       -5.29403198203517
o           -0.03269016266704        7.11595437240247        0.52939139468474
h           -0.95897919022895        7.39233680486046        0.52481961400899
h            0.45805336880330        7.60388278833428        1.22353463788379
o            5.78169711639114       -1.45819913021231       -6.25300086376505
h            6.25096386835400       -1.49717657429659       -7.08475088809765
h            5.57055211838031       -0.50462568228215       -6.08173766525421
o            0.75806040846936       -2.44316580322999        1.48929718432732
h            1.51596952435285       -2.39733739828195        0.88527265446680
h            1.01684055526033       -1.94639903571888        2.28512390129302
o           -6.61881346312616       -1.48624830471036        0.29936777372574
h           -6.23231369428442       -1.87860883870833       -0.50870197300420
h           -7.39167196882224       -2.02471464855284        0.54835470192546
o           -6.89608396320153        2.83691943279917       -3.65929013100188
h           -7.78446434928007        2.43726276197779       -3.51581551991322
h           -6.65254443519642        2.61866340404800       -4.57829366993947
o            0.42799682229162        4.67103315813551       -6.12908781306146
h            1.35229877963786        4.61863979699601       -5.85795057561658
h            0.31379818608694        3.97093757368794       -6.79838156766626
o            6.37655480070176       -0.83485698964440        3.14651476397581
h            6.46626020547942       -1.05318981088794        4.09172735048157
h            6.19060893145334        0.11555064817970        3.11128815074402
o           10.98430638460809        0.50104017201497       -1.20546177736075
h           10.78520721838019        0.27507463907946       -2.12846574762725
h           10.95283611072808       -0.33523292719798       -0.72019955478224
o            5.03811170117853        7.06767201648207        0.55632244698589
h            4.23059012919809        6.56784352065455        0.84855697307359
h            4.89137271279274        7.98464256430844        0.78579337599635
o            6.65812874377823        1.85889140073753        3.20655823570470
h            6.31281811881502        2.75887631463959        3.36063830250987
h            7.46326940517995        1.75062672518192        3.74998603808705
o           -0.32403923843673       -5.56232436004410       -3.69405421727665
h            0.48121124515472       -6.05766404838756       -3.90335200335845
h           -0.87232865616815       -6.09459395646142       -3.07763158956653
o            6.60939864849922       -3.16142005749269        1.86593853108383
h            5.84231028486760       -3.30019605001736        1.27845307568908
h            6.55960189301916       -2.22118482132487        2.12730085803541
o            1.95057154713166       -7.07921455891127        2.89332469096557
h            1.48305448570644       -6.28219459685644        3.17401285932464
h            2.88074003433350       -6.93870392104763        3.11766917275187
o           -7.90581207192218       -5.17426332694688        2.94189992155907
h           -7.08886222261633       -5.40847947631715        3.40452093313851
h           -7.75033924314652       -5.35416275945660        2.00350946892024
o           -7.40152573780834       -1.20001263156611        4.41537817785416
h           -6.76295037995357       -1.82876635413247        3.99668270259955
h           -6.95805625315203       -0.91840741729259        5.23138504204763
o           -4.07115630239025       -6.13864691047439        1.85630768457709
h           -3.17086493141620       -6.51951901753835        2.03920844160844
h           -4.48886994053585       -6.68689858060944        1.16881784726061
o           -3.66492009037926       -1.96314489296544       -6.87596971366782
h           -2.94228201942373       -2.53864442407207       -7.14031056944306
h           -3.93880772066905       -2.24334739076885       -5.98128212257438
o            7.84430145362857       -4.61624979861785       -0.23191975298327
h            7.53689542174885       -3.96857896700683        0.42497126897227
h            7.33718076117771       -5.41735206349397       -0.03587853787152
o           -6.28181670089168        0.00430062830117       -3.36300583639042
h           -6.98667711959682        0.06900144309811       -2.69316042813623
h           -6.59556276298313       -0.67401452996678       -3.97941960800136
o           -2.12549233370299       -6.81417135290141       -2.13901047344883
h           -1.68748062204067       -7.48946859044916       -1.60233186414046
h           -2.26620068584867       -6.06707133151520       -1.51343529378811
o            9.74418691826282       -1.16034536844667        3.91153048029944
h           10.07481252568861       -1.39208723674621        4.78038916908949
h           10.55554962158734       -1.06220248205182        3.32489594982606
o            2.01716416015344       -7.97484273051733        0.34741883716767
h            1.97353683480090       -7.75948474919782        1.30135178946417
h            2.43845652796727       -7.21415871619132       -0.07068240984223
o           -1.65388046375807       -6.98982262790491        2.34416306901549
h           -1.14436487792926       -6.20843527149971        2.03029442523509
h           -1.54514706244561       -6.91925009725220        3.31134981088270
o           -2.87185465845800       -2.63086625141597        2.22125324721861
h           -2.94530255934358       -2.58233245481863        1.25359037589577
h           -3.22967708466001       -1.77484280053527        2.52987627358554
o           -1.22874373400081       -5.79789135278883        4.71569655199157
h           -0.38483712409599       -5.41145351124146        4.44936078660118
h           -1.86401163736227       -5.06317652895325        4.75727406273418
o            7.00247794163075       -1.76638411262026       -0.75318113232195
h            7.73756070983189       -2.02677680736159       -1.33353325177856
h            7.39588869413137       -1.54456926309957        0.10746481372997
o            5.59703709432308        4.29893223965759        3.41905235119017
h            4.77197399557052        4.04646642848094        2.98049686297811
h            6.14803617700345        4.71963754722573        2.72513373837034
o           -9.45026932853190        0.60024506521114        4.00399280742110
h           -8.84452739413074       -0.03526457512852        4.40895320255016
h           -8.94570837624337        1.43538850492889        3.95417061774380
o           -0.15865916137992        4.85146046219550        1.95801009674150
h           -1.12663412487438        4.75475192116832        1.88625400379907
h            0.03994714539397        5.67701492540342        1.47378100886677
o           -8.82245938017799       -3.02547992280487        0.68728046813602
h           -8.56568489420084       -3.95181808686216        0.63715566898660
h           -9.09949779727515       -2.85213328548736        1.61529832163753
o           -5.38643951906178       -5.66733405480124        4.07306708401302
h           -5.33561548377714       -6.44474401357560        4.62897456293725
h           -4.89111302561712       -5.88116974846249        3.23648821572832
o          -10.11274712156895        3.89671646147403       -1.31079046258861
h          -10.43814322917978        3.40504721598979       -0.52617265628304
h          -10.81195726879829        4.48205887466799       -1.60033376732590
o            6.64741722917234       -4.01647769736289       -2.65821402497886
h            5.71662547872846       -4.20412408595384       -2.50297362268145
h            7.10772173406652       -4.22178479501542       -1.82030584691732
o            1.20239237984572       -4.47138566715807        3.74679314578356
h            1.86346690431308       -4.21793494197259        4.41644460655499
h            0.52794258501897       -3.75553754277247        3.73058896338695
o           -4.05187071887940       -5.83972125110803       -3.99538106362026
h           -3.40765112974792       -6.44872556640644       -3.60939502963107
h           -3.51726436127828       -5.11200996642268       -4.37545757405812
o           -2.63076350912571        4.27121907262894        1.03796216350079
h           -3.55005504303617        4.57236835398912        0.97091019282200
h           -2.30401673834007        4.26743393118024        0.13053285068943
o            4.65238158846582        1.63168185551720       -3.07521980139012
h            5.38357705052757        1.29718050375123       -2.50873046024710
h            4.82919717886102        2.57762262615561       -3.20740780012628
o           -0.87649791858102       -2.97223449624487       -6.86762176094204
h           -0.08214799457841       -3.53032460066665       -6.74277487712527
h           -0.57994092769455       -2.20102608369529       -7.37580756039427
o           -0.59808389041137       -7.93302919669698       -0.14530365011922
h            0.34453634493505       -8.16471761300172        0.01059448811717
h           -0.98636504188795       -7.83774388953737        0.73603307231325
o           10.07610587066868       -0.20897826911152       -3.72651611016461
h           10.62191828292984       -0.11036743666064       -4.50559950758375
h            9.22744513770500        0.28395657525546       -3.89875932878465
o           10.56354820884508       -2.04635957304486       -0.04426491579345
h           10.63486298552843       -2.96198886299529        0.35098508323645
h           10.13074675779921       -2.21263355401822       -0.89936369425986
o           -5.33941300262472       -7.19465530660100       -0.31812968758462
h           -5.15325528469633       -6.39276939349740       -0.87218106698136
h           -5.00373840646788       -7.94862850064952       -0.80123834656364
o           -5.34415006138544        4.68521842651899        2.83062780388263
h           -4.91472004012668        4.51895787354435        3.68245927445212
h           -4.88589919530085        5.48041456564302        2.45698677604808
o           -8.06212800311953        0.03251477638345       -1.30727712891475
h           -7.46436095717847       -0.32839998523206       -0.61408656772689
h           -8.76912932782596       -0.63460751402316       -1.38562253484585
o           -7.35180844202090       -5.28069160297307        0.14309801032375
h           -6.56817938672357       -4.70260714270589        0.33623129900563
h           -6.97612300537564       -6.15283630045775       -0.02508907547252
o          -10.58714976255538        2.49960569949402        0.90972357059851
h           -9.59941362429466        2.36063968798653        0.94824593252470
h          -10.84501556943143        2.83228062582932        1.76965876361618
o            5.19537619968817        4.26618516349573       -3.67973800410453
h            6.02788863215030        4.39280661334845       -4.13748262123667
h            5.11544420800428        5.02065785819818       -3.05795020999229
o            6.90218586813567        5.20375488591085        1.24065643149528
h            6.41429702180024        6.02808871003147        1.07775084380922