      -----------------------------------------------------------      
     |                   =====================                   |     
     |                           x T B                           |     
     |                   =====================                   |     
     |                         S. Grimme                         |     
     |          Mulliken Center for Theoretical Chemistry        |     
     |                    University of Bonn                     |     
      -----------------------------------------------------------      

   * xtb version 6.5.1 (579679a) compiled by 'ehlert@majestix' on 2022-07-11

   xtb is free software: you can redistribute it and/or modify it under
   the terms of the GNU Lesser General Public License as published by
   the Free Software Foundation, either version 3 of the License, or
   (at your option) any later version.
   
   xtb is distributed in the hope that it will be useful,
   but WITHOUT ANY WARRANTY; without even the implied warranty of
   MERCHANTABILITY or FITNESS FOR A PARTICULAR PURPOSE.  See the
   GNU Lesser General Public License for more details.
   
   Cite this work as:
   * C. Bannwarth, E. Caldeweyher, S. Ehlert, A. Hansen, P. Pracht,
     J. Seibert, S. Spicher, S. Grimme, WIREs Comput. Mol. Sci., 2020, 11,
     e01493. DOI: 10.1002/wcms.1493
   
   for GFN2-xTB:
   * C. Bannwarth, S. Ehlert and S. Grimme., J. Chem. Theory Comput., 2019,
     15, 1652-1671. DOI: 10.1021/acs.jctc.8b01176
   for GFN1-xTB:
   * S. Grimme, C. Bannwarth, P. Shushkov, J. Chem. Theory Comput., 2017,
     13, 1989-2009. DOI: 10.1021/acs.jctc.7b00118
   for GFN0-xTB:
   * P. Pracht, E. Caldeweyher, S. Ehlert, S. Grimme, ChemRxiv, 2019, preprint.
     DOI: 10.26434/chemrxiv.8326202.v1
   for GFN-FF:
   * S. Spicher and S. Grimme, Angew. Chem. Int. Ed., 2020, 59, 15665-15673.
     DOI: 10.1002/anie.202004239
   
   for ALPB and GBSA implicit solvation:
   * S. Ehlert, M. Stahn, S. Spicher, S. Grimme, J. Chem. Theory Comput.,
     2021, 17, 4250-4261. DOI: 10.1021/acs.jctc.1c00471
   
   for DFT-D4:
   * E. Caldeweyher, C. Bannwarth and S. Grimme, J. Chem. Phys., 2017,
     147, 034112. DOI: 10.1063/1.4993215
   * E. Caldeweyher, S. Ehlert, A. Hansen, H. Neugebauer, S. Spicher,
     C. Bannwarth and S. Grimme, J. Chem. Phys., 2019, 150, 154122.
     DOI: 10.1063/1.5090222
   * E. Caldeweyher, J.-M. Mewes, S. Ehlert and S. Grimme, Phys. Chem. Chem. Phys.
     2020, 22, 8499-8512. DOI: 10.1039/D0CP00502A
   
   for sTDA-xTB:
   * S. Grimme and C. Bannwarth, J. Chem. Phys., 2016, 145, 054103.
     DOI: 10.1063/1.4959605
   
   in the mass-spec context:
   * V. Asgeirsson, C. Bauer and S. Grimme, Chem. Sci., 2017, 8, 4879.
     DOI: 10.1039/c7sc00601b
   * J. Koopman and S. Grimme, ACS Omega 2019, 4, 12, 15120-15133.
     DOI: 10.1021/acsomega.9b02011
   
   for metadynamics refer to:
   * S. Grimme, J. Chem. Theory Comput., 2019, 155, 2847-2862
     DOI: 10.1021/acs.jctc.9b00143
   
   for SPH calculations refer to:
   * S. Spicher and S. Grimme, J. Chem. Theory Comput., 2021, 17, 1701-1714
     DOI: 10.1021/acs.jctc.0c01306
   
   with help from (in alphabetical order)
   P. Atkinson, C. Bannwarth, F. Bohle, G. Brandenburg, E. Caldeweyher
   M. Checinski, S. Dohm, S. Ehlert, S. Ehrlich, I. Gerasimov, C. Hölzer
   A. Katbashev, J. Koopman, C. Lavigne, S. Lehtola, F. März, M. Müller,
   F. Musil, H. Neugebauer, J. Pisarek, C. Plett, P. Pracht, F. Pultar,
   J. Seibert, P. Shushkov, S. Spicher, M. Stahn, M. Steiner, T. Strunk,
   J. Stückrath, T. Rose, and J. Unsleber
   
 * started run on 2022/11/24 at 12:04:43.997     

           -------------------------------------------------
          |                Calculation Setup                |
           -------------------------------------------------

          program call               : xtb solvent_cluster.coord --gfn2 --input xcontrol --opt 1
          hostname                   : cn0430
          coordinate file            : solvent_cluster.coord
          omp threads                :                     2

   ID    Z sym.   atoms
    1    8 o      1, 4, 7, 10, 13, 16, 19, 22, 25, 28, 31, 34, 37, 40, 43,
                  46, 49, 52, 55, 58, 61, 64, 67, 70, 73, 76, 79, 82, 85, 88,
                  91, 94, 97, 100, 103, 106, 109, 112, 115, 118, 121, 124,
                  127, 130, 133, 136, 139, 142, 145, 148, 151, 154, 157, 160,
                  163, 166, 169, 172, 175, 178, 181, 184, 187, 190, 193, 196,
                  199, 202, 205, 208, 211, 214, 217, 220, 223, 226, 229, 232,
                  235, 238, 241, 244, 247, 250, 253, 256, 259, 262, 265, 268,
                  271, 274, 277, 280, 283, 286, 289, 292, 295, 298, 301, 304,
                  307, 310, 313, 316, 319, 322, 325, 328, 331, 334, 337, 340,
                  343, 346, 349, 352, 355, 358, 361, 364, 367, 370, 373, 376,
                  379, 382, 385, 388, 391, 394, 397, 400, 403, 406, 409, 412,
                  415, 418, 421, 424, 427, 430, 433, 436, 439, 442, 445, 448,
                  451, 454, 457, 460, 463, 466, 469, 472, 475, 478, 481, 484,
                  487, 490, 493, 496, 499, 502, 505, 508, 511, 514, 517, 520,
                  523, 526, 529, 532, 535, 538, 541, 544, 547, 550, 553, 556,
                  559, 562, 565, 568, 571, 574, 577, 580, 583, 586, 589, 592,
                  595, 598, 601, 604, 607, 610, 613, 616, 619, 622, 625, 628,
                  631, 634, 637, 640, 643, 646, 649, 652, 655, 658, 661, 664,
                  667, 670, 673, 676, 679, 682, 685, 688, 691, 694, 697, 700,
                  703, 706, 709, 712, 715, 718, 721, 724, 727, 730, 733, 736,
                  739, 742, 745, 748, 751, 754
    2    1 h      2, 3, 5, 6, 8, 9, 11, 12, 14, 15, 17, 18, 20, 21, 23, 24,
                  26, 27, 29, 30, 32, 33, 35, 36, 38, 39, 41, 42, 44, 45, 47,
                  48, 50, 51, 53, 54, 56, 57, 59, 60, 62, 63, 65, 66, 68, 69,
                  71, 72, 74, 75, 77, 78, 80, 81, 83, 84, 86, 87, 89, 90, 92,
                  93, 95, 96, 98, 99, 101, 102, 104, 105, 107, 108, 110, 111,
                  113, 114, 116, 117, 119, 120, 122, 123, 125, 126, 128, 129,
                  131, 132, 134, 135, 137, 138, 140, 141, 143, 144, 146, 147,
                  149, 150, 152, 153, 155, 156, 158, 159, 161, 162, 164, 165,
                  167, 168, 170, 171, 173, 174, 176, 177, 179, 180, 182, 183,
                  185, 186, 188, 189, 191, 192, 194, 195, 197, 198, 200, 201,
                  203, 204, 206, 207, 209, 210, 212, 213, 215, 216, 218, 219,
                  221, 222, 224, 225, 227, 228, 230, 231, 233, 234, 236, 237,
                  239, 240, 242, 243, 245, 246, 248, 249, 251, 252, 254, 255,
                  257, 258, 260, 261, 263, 264, 266, 267, 269, 270, 272, 273,
                  275, 276, 278, 279, 281, 282, 284, 285, 287, 288, 290, 291,
                  293, 294, 296, 297, 299, 300, 302, 303, 305, 306, 308, 309,
                  311, 312, 314, 315, 317, 318, 320, 321, 323, 324, 326, 327,
                  329, 330, 332, 333, 335, 336, 338, 339, 341, 342, 344, 345,
                  347, 348, 350, 351, 353, 354, 356, 357, 359, 360, 362, 363,
                  365, 366, 368, 369, 371, 372, 374, 375, 377, 378, 380, 381,
                  383, 384, 386, 387, 389, 390, 392, 393, 395, 396, 398, 399,
                  401, 402, 404, 405, 407, 408, 410, 411, 413, 414, 416, 417,
                  419, 420, 422, 423, 425, 426, 428, 429, 431, 432, 434, 435,
                  437, 438, 440, 441, 443, 444, 446, 447, 449, 450, 452, 453,
                  455, 456, 458, 459, 461, 462, 464, 465, 467, 468, 470, 471,
                  473, 474, 476, 477, 479, 480, 482, 483, 485, 486, 488, 489,
                  491, 492, 494, 495, 497, 498, 500, 501, 503, 504, 506, 507,
                  509, 510, 512, 513, 515, 516, 518, 519, 521, 522, 524, 525,
                  527, 528, 530, 531, 533, 534, 536, 537, 539, 540, 542, 543,
                  545, 546, 548, 549, 551, 552, 554, 555, 557, 558, 560, 561,
                  563, 564, 566, 567, 569, 570, 572, 573, 575, 576, 578, 579,
                  581, 582, 584, 585, 587, 588, 590, 591, 593, 594, 596, 597,
                  599, 600, 602, 603, 605, 606, 608, 609, 611, 612, 614, 615,
                  617, 618, 620, 621, 623, 624, 626, 627, 629, 630, 632, 633,
                  635, 636, 638, 639, 641, 642, 644, 645, 647, 648, 650, 651,
                  653, 654, 656, 657, 659, 660, 662, 663, 665, 666, 668, 669,
                  671, 672, 674, 675, 677, 678, 680, 681, 683, 684, 686, 687,
                  689, 690, 692, 693, 695, 696, 698, 699, 701, 702, 704, 705,
                  707, 708, 710, 711, 713, 714, 716, 717, 719, 720, 722, 723,
                  725, 726, 728, 729, 731, 732, 734, 735, 737, 738, 740, 741,
                  743, 744, 746, 747, 749, 750, 752, 753, 755, 756

molecular fragmentation (1/2 indicates fragments):
111222222222222222222222222222222222222222222222222222222222222222222222
222222222222222222222222222222222222222222222222222222222222222222222222
222222222222222222222222222222222222222222222222222222222222222222222222
222222222222222222222222222222222222222222222222222222222222222222222222
222222222222222222222222222222222222222222222222222222222222222222222222
222222222222222222222222222222222222222222222222222222222222222222222222
222222222222222222222222222222222222222222222222222222222222222222222222
222222222222222222222222222222222222222222222222222222222222222222222222
222222222222222222222222222222222222222222222222222222222222222222222222
222222222222222222222222222222222222222222222222222222222222222222222222
222222222222222222222222222222222222
# atoms in fragment 1/2:     3   753
 fragment masses (1/2) :       18.02     4521.84
CMA distance (Bohr)    :  18.297
constraining FC (au)   :  0.0500

           -------------------------------------------------
          |                 G F N 2 - x T B                 |
           -------------------------------------------------

        Reference                      10.1021/acs.jctc.8b01176
      * Hamiltonian:
        H0-scaling (s, p, d)           1.850000    2.230000    2.230000
        zeta-weighting                 0.500000
      * Dispersion:
        s8                             2.700000
        a1                             0.520000
        a2                             5.000000
        s9                             5.000000
      * Repulsion:
        kExp                           1.500000    1.000000
        rExp                           1.000000
      * Coulomb:
        alpha                          2.000000
        third order                    shell-resolved
        anisotropic                    true
        a3                             3.000000
        a5                             4.000000
        cn-shift                       1.200000
        cn-exp                         4.000000
        max-rad                        5.000000


          ...................................................
          :                      SETUP                      :
          :.................................................:
          :  # basis functions                1512          :
          :  # atomic orbitals                1512          :
          :  # shells                         1008          :
          :  # electrons                      2016          :
          :  max. iterations                   250          :
          :  Hamiltonian                  GFN2-xTB          :
          :  restarted?                      false          :
          :  GBSA solvation                  false          :
          :  PC potential                    false          :
          :  electronic temp.          300.0000000     K    :
          :  accuracy                    1.0000000          :
          :  -> integral cutoff          0.2500000E+02      :
          :  -> integral neglect         0.1000000E-07      :
          :  -> SCF convergence          0.1000000E-05 Eh   :
          :  -> wf. convergence          0.1000000E-03 e    :
          :  Broyden damping             0.4000000          :
          ...................................................

 iter      E             dE          RMSdq      gap      omega  full diag
   1  -1290.9707797 -0.129097E+04  0.407E+00    8.43       0.0  T
   2  -1291.0486445 -0.778648E-01  0.241E+00    6.95       1.0  T
   3  -1291.0804014 -0.317570E-01  0.212E-01    5.02       1.0  T
   4  -1291.0858177 -0.541622E-02  0.459E-02    5.51       1.0  T
   5  -1291.0859013 -0.836140E-04  0.307E-02    5.44       1.0  T
   6  -1291.0859410 -0.397072E-04  0.438E-03    5.48       1.0  T
   7  -1291.0859435 -0.254252E-05  0.743E-04    5.48       4.9  T
   8  -1291.0859436 -0.286127E-07  0.382E-04    5.48       9.5  T
   9  -1291.0859436 -0.140446E-07  0.707E-05    5.48      51.5  T

   *** convergence criteria satisfied after 9 iterations ***

         #    Occupation            Energy/Eh            Energy/eV
      -------------------------------------------------------------
         1        2.0000           -0.7079149             -19.2633
       ...           ...                  ...                  ...
      1002        2.0000           -0.3505608              -9.5392
      1003        2.0000           -0.3493895              -9.5074
      1004        2.0000           -0.3378863              -9.1944
      1005        2.0000           -0.3345702              -9.1041
      1006        2.0000           -0.3271184              -8.9013
      1007        2.0000           -0.3203655              -8.7176
      1008        2.0000           -0.2905870              -7.9073 (HOMO)
      1009                         -0.0893682              -2.4318 (LUMO)
      1010                         -0.0764840              -2.0812
      1011                         -0.0636340              -1.7316
      1012                         -0.0603426              -1.6420
      1013                         -0.0591015              -1.6082
       ...                                ...                  ...
      1512                          0.4826086              13.1324
      -------------------------------------------------------------
                  HL-Gap            0.2012188 Eh            5.4754 eV
             Fermi-level           -0.1899776 Eh           -5.1696 eV

 SCC (total)                   0 d,  0 h,  0 min, 21.798 sec
 SCC setup                      ...        0 min,  0.042 sec (  0.192%)
 Dispersion                     ...        0 min,  0.118 sec (  0.541%)
 classical contributions        ...        0 min,  0.023 sec (  0.107%)
 integral evaluation            ...        0 min,  0.607 sec (  2.784%)
 iterations                     ...        0 min,  8.347 sec ( 38.294%)
 molecular gradient             ...        0 min, 12.590 sec ( 57.757%)
 printout                       ...        0 min,  0.071 sec (  0.324%)

         :::::::::::::::::::::::::::::::::::::::::::::::::::::
         ::                     SUMMARY                     ::
         :::::::::::::::::::::::::::::::::::::::::::::::::::::
         :: total energy           -1283.297935022598 Eh    ::
         :: gradient norm              0.107940186299 Eh/a0 ::
         :: HOMO-LUMO gap              5.475441157479 eV    ::
         ::.................................................::
         :: SCC energy             -1291.085943572166 Eh    ::
         :: -> isotropic ES            7.167165418318 Eh    ::
         :: -> anisotropic ES         -1.615927652632 Eh    ::
         :: -> anisotropic XC         -0.127066234403 Eh    ::
         :: -> dispersion             -0.792933321961 Eh    ::
         :: repulsion energy           7.633383030739 Eh    ::
         :: add. restraining           0.000000000000 Eh    ::
         :: total charge              -0.000000000000 e     ::
         :::::::::::::::::::::::::::::::::::::::::::::::::::::

      ----------------------------------------------------------- 
     |                       L-ANC optimizer                     |
      ----------------------------------------------------------- 
          low memory version by Sebastian Ehlert

          ...................................................
          :                      SETUP                      :
          :.................................................:
          :   energy convergence        0.1000000E-05 Eh    :
          :   grad. convergence         0.8000000E-03 Eh/a0 :
          :   optimization log               true           :
          :   writing optlog all                1     steps :
          :   Hessian reset                    20     steps :
          :   maximium step len.        1.0000000     a0    :
          :   LBFGS images                     20           :
          ...................................................
 * calculating model hessian...
Using Lindh-Hessian (1995)
 Shifting diagonal of input Hessian by   1.000021875661105E-002
 Lowest  eigenvalues of input Hessian
    0.010000    0.010000   -0.000000   -0.000000   -0.000000   -0.000000
   -0.000000   -0.000000   -0.000000   -0.000000   -0.000000   -0.000000
   -0.000000   -0.000000   -0.000000   -0.000000   -0.000000   -0.000000
 Highest eigenvalues
    0.301254    0.319059    1.220121    1.225396    1.387078    1.449493
 

........................................................................
.............................. CYCLE    1 ..............................
........................................................................
   1  -1291.0801518 -0.129108E+04  0.433E-02    5.77       0.0  T
   2  -1291.0801924 -0.405380E-04  0.262E-02    5.76       1.0  T
   3  -1291.0802037 -0.113193E-04  0.365E-03    5.76       1.0  T
   4  -1291.0802049 -0.122934E-05  0.848E-04    5.77       4.3  T
   5  -1291.0802049 -0.119894E-07  0.118E-04    5.77      30.8  T
   6  -1291.0802049 -0.864475E-09  0.400E-05    5.77      91.0  T
     SCC iter.                  ...        0 min,  4.491 sec
     gradient                   ...        0 min, 12.387 sec
 * total energy  : -1283.3004467 Eh     change       -0.2511714E-02 Eh
   gradient norm :     0.0479771 Eh/a0  converged?    E=F G=F D=F
   step length   :     0.5518351 a0

........................................................................
.............................. CYCLE    2 ..............................
........................................................................
   1  -1291.0910713 -0.129109E+04  0.340E-02    5.66       0.0  T
   2  -1291.0910858 -0.145624E-04  0.211E-02    5.63       1.0  T
   3  -1291.0910930 -0.715768E-05  0.199E-03    5.59       1.8  T
   4  -1291.0910932 -0.259649E-06  0.656E-04    5.60       5.5  T
   5  -1291.0910933 -0.892487E-08  0.642E-05    5.60      56.7  T
     SCC iter.                  ...        0 min,  3.607 sec
     gradient                   ...        0 min, 12.601 sec
 * total energy  : -1283.3034536 Eh     change       -0.3006828E-02 Eh
   gradient norm :     0.0106371 Eh/a0  converged?    E=F G=F D=F
   step length   :     0.5302073 a0

........................................................................
.............................. CYCLE    3 ..............................
........................................................................
   1  -1291.0906020 -0.129109E+04  0.175E-02    5.62       0.0  T
   2  -1291.0906071 -0.515027E-05  0.107E-02    5.63       1.0  T
   3  -1291.0906093 -0.215838E-05  0.124E-03    5.63       2.9  T
   4  -1291.0906094 -0.121469E-06  0.356E-04    5.62      10.2  T
   5  -1291.0906094 -0.409000E-08  0.571E-05    5.62      63.7  T
     SCC iter.                  ...        0 min,  3.438 sec
     gradient                   ...        0 min, 12.669 sec
 * total energy  : -1283.3046791 Eh     change       -0.1225576E-02 Eh
   gradient norm :     0.0136186 Eh/a0  converged?    E=F G=F D=F
   step length   :     0.3315348 a0

........................................................................
.............................. CYCLE    4 ..............................
........................................................................
   1  -1291.0911437 -0.129109E+04  0.103E-02    5.67       0.0  T
   2  -1291.0911451 -0.143105E-05  0.628E-03    5.67       1.0  T
   3  -1291.0911457 -0.580526E-06  0.655E-04    5.67       5.6  T
   4  -1291.0911457 -0.345672E-07  0.195E-04    5.67      18.7  T
     SCC iter.                  ...        0 min,  2.788 sec
     gradient                   ...        0 min, 12.769 sec
 * total energy  : -1283.3051701 Eh     change       -0.4909437E-03 Eh
   gradient norm :     0.0095953 Eh/a0  converged?    E=F G=F D=F
   step length   :     0.2356558 a0

........................................................................
.............................. CYCLE    5 ..............................
........................................................................
   1  -1291.0913895 -0.129109E+04  0.112E-02    5.69       0.0  T
   2  -1291.0913903 -0.760378E-06  0.679E-03    5.68       1.0  T
   3  -1291.0913906 -0.305168E-06  0.445E-04    5.69       8.2  T
   4  -1291.0913906 -0.185405E-07  0.141E-04    5.69      25.8  T
     SCC iter.                  ...        0 min,  2.755 sec
     gradient                   ...        0 min, 12.730 sec
 * total energy  : -1283.3054225 Eh     change       -0.2523699E-03 Eh
   gradient norm :     0.0060965 Eh/a0  converged?    E=F G=F D=F
   step length   :     0.2030592 a0

........................................................................
.............................. CYCLE    6 ..............................
........................................................................
   1  -1291.0900994 -0.129109E+04  0.173E-02    5.66       0.0  T
   2  -1291.0901004 -0.102836E-05  0.105E-02    5.66       1.0  T
   3  -1291.0901008 -0.375256E-06  0.485E-04    5.66       7.5  T
   4  -1291.0901008 -0.250493E-07  0.146E-04    5.66      24.8  T
     SCC iter.                  ...        0 min,  2.705 sec
     gradient                   ...        0 min, 13.011 sec
 * total energy  : -1283.3056003 Eh     change       -0.1778826E-03 Eh
   gradient norm :     0.0146250 Eh/a0  converged?    E=F G=F D=F
   step length   :     0.3046141 a0

........................................................................
.............................. CYCLE    7 ..............................
........................................................................
   1  -1291.0922189 -0.129109E+04  0.506E-03    5.65       0.0  T
   2  -1291.0922191 -0.175181E-06  0.305E-03    5.65       1.2  T
   3  -1291.0922192 -0.619693E-07  0.231E-04    5.65      15.7  T
   4  -1291.0922192 -0.475916E-08  0.727E-05    5.65      50.0  T
     SCC iter.                  ...        0 min,  2.657 sec
     gradient                   ...        0 min, 12.924 sec
 * total energy  : -1283.3058151 Eh     change       -0.2147791E-03 Eh
   gradient norm :     0.0055419 Eh/a0  converged?    E=F G=F D=F
   step length   :     0.0789401 a0

........................................................................
.............................. CYCLE    8 ..............................
........................................................................
   1  -1291.0920588 -0.129109E+04  0.139E-02    5.62       0.0  T
   2  -1291.0920593 -0.531309E-06  0.843E-03    5.61       1.0  T
   3  -1291.0920595 -0.175219E-06  0.352E-04    5.61      10.3  T
   4  -1291.0920595 -0.151508E-07  0.108E-04    5.61      33.7  T
     SCC iter.                  ...        0 min,  2.644 sec
     gradient                   ...        0 min, 12.771 sec
 * total energy  : -1283.3059600 Eh     change       -0.1449142E-03 Eh
   gradient norm :     0.0086781 Eh/a0  converged?    E=F G=F D=F
   step length   :     0.2249297 a0

........................................................................
.............................. CYCLE    9 ..............................
........................................................................
   1  -1291.0939901 -0.129109E+04  0.450E-03    5.62       0.0  T
   2  -1291.0939904 -0.321359E-06  0.271E-03    5.63       1.3  T
   3  -1291.0939905 -0.124340E-06  0.303E-04    5.64      12.0  T
   4  -1291.0939906 -0.749219E-08  0.974E-05    5.64      37.4  T
     SCC iter.                  ...        0 min,  2.639 sec
     gradient                   ...        0 min, 12.787 sec
 * total energy  : -1283.3060261 Eh     change       -0.6609607E-04 Eh
   gradient norm :     0.0064068 Eh/a0  converged?    E=F G=F D=F
   step length   :     0.0902740 a0

........................................................................
.............................. CYCLE   10 ..............................
........................................................................
   1  -1291.0934861 -0.129109E+04  0.403E-03    5.64       0.0  T
   2  -1291.0934864 -0.264510E-06  0.245E-03    5.64       1.5  T
   3  -1291.0934865 -0.136655E-06  0.297E-04    5.64      12.2  T
   4  -1291.0934866 -0.602154E-08  0.101E-04    5.64      36.2  T
     SCC iter.                  ...        0 min,  2.631 sec
     gradient                   ...        0 min, 13.171 sec
 * total energy  : -1283.3060585 Eh     change       -0.3233210E-04 Eh
   gradient norm :     0.0048608 Eh/a0  converged?    E=F G=F D=F
   step length   :     0.0547050 a0

........................................................................
.............................. CYCLE   11 ..............................
........................................................................
   1  -1291.0925664 -0.129109E+04  0.594E-03    5.63       0.0  T
   2  -1291.0925667 -0.223730E-06  0.360E-03    5.63       1.0  T
   3  -1291.0925668 -0.946513E-07  0.255E-04    5.63      14.3  T
   4  -1291.0925668 -0.535579E-08  0.830E-05    5.63      43.8  T
     SCC iter.                  ...        0 min,  2.604 sec
     gradient                   ...        0 min, 13.250 sec
 * total energy  : -1283.3060808 Eh     change       -0.2230374E-04 Eh
   gradient norm :     0.0053571 Eh/a0  converged?    E=F G=F D=F
   step length   :     0.0946901 a0

........................................................................
.............................. CYCLE   12 ..............................
........................................................................
   1  -1291.0932593 -0.129109E+04  0.251E-03    5.64       0.0  T
   2  -1291.0932594 -0.293223E-07  0.151E-03    5.64       2.4  T
   3  -1291.0932594 -0.130299E-07  0.928E-05    5.64      39.2  T
   4  -1291.0932594 -0.585715E-09  0.311E-05    5.64     116.9  T
     SCC iter.                  ...        0 min,  2.601 sec
     gradient                   ...        0 min, 13.242 sec
 * total energy  : -1283.3061003 Eh     change       -0.1951622E-04 Eh
   gradient norm :     0.0019110 Eh/a0  converged?    E=F G=F D=F
   step length   :     0.0437057 a0

........................................................................
.............................. CYCLE   13 ..............................
........................................................................
   1  -1291.0931682 -0.129109E+04  0.188E-03    5.64       0.0  T
   2  -1291.0931682 -0.215018E-07  0.114E-03    5.64       3.2  T
   3  -1291.0931682 -0.101545E-07  0.796E-05    5.64      45.7  T
   4  -1291.0931682 -0.481577E-09  0.268E-05    5.64     135.8  T
     SCC iter.                  ...        0 min,  2.569 sec
     gradient                   ...        0 min, 12.853 sec
 * total energy  : -1283.3061090 Eh     change       -0.8721735E-05 Eh
   gradient norm :     0.0008599 Eh/a0  converged?    E=F G=F D=F
   step length   :     0.0331543 a0

........................................................................
.............................. CYCLE   14 ..............................
........................................................................
   1  -1291.0932244 -0.129109E+04  0.231E-03    5.64       0.0  T
   2  -1291.0932244 -0.290643E-07  0.140E-03    5.64       2.6  T
   3  -1291.0932244 -0.101636E-07  0.857E-05    5.64      42.4  T
   4  -1291.0932244 -0.844921E-09  0.265E-05    5.64     137.2  T
     SCC iter.                  ...        0 min,  2.575 sec
     gradient                   ...        0 min, 13.205 sec
 * total energy  : -1283.3061132 Eh     change       -0.4232127E-05 Eh
   gradient norm :     0.0007372 Eh/a0  converged?    E=F G=T D=F
   step length   :     0.0454624 a0

........................................................................
.............................. CYCLE   15 ..............................
........................................................................
   1  -1291.0931155 -0.129109E+04  0.662E-04    5.64       0.0  T
   2  -1291.0931155 -0.128075E-07  0.390E-04    5.64       9.3  T
   3  -1291.0931155 -0.272053E-08  0.633E-05    5.64      57.4  T
     SCC iter.                  ...        0 min,  1.917 sec
     gradient                   ...        0 min, 12.966 sec
 * total energy  : -1283.3061146 Eh     change       -0.1383830E-05 Eh
   gradient norm :     0.0005960 Eh/a0  converged?    E=F G=T D=F
   step length   :     0.0145978 a0

........................................................................
.............................. CYCLE   16 ..............................
........................................................................
   1  -1291.0931489 -0.129109E+04  0.433E-04    5.64       0.0  T
   2  -1291.0931489 -0.332443E-08  0.260E-04    5.64      14.0  T
   3  -1291.0931489 -0.540467E-09  0.314E-05    5.64     116.0  T
     SCC iter.                  ...        0 min,  1.909 sec
     gradient                   ...        0 min, 13.060 sec
 * total energy  : -1283.3061150 Eh     change       -0.4177618E-06 Eh
   gradient norm :     0.0003446 Eh/a0  converged?    E=T G=T D=F
   step length   :     0.0097461 a0

   *** GEOMETRY OPTIMIZATION CONVERGED AFTER 16 CYCLES ***

------------------------------------------------------------------------
 total energy gain   :        -0.0081800 Eh       -5.1330 kcal/mol
 total RMSD          :         0.0616983 a0        0.0326 Å
 total power (kW/mol):        -1.3422883 (step)   -0.0780 (real)
------------------------------------------------------------------------

 L-ANCopt (total)              0 d,  0 h,  4 min, 35.398 sec
 setup                          ...        0 min,  0.030 sec (  0.011%)
 model hessian                  ...        0 min,  7.796 sec (  2.831%)
 ANC generation                 ...        0 min,  2.520 sec (  0.915%)
 coordinate transformation      ...        0 min,  0.002 sec (  0.001%)
 Rational function              ...        0 min,  0.000 sec (  0.000%)
 singlepoint calculation        ...        4 min, 24.932 sec ( 96.200%)
 optimization log               ...        0 min,  0.113 sec (  0.041%)
 hessian update                 ...        0 min,  0.000 sec (  0.000%)

================
 final structure:
================
$coord
       13.16918902524300      -11.71263231152400       -4.57194250580600      o
       14.08486022112900      -12.14612531460600       -3.06692505021900      h
       11.77349101150000      -12.89364870308300       -4.67097826104600      h
        1.81170249549300        7.50688915090600        7.74251382608500      o
        0.43388830049100        8.53346281716600        8.39339454854900      h
        2.80826129093300        8.67123764294000        6.68787114623900      h
       -5.23324464717200       -0.31396471250500       -5.98720077503000      o
       -3.87439091146900       -1.54662744502700       -6.00443793333100      h
       -4.58265615363000        1.21351714735400       -5.20132795143200      h
      -10.52627159243400        3.02574615356700        2.89273833951200      o
      -10.08176980394100        3.97384996947900        1.36594178536700      h
      -11.55859494907200        4.10453460396200        3.96003148359000      h
       -5.76518683814900        6.67804018713900        1.31981219317700      o
       -6.68419723591300        7.16073868650400        2.83861469047300      h
       -4.01422453357100        6.43769662267800        1.83553803219000      h
       -8.77049651018600       -9.29675884882100       -3.16813044838700      o
       -9.48419230335000       -9.31113217903600       -4.87226112531700      h
       -8.14491437047000       -7.55869966275600       -2.90196281412400      h
       -3.08237387789500       -7.62639985304700       -1.56241952592600      o
       -1.92882123355000       -9.05806238612700       -1.55218368434800      h
       -4.53343913398700       -8.08782256573200       -0.55388336225900      h
        0.51906540522900      -11.36763391930300       -1.88034338021300      o
        0.37331123298800      -12.28781988855700       -3.47230236650800      h
        2.28009975069600      -10.86567506510000       -1.75238426723000      h
       -2.48967179107400       -5.40454514164100        4.88056043224500      o
       -4.24477449994700       -5.18000371255600        5.42124700464300      h
       -2.29318446374700       -7.21975629886300        4.61866661277200      h
       -4.52791089945900        8.42758083066500       -9.11166182273200      o
       -5.37408990571500        7.84334395926200      -10.64720500763800      h
       -2.88606520185700        9.02955347967900       -9.67850524642700      h
       -9.32669231780700        0.57241349222000       -2.93009508080500      o
       -9.30458217346700        2.37187955090900       -2.64060340310200      h
       -7.94756621741500        0.16846742431800       -4.07212851890100      h
       -7.75109328885400        5.26852669821800       -6.51986655851400      o
       -6.69263702998100        6.33242009700100       -7.55921875592300      h
       -6.68694410527000        4.83074721294700       -5.08280343471300      h
       -7.42663103475000       -4.54168345442500       -2.85589828765500      o
       -8.94734123930400       -3.89024664684200       -2.05797192891500      h
       -7.56908226215200       -4.13660181354000       -4.63668833388600      h
       -9.76074653056700        5.55517465886600       -1.37307980392100      o
      -10.57422522483300        7.09094499185400       -0.68298847800100      h
       -7.98368551815700        5.82959390866500       -0.98524339953700      h
       -4.37266326618000        3.78578929695500       -3.04081267985700      o
       -2.63371245204300        4.38874546234300       -2.98414981324000      h
       -4.73809649946000        3.33771533606700       -1.29478713692300      h
       -0.84613593467700        4.56618714417200       -7.38407017811000      o
       -2.44391191469600        4.10836778851800       -8.23525805058200      h
       -1.10682909654900        6.15950770201300       -6.50006208600100      h
       -0.22507569996500        1.08781723405900        4.34766442779500      o
       -0.12705715944800        0.10212807746100        5.89928592037400      h
        1.14241634136000        2.31563757766200        4.36084295818000      h
       -5.22508339719700       -3.35006172260700       14.71759844385600      o
       -4.28738304986900       -4.93491568042800       14.78176264698100      h
       -6.61412719473200       -3.60262278239200       13.54564289724000      h
       -7.09721384834300       -9.20848327930800        1.75538419697000      o
       -8.54598010428500       -8.16516901822300        2.20264780765500      h
       -7.80773766317900      -10.78126612583500        1.13052173557100      h
       -2.58448769794100        3.60888389610700       11.47837354707900      o
       -2.83528210547100        4.53528361951900        9.88135262274900      h
       -4.25562518143700        3.13263943276800       12.07538189717400      h
       -9.79510337216700       -1.82607023438600        3.81015974968400      o
      -10.26244678408900       -2.54510187115800        2.20514359044800      h
       -9.94077023151000        0.00206445586900        3.63208916894900      h
        7.38938401075700        1.51836510454000        5.83780031231900      o
        8.06221231615300        2.63597101016800        7.11986865138500      h
        6.46361259703400        0.17635779984200        6.72979214356300      h
       -0.95503122980000       -3.23407211489000       -5.93805611941800      o
        0.15155601603100       -1.79961529866200       -5.53371181501600      h
       -0.47399233538500       -4.55782482130800       -4.78143778476000      h
       -0.90589724207000        9.12382226704100       -4.95829683422100      o
       -1.28135194547100       10.66070377249400       -5.91387427097700      h
        0.94314774599300        8.95322089010400       -4.99006000881400      h
       -0.98469454545300       -0.23716427913000       14.85835061638900      o
       -1.49685137490600        1.13707238345800       13.78497852024100      h
       -2.40086966964500       -1.39605028965200       14.93530620495700      h
       -6.42755813241100        2.69080987493700        6.25880747842400      o
       -8.17943026501200        2.53714721641700        6.83367152341400      h
       -6.38360465810600        2.54554463413600        4.42549781579800      h
      -14.16568404753400        0.63733773386300        0.38372467044400      o
      -12.98572905948400        1.50175662007800        1.51647454862300      h
      -14.70010952738200        1.86713216871800       -0.85250789442500      h
        3.71732668860300        4.31200410236800        4.01512572346700      o
        3.02475892350300        5.51035000785900        5.20822852119500      h
        5.13248027570200        3.40616295586900        4.81696116137000      h
       -5.00280154290800       -1.80407900974400      -11.06060409965500      o
       -5.87083680844500       -2.21510149888100      -12.63714909801700      h
       -3.25985674403300       -2.42186955709300      -11.21604494134900      h
        6.44881001254700       -3.78925638773700       -3.65653095391900      o
        7.29894883502700       -2.27750406168200       -4.33491540320500      h
        7.55485747913700       -5.21475219570100       -3.94683194833400      h
       -4.58876972755800       -8.19741591012400       -6.30836767173300      o
       -4.17315873286000       -7.86519627506300       -4.51931779494800      h
       -2.98561217010700       -8.04012290796500       -7.21005484362700      h
      -13.80419846518000        0.55917388853800       -5.13804912384200      o
      -12.18861232718100        0.27263033109200       -4.28516143588600      h
      -13.55489800846700        2.14850657603800       -6.04590866980900      h
        4.66383853153500       -1.85399666966000        8.27286038443900      o
        3.82907027826600       -2.73458716272100        6.85648675965400      h
        3.43043780112500       -0.66293830124100        8.89088012625500      h
        7.40767090993300       -7.52646248593500        2.23388762359100      o
        6.54495206880200       -7.67658430655200        3.84837917355000      h
        7.47798503643200       -5.72557625076300        1.86924446526700      h
        2.94966323779700       -3.74769118007800        4.07024932458400      o
        4.39593000821700       -3.28732997616000        3.05210112467800      h
        2.61647535119000       -5.52459213402300        3.74378536107200      h
        2.02233894404300        2.69354345706400        9.27242865254600      o
        0.44694107339400        2.45483068376700       10.16340096435700      h
        2.01116442909900        4.46823830109400        8.75352446569600      h
      -10.89612671300400        9.88156602364200       -5.06371599641300      o
      -11.12284340846400       11.37795450715300       -4.01958619820500      h
       -9.29312718728700        9.16194024493800       -4.52756282630100      h
      -11.86594830813400        9.28617521754400        1.02534431997300      o
      -13.35257276569300       10.06182720776800        0.26326061932400      h
      -12.43095568883700        8.60621342024400        2.65047645017900      h
        0.73014940797000       -9.22658513670800        8.22298116457200      o
        1.14756861453200       -9.85768639888300        9.92418912804400      h
       -0.94352537748900       -8.49594501056200        8.38416446164000      h
       -9.50263207134000       -9.85132192849700        7.06596182761100      o
      -10.58596713509600       -9.12459551606600        8.37991601679900      h
       -8.87092013836700       -8.38687026933100        6.16852710564300      h
        1.95205298013000       -5.53160002774900       -2.09467094731200      o
        3.60842408213100       -4.84149613326200       -2.47597473122700      h
        2.12691376288500       -6.82208850433200       -0.78873080052600      h
       -0.93031365387800        6.26837702946600        2.74728622541300      o
       -0.41025172359100        5.29487959289900        1.27369355931900      h
       -0.78707394531700        8.02218314577600        2.20654636198800      h
       -0.14902680493100       -7.43887150914200      -14.79091703335900      o
        0.89837511101700       -8.84629382128000      -14.30529483031800      h
        0.66127104195700       -5.92853346513800      -14.18127516722800      h
        5.36075303802700       -7.87244107749500        6.81821371708200      o
        3.61492130028400       -8.40319376308800        7.04183959076400      h
        5.83034331123800       -7.11851210632100        8.42879211816500      h
       -8.11264643609200        7.80263384220300        5.67884088556600      o
       -8.25631621037500        9.43708973341000        6.49354762598800      h
       -9.81006671564100        7.14791352296600        5.60732183068500      h
      -13.14994797716700        6.73473725817300        5.22178130065500      o
      -13.54950968717000        7.68119901845400        6.76283945289000      h
      -14.76914193818500        6.18847287617800        4.51069348898300      h
      -13.40845373533200       -3.27582852502000        6.97348458246300      o
      -11.97124892120300       -2.76629639433100        5.92138237591700      h
      -14.81443948233900       -3.45771502464000        5.77985539835900      h
        1.15839650649400      -13.79001781028900        6.16354242791900      o
        0.81832621983800      -12.02210334435000        6.63827491699100      h
        2.76624858520900      -14.14814068276500        7.01009052864400      h
       11.56907933194300      -10.95386902793200       10.97665488195800      o
       11.74379550663200       -9.17265908535100       11.43550664988900      h
       10.07259863301800      -11.53065790695500       11.85002916527400      h
        0.37786906621800        4.55596766856500       -1.87699319902700      o
        1.73134129062900        5.80363642156500       -1.61125397603100      h
        1.22182963663300        2.95744165896300       -2.11207140571400      h
        9.64569254393100       -7.89097443983100       -4.77324948883900      o
       10.06997507923900       -6.59386508993200       -6.01404754883100      h
       11.11175908239100       -8.98417205248000       -4.59596942752200      h
      -15.95096474704900       11.53937025941000       -1.21101129912500      o
      -14.95842795380100       12.97244708984700       -1.73987886535400      h
      -16.44952559091400       10.66843640673400       -2.73633476332700      h
       13.11596384942900        2.81777483616700        4.87285398185900      o
       14.68348722656800        2.67924958283400        3.91968228906900      h
       12.12718474183900        1.32923507314000        4.37897407118400      h
       -2.29549147179900        7.05710702326900      -15.00504262125700      o
       -2.47868253257900        5.46494475216100      -15.88012383771000      h
       -4.01294729010100        7.50073299275900      -14.54013237851500      h
      -16.71121828553300       -2.76371733736300        3.25104136069600      o
      -16.05327344187100       -1.49358395578100        2.09463750105200      h
      -16.81638589931100       -4.28408544709600        2.23092846752300      h
       -3.28511728867600        6.25016007226000        7.27996274424200      o
       -4.73281093050000        5.18806617994100        6.76702194856200      h
       -2.02158002556600        6.01501434094100        5.96046337497600      h
        5.40720286336600       -9.48219982638700       -2.01167652914600      o
        6.86318507223800       -9.36564617874900       -3.10180178887500      h
        5.99751745171400       -8.92310238293300       -0.36104659542600      h
       -5.56335417266400      -13.02389763535900        7.30814519108400      o
       -7.19133670785500      -12.15691004466100        7.22875718128900      h
       -5.63313011409400      -14.35984353144700        6.04243430887400      h
        1.93682833593400        0.79922675116500       -5.53254507723900      o
        2.99125464423800        0.08684198051100       -6.83619787214600      h
        0.92902418596000        2.17087564155700       -6.25000624630000      h
        9.50259549720600       -3.75970051906600      -13.43391957583400      o
        8.02475650711100       -4.82863901162300      -13.57450126352700      h
        8.87979270613400       -2.05979201676200      -13.19915746663000      h
       -7.13740063924900       -4.97750100864100        6.75696259302600      o
       -8.27498615775700       -4.20359251359400        5.54059983548800      h
       -6.73460762845300       -3.61406951198200        7.95444754504400      h
       -1.66744940400500      -12.83990460436600      -10.03450094397500      o
       -1.44546628685400      -11.02032467665000       -9.81184569722400      h
       -3.40190230264200      -13.19522771008700       -9.54121829573700      h
        3.67469234864700        1.12875750122000       -0.07379744832600      o
        3.71576094294000        2.33770294626800        1.29471849546200      h
        4.91308151261100       -0.15090037750300        0.35854154598400      h
       -2.35860681976400      -17.00794523030000       -3.23604830562800      o
       -1.62972269575600      -17.04725804714300       -1.56712251448600      h
       -3.49506842376400      -15.55433242823000       -3.21989517841300      h
        5.71016807014700      -13.81934564006000        8.05573714996700      o
        6.11213314173800      -12.98799125552000        9.65863571877600      h
        7.11884554015000      -14.83007773633400        7.53747954097600      h
       -8.93822178640100        2.01175445917700      -13.79323578435700      o
       -9.20202158686900        0.42790696240400      -14.64920396163700      h
       -8.91581215734800        1.58672158361500      -11.96303813792000      h
       -7.74179375716200       -4.72431438040300       -8.04058201971900      o
       -6.72766082616600       -6.17995190326200       -7.49939072892100      h
       -6.59206562617600       -3.62273031063400       -8.98527718084500      h
       -4.43027601337200        3.17603106093400      -10.39580188460900      o
       -3.85568816827100        3.39581329496300      -12.11087906970900      h
       -4.71971531864400        1.36123945915600      -10.23236610337300      h
      -24.27474346006500        4.84212945185900        3.59986117997600      o
      -25.44279141265400        5.69172595266100        4.68540016647700      h
      -23.06767303795300        6.16516204513400        2.98699219728400      h
        6.27528742788400       -6.27958621332300       11.47475439874300      o
        4.51058755094700       -5.75260563520800       11.75147203717700      h
        7.29000895030900       -5.18073415286200       12.55518414321100      h
       -6.10511333140100        8.36381621500500       11.24701602446000      o
       -5.08522920882900        7.93490457186300        9.78299912528400      h
       -4.94357299858300        8.61621082300500       12.61848556757700      h
       11.26242792065600       -2.76131671606600       -2.07412732361200      o
       11.99173284033400       -1.19186831176400       -1.45812827425700      h
       12.05354928384500       -3.05992677519800       -3.71826732747400      h
        8.73027955755300        7.31166416315800        3.97739877786900      o
        8.70213174749800        5.90472056641300        2.75354994657200      h
        8.68859583800000        6.51155135936900        5.65286236109200      h
       -9.28441017571300        1.02216117015300       -8.91019175011400      o
       -8.81234027214200        2.64006431776800       -8.13643566505500      h
       -8.00068042436300       -0.12801447930700       -8.29663565002800      h
        9.06224857602500      -14.57763398109700        3.87894033031600      o
        9.53901063700300      -12.99309675646300        4.73235528601500      h
       10.12140930451200      -14.72164590500400        2.41773034578200      h
       -6.84093646333200       12.87557589681800       -8.33284513945300      o
       -6.20018318455300       11.13121364417700       -8.43789674522300      h
       -8.35497312318400       12.88759187875900       -9.32912915551200      h
        8.60974082200700        0.32129487423600       -5.55765377011900      o
        7.48459760345700        1.70899184254400       -5.01481418305800      h
       10.19969626926100        0.67454180570800       -4.75926008271800      h
      -12.89790787022900      -12.00756376984200        3.90223396088500      o
      -11.58452514248300      -11.31908627233900        5.01235226812300      h
      -14.40816022650000      -11.10195068794200        4.40937870629600      h
      -21.52519843237400       -6.40098997130000       -2.15723798751300      o
      -20.48779200583900       -6.74667874220400       -3.65290159841700      h
      -22.44301547084600       -4.85667432213500       -2.48698145060100      h
      -16.40049690873000       -6.29319892525200       -0.45727446961700      o
      -18.00927744230700       -7.02853762555900       -0.86775196292400      h
      -15.12555461680300       -7.62427606016200       -0.68220741741600      h
      -16.20581480806600       11.03861109508000        4.07916685138700      o
      -14.84182020501000       12.23462178174500        4.23794490148700      h
      -16.89652590551600       11.26225278614600        2.41081265132200      h
      -11.33325761277000       14.02457863476600       -1.79929177720100      o
       -9.58377805747000       14.44084648781000       -2.23340548892800      h
      -11.36781571207300       13.86937792754000        0.01531813234000      h
       -5.96173372963900        9.19330728157100       -3.12305327972700      o
       -5.73809988207000        8.75298177419800       -1.34079156292500      h
       -4.39048745216300        8.81657363016700       -3.96011693964300      h
       -1.19850174816700       11.07160535866600       10.00664654127400      o
       -1.12903867996900       10.12088564973500       11.58978639501600      h
        0.24508419466100       12.17843893821100        9.96989226804600      h
        4.54967131335200       10.03448185679800        4.54148046006400      o
        6.02075671089900        8.94039786516900        4.34268159387700      h
        5.19889024842100       11.73078893507300        4.79621298409500      h
        1.34400213474800        5.04464095660500      -11.82366091392500      o
        0.40933980968900        4.95685965946500      -10.21514982522100      h
        0.24043828432800        5.88874193573600      -13.01807210725600      h
        2.53655962238400        0.28477063640300      -13.22880409902700      o
        2.01196154347200        2.01743828183400      -12.86347484054800      h
        4.32589865293900        0.21807638786300      -12.87594145447600      h
        8.66109695605600        3.15615375743800        1.12007378378300      o
        8.45758654311800        2.10965332523900        2.60319413177400      h
       10.24844100292600        2.69421683974100        0.32303850301500      h
       17.15080855666400        6.39373974025300       -8.12518682851200      o
       18.21742899231900        7.42245323107800       -7.02889837273100      h
       18.28636734919400        5.13781441137500       -8.82161851040200      h
       -1.82118366235200       13.42320952113500       -7.52628003421800      o
       -1.08933497671500       12.87754707543600       -9.11447048593900      h
       -3.59508590127200       13.72416267263600       -7.86015910642100      h
      -11.37914326345000       -6.72879550058500        3.09211035674500      o
      -12.96818805687200       -7.20090123279300        3.87665851476700      h
      -11.82941059466500       -5.84876931956600        1.54332314487600      h
       -1.02107302154300      -14.97399738265400        1.50623376692300      o
       -0.22539679936400      -14.60446251242900        3.11381374229900      h
       -0.70812849856800      -13.51477210868800        0.40868757342300      h
       25.88459700592600       -0.62222285213100       -3.45720529752200      o
       27.55600117888700       -0.88905010336200       -4.09455173773000      h
       24.72869658571500       -1.34165947474800       -4.75493526460300      h
        1.95911475939100       -8.40297228588400        2.23853112017700      o
        0.31445673572600       -9.11799649384000        2.58268459891900      h
        3.12566531789400       -9.82642135245900        2.25655127905500      h
        8.21548480862500       11.64229990400600       -5.20920215411400      o
        8.75687083719400       10.09724922646900       -6.06600857262800      h
        9.71154445393200       12.56965475916300       -4.78536906631200      h
       -9.56785549949700       -2.98304183743600       11.63948027207400      o
      -10.54177737267100       -2.03300807049000       12.85466074468100      h
      -10.49438668207300       -4.52955206125100       11.29401608092500      h
      -13.55523620988600       -1.84387042066000       -9.70711768170100      o
      -12.79592910417200       -3.11870278533900      -10.79360785760100      h
      -12.17153782458500       -0.72408361444000       -9.22278172100600      h
       -6.47451847382900       14.16047894669500       -3.31665196724400      o
       -6.29641946708000       12.33628075118000       -2.94269587132300      h
       -6.65855953957700       14.20659986863400       -5.13815745672800      h
      -15.95343773766800        8.78960515725900       -5.58872476020600      o
      -14.12837466655300        9.07771141790900       -5.65309361781700      h
      -16.33089365253500        7.66487023176300       -6.96347135702700      h
        9.41588158398900       -3.60337703815900        7.78350569089100      o
        7.60225130101000       -3.53217814688400        8.02038003749400      h
       10.07740986999300       -4.82013871552200        8.99241646834900      h
       -7.71383220756700       -3.06351316419000      -15.15922042001600      o
       -8.98884919355800       -3.92979288093400      -14.10252571000500      h
       -6.72583753126500       -4.40913007543100      -15.86735617721000      h
        2.97561207108600      -11.30741262389100      -12.08517755014600      o
        4.01568071953800      -11.89352167419300      -10.70455285720300      h
        1.40593235563400      -12.22047911544800      -11.90294707901800      h
        3.69107335130000       -7.96672100913800       -6.68372844630500      o
        4.39866417370200       -9.65374206763900       -6.92803249387500      h
        3.33692399083800       -7.80489072395100       -4.89919170298400      h
       -7.11936156685900       11.58676541259500        1.53552846224000      o
       -7.25792663010500       13.35885109783400        1.97831506629700      h
       -8.80924392499400       10.87674581727100        1.52900646807800      h
      -12.78058284477300        5.05183190846100       -7.17284587115500      o
      -11.05823144516800        5.40390310611600       -6.64866923533300      h
      -12.75990228019200        5.01443628341100       -9.01313724573100      h
      -21.13048813378700        8.06789354856300        1.59826418845000      o
      -19.49728533554100        7.35063786660100        2.10777283778200      h
      -21.23116380567800        7.78412898713800       -0.20485665124800      h
       12.65685461786500       13.51494770240100       -1.33501094623800      o
       11.00330705952900       12.95320448463700       -0.74921578773100      h
       13.14108770717000       12.32699134766300       -2.66610025835200      h
      -14.89489087928700        5.05670473481800       -2.29389386951400      o
      -13.07935527274900        5.11120729809900       -2.47572693902200      h
      -15.53044061814000        6.38328823540100       -3.40402727471700      h
        3.12984410932500       13.72221495307600        8.41954098632300      o
        2.17152234943000       13.70676821014600        6.83907899349300      h
        4.63427258590100       14.66129073989300        8.00951187169300      h
        7.42324205957000        0.32035094346300      -10.94968984362600      o
        6.45920616033300       -0.91028197300100       -9.93072612398300      h
        6.92336109643100        1.95503194166000      -10.25578701284300      h
        1.18696626060600      -11.25090402410700       12.80462291199000      o
        0.17180506679400      -12.71586883646500       12.31636709464800      h
        0.06765503415600      -10.12683237616800       13.73794673962400      h
        9.70366539711100        7.15164814414000       -2.27965225471000      o
       10.84812516301200        6.69035892434200       -0.91349178931100      h
        8.83239217516600        8.65687574651300       -1.66149277181700      h
      -11.92987052958400       -3.60129933209900       -0.88497812377700      o
      -12.76371878583700       -1.97099455520800       -0.59557968590700      h
      -12.60529492197000       -4.22156295888500       -2.49288636533600      h
       13.05925727023900        6.37706603454600       10.27026135552400      o
       13.81837586974200        4.81425692857600       10.80598274971200      h
       13.95250292709100        6.82618397321200        8.70721728197500      h
      -15.62686907578000       -0.91922382832600       10.97505066525300      o
      -16.72120090440000        0.45797090373800       10.46646805684700      h
      -14.76227167735800       -1.51268704422400        9.45337153924600      h
       -8.80883890513400       11.95878563281400        8.67484424028300      o
       -8.07045890709700       10.82736609184600        9.92730144337600      h
       -7.49660672191400       13.23562148286600        8.39136988898600      h
      -16.98235843826700        5.33107023835500        2.27078197691300      o
      -17.82714151927100        3.70581657496000        2.09479603186300      h
      -16.12892614225300        5.54902799715900        0.64902055239500      h
       -6.81093079434300        1.48260175560100       13.45217583707200      o
       -8.63718289236400        1.58430250819900       13.60412690768300      h
       -6.27861477947900        0.24387969713600       14.67783993647000      h
        1.67258453660700       -4.54780543120800       12.22786537955200      o
        2.28950984269400       -3.27299465003500       13.40725970764500      h
        0.95304552863800       -3.63782980413800       10.77690949116000      h
        6.44431489592000      -11.25402670893300       12.37492343907600      o
        6.46987452805500       -9.41899177168000       12.09193358308700      h
        4.75361668205500      -11.57859501974800       12.99474478797500      h
       -0.32905485186600       10.42880952821000      -11.37128038891900      o
       -0.67771467674200        9.87530561233900      -13.06786730386000      h
        1.48489578596000       10.21930352203700      -11.09589285072500      h
        5.96856669011100        4.01277366000200       -3.64025693772300      o
        7.34456119316200        4.99330531096500       -2.87404019345000      h
        5.18169567377100        3.04328102364000       -2.26972776230000      h
       13.08577302301300        4.07512570324700       -6.04366270198400      o
       11.69140224014900        5.25607327760100       -6.35637087202100      h
       14.61369151369100        4.93673722790000       -6.63654571192300      h
        4.78360697585500       14.77116538586700       -7.37214531138400      o
        6.15730409296100       13.90351828383600       -6.51298800160100      h
        4.29860028150100       13.62201028044900       -8.70707478208700      h
        5.99965937368500        9.83461713831000       10.44038521534400      o
        5.13196888486900        9.18589965581700       11.92224540979000      h
        4.89547939097000       11.08438628749800        9.65766953232300      h
        8.33307766682900        5.65784067516400        8.65525109865800      o
       10.02713905110000        5.84350097508000        9.37452048147300      h
        7.31992474582100        7.05757585596200        9.29621258007200      h
       10.64855585631200      -10.93698683783200        0.32269851864000      o
       11.61209546041300       -9.51583398330500       -0.38650780213000      h
        9.38530952766200      -10.09188058118700        1.35640665247000      h
        9.79215853530800      -10.25621468012400        6.29885323776000      o
        8.04279250075900       -9.73483865614300        6.57224754707000      h
       10.48682845328600      -10.62531342049700        7.97262734645900      h
       20.69193782476600        6.44994116206000        3.34641374706800      o
       20.68767885982100        5.44349933290800        4.87502270505700      h
       22.24885798550800        6.08338719203500        2.46346021066700      h
       -3.45971338885600       10.85813744301900        4.88600717347500      o
       -3.58991944816400        9.28697948509700        5.82323786759100      h
       -4.73021323686500       10.83870540601100        3.52802080157400      h
        9.55180584252600        9.68078608423200      -12.06928274185500      o
       11.21120320533000       10.19075586165600      -11.37883007803500      h
        9.67680986556400        9.82175270343200      -13.86579108803700      h
      -18.52878910650800       -4.24035809305200       -9.76145996334000      o
      -16.89723844879500       -3.45895931318000       -9.96678815223500      h
      -19.59084350450000       -2.96778590656000       -8.97435941143800      h
        4.12874920872500        7.25352934553500       14.50166997236400      o
        4.75028148809700        5.60660632110300       13.88025475168800      h
        4.84016587466400        7.48923066195200       16.14615526997500      h
      -18.54056986046600        3.47835025790800       -6.17558084053000      o
      -19.53987471476000        1.91695914956700       -6.33033160041700      h
      -17.08944501470100        3.04968934889600       -5.14765892321200      h
       -5.23035049162900       -1.07124784405900        9.23066819008800      o
       -5.53262336745200        0.30807739886600        8.02153807478400      h
       -5.92491249548400       -0.48348333940100       10.82695640398500      h
      -21.50530854481500        6.50286241211500       -3.48988631673300      o
      -20.30245416781500        5.45529168675900       -4.46444502490500      h
      -22.11343016629200        7.76940743617700       -4.62650697632000      h
       -4.87799911696900       -7.19895949194800      -12.78831158693400      o
       -4.36338817450300       -7.24354009146200      -11.04700490890300      h
       -3.33174610375400       -7.44713350003000      -13.75620126325900      h
        7.02329749033400       -2.58672894844300        1.13711794248300      o
        7.19951913013000       -2.96094719508500       -0.67016792142600      h
        8.67850440190900       -2.04541793443700        1.77048444447500      h
      -19.50276921971300        1.17580470956000        0.61501307765900      o
      -21.12880121341600        1.67021263801100       -0.08203341995500      h
      -18.76512830180900       -0.02628653034000       -0.57793530262400      h
       13.04263719589900       -6.69437646999400        4.72076020065600      o
       11.44448037090600       -7.56302868154200        5.02038600695000      h
       14.27338506004600       -7.84015678243600        5.46495682694300      h
       11.29708940062900       -1.60180677472800        3.47589670878900      o
       10.72988242729900       -2.46266234626200        5.00053824724100      h
       12.98764449666600       -2.23952367983500        3.07203831302200      h
       19.19523922116400        3.15754508366400        7.10454158612200      o
       17.90694995699600        2.60222313256600        8.29211398199500      h
       19.77446901459800        1.60223776811600        6.30224613242100      h
       23.89789502443900       -2.93548861963600        0.80267882958500      o
       22.87096373661300       -4.24916735556600        0.02134980157700      h
       25.10475956771100       -2.43741030104000       -0.48294934612300      h
       13.90392039181700       10.24957667871100       -9.72043334912000      o
       15.16118088880100        8.92969209353400       -9.84223534321900      h
       13.59880076082600       10.37974501814400       -7.90497180113100      h
        4.05578225281300        8.54634756924400       -5.29277595998700      o
        4.63365430460900        6.98691165962000       -4.48969731692600      h
        5.05467627199200        9.88077222006900       -4.55279474272900      h
       -1.06251231203700        7.84893201306500       13.90735552997900      o
       -1.53685375407100        6.20236155480300       13.21507205468400      h
        0.71905960566000        7.70634242446500       14.30728093399200      h
       15.66028758208500      -10.15661496603200        7.54787007608800      o
       17.11718271170600       -9.36605542082400        8.28871299515000      h
       14.56608863937200      -10.70515638030300        8.90255189026800      h
        9.45154308803800       -4.30790460213700       -8.26435304325100      o
        9.25405034165700       -2.57373208950800       -7.74236515813200      h
        9.74529001473000       -4.30815283370300      -10.07222387201600      h
        3.98895524271000       -1.12227855822800       15.36130337875800      o
        4.59483779896400        0.37173634275200       14.45653992029100      h
        2.28630467076400       -0.70412713955200       15.88673700094400      h
        7.16290029318300       14.46168076496700        5.04244715409700      o
        8.78709694592700       13.60212508583600        5.32214128437800      h
        7.33293235219500       15.38690143639200        3.49714286135400      h
       -1.36574944660300       10.44316972823100        0.01711681356100      o
       -1.14807802776700        9.94196125226500       -1.73128874604300      h
       -1.99784441795600       12.15587536320100        0.02640385775500      h
        4.03666913049100        7.45519862493700       -0.26554839601400      o
        4.09154401532700        6.68800949723300        1.39036132278200      h
        3.61775035533500        9.23107544700600       -0.03289507621700      h
        8.37062241922500       11.29292285273200        0.30204565668600      o
        8.47878225663000       10.22449811751200        1.77445103139900      h
        6.62435129241900       11.87684619667900        0.15535291898200      h
       17.09734560872900       -2.24423930083500       -2.50883797897900      o
       17.58712013116400       -0.54174321889800       -3.03873078975500      h
       16.03229288121700       -2.87928469866600       -3.87647607457700      h
        3.52491760076800       12.54218550264200       -0.10822974706100      o
        2.69090862804600       13.47382055306000       -1.46160544238000      h
        2.55718009481400       12.84678793246000        1.43199682484500      h
      -18.29805125186200        3.16400259055000        8.86648027317000      o
      -18.47155267518500        4.99687404557000        8.67768545402000      h
      -19.61082146254700        2.40337115430800        7.81240827147400      h
      -10.57453798713900        5.58664810124300       11.62134840336900      o
       -8.91812136806500        6.36670321264400       11.60803507958800      h
      -10.51863977167100        4.18864718525500       10.41009029167300      h
      -11.41731330216300       13.87390690370900        4.15642474092700      o
      -10.82099554353500       13.12405374864400        5.70789411472400      h
      -10.39783012444600       15.36383552743700        3.92100548916300      h
       13.94680498383500       -3.39096764910100       -6.23703707884200      o
       13.40319677379900       -2.08973920610300       -7.42485017270000      h
       13.91965486612200       -5.00178994596300       -7.16869253263100      h
      -10.74483069567300       -5.40018551609700      -11.95145319377500      o
       -9.67744370685900       -5.30806653010800      -10.40592899948100      h
      -10.88358589558400       -7.17241540613400      -12.33613461073500      h
       -7.21634993291300        7.27175556353300      -13.21553123673500      o
       -8.59022773824400        8.25836202542000      -12.47881135463000      h
       -7.84154593283200        5.57186238274900      -13.42727445714500      h
      -16.05715181166300       -8.09574327683700        5.19184670255900      o
      -17.58296280116000       -7.92233097223400        4.19764917487200      h
      -16.48156003906900       -7.38720539843300        6.84144578548200      h
      -15.03884040576500      -11.62886628405000       -5.41091737048600      o
      -14.55105547978400      -11.23242827308900       -3.67555982942300      h
      -16.43270555579100      -10.48994107362100       -5.77281777263100      h
       -2.65150376227400       15.61104719711500       -0.24551588063300      o
       -1.24124433086900       15.99541481733400       -1.34461997932400      h
       -4.07222036109400       15.26739071913300       -1.38094499317700      h
       -4.19407490015700       -8.34564054320900        9.37692691726800      o
       -5.47835936903300       -7.25245631265400        8.66796858806800      h
       -4.72753577147300      -10.05925086312300        9.06968824945400      h
      -24.55781812204100       -1.99511802869200       -2.99992096240100      o
      -24.45734370766400       -0.33850079857900       -2.19250344695500      h
      -26.30697980105900       -2.45120380286200       -3.03438239201700      h
       16.70930298082000       -7.89873797902800       -4.29155654421000      o
       15.61276319054200       -7.47063152789300       -2.86834790954500      h
       15.71769356680200       -8.98035740292400       -5.37270182868400      h
        4.55380883392500      -12.81711632393300        2.31780856097300      o
        3.39100697921100      -13.40376474038200        3.60639361525100      h
        6.21275999482700      -13.43868667599200        2.86341105454900      h
       -8.83753781086500      -10.39407612866800      -11.77098588552400      o
       -7.47326868807600       -9.35194362962600      -12.43207069461000      h
       -7.99169836152800      -11.62715349068500      -10.68395061552700      h
       13.42437555801200       -6.88876189710000       -0.42508922775700      o
       12.48360930513200       -5.37731271672600       -0.96318117713500      h
       13.51341818505200       -6.77634386349100        1.41538359339200      h
      -12.93635857085000        5.20275849173900      -12.25511286331500      o
      -11.73383229676200        4.13912422030400      -13.13151176035000      h
      -14.50225490169400        4.20300137934900      -12.14139835562900      h
       16.52167371156500        6.56842227744300       -2.36389879754100      o
       17.76522266640900        7.77376596530200       -1.72644260394000      h
       15.28358592052900        6.37930698307000       -0.99294672110400      h
       20.38295289030400       -1.37164644130800        4.86657830686100      o
       18.79444015564800       -1.70513131365500        3.95695856847700      h
       21.73983534628800       -1.84448139986200        3.74874990168700      h
       10.96961883263800       11.17126836969500       10.70207188079100      o
        9.16249219023500       10.83484937939300       10.82242491712500      h
       11.82560400819200        9.60362627014600       11.07971044126100      h
        9.01207771135100       -9.62541286146700       -9.62072583731200      o
        8.49880836092600      -11.33951334303400       -9.90021902263900      h
        8.69512177715300       -9.26997544735800       -7.84261097500700      h
       -6.38423038000500      -12.71459301312400       -7.98648635222900      o
       -7.55608182747700      -13.55703349516600       -6.85065154821700      h
       -5.86266564723500      -11.16101040093800       -7.12886015132200      h
        9.93939925971100        0.55245268891600       10.74101176456400      o
       11.70281852493100        1.04922237569300       10.56635862376200      h
        9.69832876019700       -0.78764853104200        9.48387034072500      h
      -13.50953637369100       -4.91946646913700       -5.47961876045100      o
      -12.49709493847100       -6.23805666592700       -6.27783631235400      h
      -13.60472443146900       -3.53822470054700       -6.69501046643600      h
       12.01742956944100       -5.95892419772500       11.56817118502000      o
       11.38907315348400       -4.99103965843100       12.97932598728800      h
       13.39189294112900       -5.01092502236400       10.76626221712600      h
       20.73385492434000        8.66403755463700       -5.17447741140700      o
       20.58144950106100        9.61613586135600       -3.62809712930600      h
       22.05378247243700        7.43836451343400       -4.93275908662400      h
      -16.66566456313700        2.17237246003400      -10.99022647874200      o
      -17.41272763005700        2.76849893663200       -9.42812553623300      h
      -15.73112215026000        0.65068022197300      -10.55904642671200      h
      -11.29141992099200       -8.99378364142100       -7.50466016491300      o
      -12.66714438522900      -10.15431172363700       -7.06389444342300      h
      -10.54851303398800       -9.56797843505200       -9.08939878992500      h
       13.33659025786600        9.74841167626900       -4.65690239977400      o
       14.79992978968900        8.73477136073500       -4.17971564972400      h
       11.88870564884100        8.72843327961600       -4.08855090787500      h
        8.60496726956900      -13.81499224853300       -3.50709198482900      o
        7.25720794805100      -14.91754040016800       -2.85682189461400      h
        9.06330898232500      -12.75000176632700       -2.07187739681000      h
       24.75130828656500        5.56606155506400        0.08653080387500      o
       26.47622203682800        6.04550690084500        0.33854335539700      h
       24.49716471641300        5.42157126536400       -1.73268054413400      h
       21.56800350283400        1.40474606599700        0.02154944847800      o
       22.85720483302700        2.66585621876500        0.27970674552400      h
       22.38180145609400       -0.24323319959000        0.25262365128800      h
        0.51697108866700       13.80535547313600        3.93814606527100      o
       -0.71355999953600       12.44615960330600        4.20182902171600      h
       -0.39775293481100       15.09246638583800        3.03952276123900      h
       -0.25627693204400       -3.25187574178800      -11.07713249053800      o
        0.83685752653100       -1.96910009776300      -11.85988629367800      h
       -0.10097167157200       -3.05387286823300       -9.24758666330400      h
      -10.76395757406500        9.68425195897500      -10.35183609552700      o
      -12.01946239866800        8.50835745020500      -10.96030820523200      h
      -10.82135221286700        9.63139789926000       -8.51140031621900      h
      -13.15083408081400      -10.03086546122600       -0.93737214463800      o
      -12.98528506156900      -10.76303728792100        0.73916324957000      h
      -11.42734137517500       -9.73960442328900       -1.60674328466000      h
        9.35209775510800        7.14817173171800       -7.56209382013100      o
        7.84194924986000        6.11157508771300       -7.79003473637500      h
        9.74784398086200        7.78965395962000       -9.22360815844600      h
        5.66571540281200        2.85358501535000       12.64890397746900      o
        7.28112204273500        2.41574982700500       11.89350591671300      h
        4.40741972189100        2.75367312816900       11.27532063282500      h
        1.21792602180200       15.21227679530300       -3.80942782802100      o
        2.67063201808800       15.44698164410900       -4.93191555415700      h
       -0.07949039136700       14.64896432435500       -4.97859648542000      h
      -17.61192115247000       -5.80561295736700        9.60590680408300      o
      -17.06981876791200       -4.29358204678000       10.47972040427400      h
      -19.19046096689800       -5.30036161965800        8.77353057196800      h
        5.42342114455200      -12.69351292759600       -7.35104304822200      o
        3.89399333788500      -13.59110152654700       -6.85659250021400      h
        6.66197836770200      -13.08637589642500       -6.03184340442000      h
       -2.69091466874400      -10.30768369052700        3.86317092291500      o
       -4.23464378514700       -9.97855601523800        2.90230744684700      h
       -3.23240516438700      -11.37495694278300        5.24879175968400      h
       -0.51798899200600       -2.21097888276600        8.30697659646200      o
       -0.80280761270800       -3.55211439943600        7.07435859658800      h
       -2.21377378706700       -1.76110066086400        8.90871480928700      h
        0.81657762240200      -14.38447224754100       -5.95838103663000      o
       -0.07496067896000      -13.90625931923100       -7.52057602683100      h
       -0.27191191945800      -15.68780732395800       -5.18757598824300      h
      -20.77590414637200       -7.50615079208100        2.76848695029000      o
      -21.20096871377300       -7.02699252156100        1.03495753067700      h
      -22.00321451889300       -8.72808614414000        3.28838998599400      h
      -12.41306160245800       -7.04419392435700       10.04597962996400      o
      -12.81606697895500       -5.76278467256900        8.73883005006700      h
      -14.03025475716800       -7.50438873280400       10.72883595735000      h
       -3.99254835496900        2.18665134344600      -15.55641081251300      o
       -5.79792102328800        2.09408561263600      -15.19922205765200      h
       -3.47569091366500        0.55022149440100      -16.12613152953700      h
       15.37126954151400      -11.72919993954400        2.44007111378900      o
       15.37021222321600      -11.82991587280200        4.26000949209300      h
       13.61483467543600      -11.57116387276400        1.91458609767200      h
        5.37852354502200       -6.63459731810800      -11.81385185542600      o
        6.79000182963300       -7.40818371919500      -10.91221126130800      h
        4.26015173101000       -8.04850772423600      -12.11824643371900      h
       -1.67355115826400      -14.77901829776300       10.45102365698800      o
       -3.34022136797800      -14.33153993219600        9.86419483256000      h
[...]
   385   8 o      387   1 h                                       0.9668127
   388   8 o      389   1 h                                       0.9705596
   388   8 o      390   1 h                                       0.9841380
   391   8 o      392   1 h                                       0.9886405
   391   8 o      393   1 h                                       0.9558851 (min)
   394   8 o      395   1 h                                       0.9634371
   394   8 o      396   1 h                                       0.9709973
   397   8 o      398   1 h                                       0.9878500
   397   8 o      399   1 h                                       0.9563334
   400   8 o      401   1 h                                       0.9843977
   400   8 o      402   1 h                                       0.9679948
   403   8 o      404   1 h                                       0.9837436
   403   8 o      405   1 h                                       0.9723075
   406   8 o      407   1 h                                       0.9891550
   406   8 o      408   1 h                                       0.9563120
   409   8 o      410   1 h                                       0.9611469
   409   8 o      411   1 h                                       0.9742179
   412   8 o      413   1 h                                       0.9811031
   412   8 o      414   1 h                                       0.9806043
   415   8 o      416   1 h                                       0.9720589
   415   8 o      417   1 h                                       0.9775128
   418   8 o      419   1 h                                       0.9755304
   418   8 o      420   1 h                                       0.9730793
   421   8 o      422   1 h                                       0.9739346
   421   8 o      423   1 h                                       0.9797301
   424   8 o      425   1 h                                       0.9726502
   424   8 o      426   1 h                                       0.9754915
   427   8 o      428   1 h                                       0.9744357
   427   8 o      429   1 h                                       0.9696289
   430   8 o      431   1 h                                       0.9667643
   430   8 o      432   1 h                                       0.9766070
   433   8 o      434   1 h                                       0.9772905
   433   8 o      435   1 h                                       0.9650851
   436   8 o      437   1 h                                       0.9779692
   436   8 o      438   1 h                                       0.9691706
   439   8 o      440   1 h                                       0.9607703
   439   8 o      441   1 h                                       0.9661409
   442   8 o      443   1 h                                       0.9640368
   442   8 o      444   1 h                                       0.9692303
   445   8 o      446   1 h                                       0.9783014
   445   8 o      447   1 h                                       0.9685462
   448   8 o      449   1 h                                       0.9836264
   448   8 o      450   1 h                                       0.9573443
   451   8 o      452   1 h                                       0.9693500
   451   8 o      453   1 h                                       0.9660914
   454   8 o      455   1 h                                       0.9661837
   454   8 o      456   1 h                                       0.9733639
   457   8 o      458   1 h                                       0.9643822
   457   8 o      459   1 h                                       0.9774676
   460   8 o      461   1 h                                       0.9784999
   460   8 o      462   1 h                                       0.9769097
   463   8 o      464   1 h                                       0.9750571
   463   8 o      465   1 h                                       0.9759837
   466   8 o      467   1 h                                       0.9793589
   466   8 o      468   1 h                                       0.9776174
   469   8 o      470   1 h                                       0.9688973
   469   8 o      471   1 h                                       0.9792893
   472   8 o      473   1 h                                       0.9649228
   472   8 o      474   1 h                                       0.9634305
   475   8 o      476   1 h                                       0.9756980
   475   8 o      477   1 h                                       0.9848197
   478   8 o      479   1 h                                       0.9951411
   478   8 o      480   1 h                                       0.9624673
   481   8 o      482   1 h                                       0.9762838
   481   8 o      483   1 h                                       0.9649823
   484   8 o      485   1 h                                       0.9680617
   484   8 o      486   1 h                                       0.9762317
   487   8 o      488   1 h                                       0.9766960
   487   8 o      489   1 h                                       0.9715819
   490   8 o      491   1 h                                       0.9677725
   490   8 o      492   1 h                                       0.9794405
   493   8 o      494   1 h                                       0.9681284
   493   8 o      495   1 h                                       0.9635439
   496   8 o      497   1 h                                       0.9766724
   496   8 o      498   1 h                                       0.9567385
   499   8 o      500   1 h                                       0.9773601
   499   8 o      501   1 h                                       0.9645067
   502   8 o      503   1 h                                       0.9695238
   502   8 o      504   1 h                                       0.9809283
   505   8 o      506   1 h                                       0.9734997
   505   8 o      507   1 h                                       0.9782726
   508   8 o      509   1 h                                       0.9841933
   508   8 o      510   1 h                                       0.9768885
   511   8 o      512   1 h                                       0.9678972
   511   8 o      513   1 h                                       0.9849632
   514   8 o      515   1 h                                       0.9765604
   514   8 o      516   1 h                                       0.9826375
   517   8 o      518   1 h                                       0.9846100
   517   8 o      519   1 h                                       0.9633705
   520   8 o      521   1 h                                       0.9748027
   520   8 o      522   1 h                                       0.9660672
   523   8 o      524   1 h                                       0.9583373
   523   8 o      525   1 h                                       0.9741015
   526   8 o      527   1 h                                       0.9718816
   526   8 o      528   1 h                                       0.9787879
   529   8 o      530   1 h                                       0.9738776
   529   8 o      531   1 h                                       0.9806771
   532   8 o      533   1 h                                       0.9758793
   532   8 o      534   1 h                                       0.9749029
   535   8 o      536   1 h                                       0.9646410
   535   8 o      537   1 h                                       0.9801800
   538   8 o      539   1 h                                       0.9643536
   538   8 o      540   1 h                                       0.9617221
   541   8 o      542   1 h                                       0.9690779
   541   8 o      543   1 h                                       0.9721367
   544   8 o      545   1 h                                       0.9805810
   544   8 o      546   1 h                                       0.9747507
   547   8 o      548   1 h                                       0.9752575
   547   8 o      549   1 h                                       0.9842909
   550   8 o      551   1 h                                       0.9836036
   550   8 o      552   1 h                                       0.9763461
   553   8 o      554   1 h                                       0.9567293
   553   8 o      555   1 h                                       0.9750364
   556   8 o      557   1 h                                       0.9640738
   556   8 o      558   1 h                                       0.9802640
   559   8 o      560   1 h                                       0.9802141
   559   8 o      561   1 h                                       0.9614291
   562   8 o      563   1 h                                       0.9833531
   562   8 o      564   1 h                                       0.9772692
   565   8 o      566   1 h                                       0.9655504
   565   8 o      567   1 h                                       0.9747916
   568   8 o      569   1 h                                       0.9720531
   568   8 o      570   1 h                                       0.9904691
   571   8 o      572   1 h                                       0.9767641
   571   8 o      573   1 h                                       0.9654758
   574   8 o      575   1 h                                       0.9717090
   574   8 o      576   1 h                                       0.9871704
   577   8 o      578   1 h                                       0.9793954
   577   8 o      579   1 h                                       0.9710894
   580   8 o      581   1 h                                       0.9676369
   580   8 o      582   1 h                                       0.9814658
   583   8 o      584   1 h                                       0.9742175
   583   8 o      585   1 h                                       0.9798575
   586   8 o      587   1 h                                       0.9778593
   586   8 o      588   1 h                                       0.9688756
   589   8 o      590   1 h                                       0.9756274
   589   8 o      591   1 h                                       0.9815012
   592   8 o      593   1 h                                       0.9848928
   592   8 o      594   1 h                                       0.9868315
   595   8 o      596   1 h                                       0.9779615
   595   8 o      597   1 h                                       0.9568772
   598   8 o      599   1 h                                       0.9918458
   598   8 o      600   1 h                                       0.9603344
   601   8 o      602   1 h                                       0.9751120
   601   8 o      603   1 h                                       0.9568640
   604   8 o      605   1 h                                       0.9645438
   604   8 o      606   1 h                                       0.9737686
   607   8 o      608   1 h                                       0.9762801
   607   8 o      609   1 h                                       0.9674765
   610   8 o      611   1 h                                       0.9645545
   610   8 o      612   1 h                                       0.9720612
   613   8 o      614   1 h                                       0.9695577
   613   8 o      615   1 h                                       0.9649913
   616   8 o      617   1 h                                       0.9613853
   616   8 o      618   1 h                                       0.9650072
   619   8 o      620   1 h                                       0.9603365
   619   8 o      621   1 h                                       0.9777999
   622   8 o      623   1 h                                       0.9739672
   622   8 o      624   1 h                                       0.9757311
   625   8 o      626   1 h                                       0.9673334
   625   8 o      627   1 h                                       0.9697442
   628   8 o      629   1 h                                       0.9788706
   628   8 o      630   1 h                                       0.9791045
   631   8 o      632   1 h                                       0.9798787
   631   8 o      633   1 h                                       0.9754937
   634   8 o      635   1 h                                       0.9701387
   634   8 o      636   1 h                                       0.9678356
   637   8 o      638   1 h                                       0.9841626
   637   8 o      639   1 h                                       0.9624941
   640   8 o      641   1 h                                       0.9710932
   640   8 o      642   1 h                                       0.9775498
   643   8 o      644   1 h                                       0.9750945
   643   8 o      645   1 h                                       0.9744266
   646   8 o      647   1 h                                       0.9662415
   646   8 o      648   1 h                                       0.9875878
   649   8 o      650   1 h                                       0.9807078
   649   8 o      651   1 h                                       0.9789999
   652   8 o      653   1 h                                       0.9813843
   652   8 o      654   1 h                                       0.9680518
   655   8 o      656   1 h                                       0.9719402
   655   8 o      657   1 h                                       0.9669804
   658   8 o      659   1 h                                       0.9755858
   658   8 o      660   1 h                                       0.9831710
   661   8 o      662   1 h                                       0.9607854
   661   8 o      663   1 h                                       0.9832883
   664   8 o      665   1 h                                       0.9994806 (max)
   664   8 o      666   1 h                                       0.9564420
   667   8 o      668   1 h                                       0.9679405
   667   8 o      669   1 h                                       0.9726348
   670   8 o      671   1 h                                       0.9871558
   670   8 o      672   1 h                                       0.9678289
   673   8 o      674   1 h                                       0.9763571
   673   8 o      675   1 h                                       0.9845995
   676   8 o      677   1 h                                       0.9749601
   676   8 o      678   1 h                                       0.9918006
   679   8 o      680   1 h                                       0.9664985
   679   8 o      681   1 h                                       0.9789100
   682   8 o      683   1 h                                       0.9813134
   682   8 o      684   1 h                                       0.9697660
   685   8 o      686   1 h                                       0.9876472
   685   8 o      687   1 h                                       0.9714557
   688   8 o      689   1 h                                       0.9729305
   688   8 o      690   1 h                                       0.9848727
   691   8 o      692   1 h                                       0.9872918
   691   8 o      693   1 h                                       0.9634314
   694   8 o      695   1 h                                       0.9648723
   694   8 o      696   1 h                                       0.9806223
   697   8 o      698   1 h                                       0.9666869
   697   8 o      699   1 h                                       0.9763634
   700   8 o      701   1 h                                       0.9754398
   700   8 o      702   1 h                                       0.9581377
   703   8 o      704   1 h                                       0.9688914
   703   8 o      705   1 h                                       0.9780384
   706   8 o      707   1 h                                       0.9713488
   706   8 o      708   1 h                                       0.9765939
   709   8 o      710   1 h                                       0.9735459
   709   8 o      711   1 h                                       0.9817559
   712   8 o      713   1 h                                       0.9977258
   712   8 o      714   1 h                                       0.9583870
   715   8 o      716   1 h                                       0.9691649
   715   8 o      717   1 h                                       0.9652876
   718   8 o      719   1 h                                       0.9863368
   718   8 o      720   1 h                                       0.9801501
   721   8 o      722   1 h                                       0.9579834
   721   8 o      723   1 h                                       0.9831679
   724   8 o      725   1 h                                       0.9715406
   724   8 o      726   1 h                                       0.9753398
   727   8 o      728   1 h                                       0.9652200
   727   8 o      729   1 h                                       0.9764491
   730   8 o      731   1 h                                       0.9769747
   730   8 o      732   1 h                                       0.9958311
   733   8 o      734   1 h                                       0.9791607
   733   8 o      735   1 h                                       0.9757359
   736   8 o      737   1 h                                       0.9687492
   736   8 o      738   1 h                                       0.9586173
   739   8 o      740   1 h                                       0.9703435
   739   8 o      741   1 h                                       0.9779438
   742   8 o      743   1 h                                       0.9694211
   742   8 o      744   1 h                                       0.9673650
   745   8 o      746   1 h                                       0.9720105
   745   8 o      747   1 h                                       0.9690482
   748   8 o      749   1 h                                       0.9923238
   748   8 o      750   1 h                                       0.9689078
   751   8 o      752   1 h                                       0.9656763
   751   8 o      753   1 h                                       0.9688544
   754   8 o      755   1 h                                       0.9619993
   754   8 o      756   1 h                                       0.9647362

 * 1 distinct bonds (by element types)

   Z      Z             #   av. dist./Å        max./Å        min./Å
   1 H    8 O         503     0.9736127     0.9994806     0.9558851


optimized geometry written to: xtbopt.coord


           -------------------------------------------------
          | TOTAL ENERGY            -1283.306115032819 Eh   |
          | GRADIENT NORM               0.006131218733 Eh/α |
          | HOMO-LUMO GAP               5.637274218737 eV   |
           -------------------------------------------------

------------------------------------------------------------------------
 * finished run on 2022/11/24 at 12:09:58.186     
------------------------------------------------------------------------
 total:
 * wall-time:     0 d,  0 h,  5 min, 14.188 sec
 *  cpu-time:     0 d,  0 h,  7 min, 44.717 sec
 * ratio c/w:     1.479 speedup
 SCF:
 * wall-time:     0 d,  0 h,  0 min, 21.806 sec
 *  cpu-time:     0 d,  0 h,  0 min, 35.259 sec
 * ratio c/w:     1.617 speedup
 ANC optimizer:
 * wall-time:     0 d,  0 h,  4 min, 51.302 sec
 *  cpu-time:     0 d,  0 h,  7 min,  7.684 sec
 * ratio c/w:     1.468 speedup

