      -----------------------------------------------------------      
     |                   =====================                   |     
     |                           x T B                           |     
     |                   =====================                   |     
     |                         S. Grimme                         |     
     |          Mulliken Center for Theoretical Chemistry        |     
     |                    University of Bonn                     |     
      -----------------------------------------------------------      

   * xtb version 6.5.1 (579679a) compiled by 'ehlert@majestix' on 2022-07-11

   xtb is free software: you can redistribute it and/or modify it under
   the terms of the GNU Lesser General Public License as published by
   the Free Software Foundation, either version 3 of the License, or
   (at your option) any later version.
   
   xtb is distributed in the hope that it will be useful,
   but WITHOUT ANY WARRANTY; without even the implied warranty of
   MERCHANTABILITY or FITNESS FOR A PARTICULAR PURPOSE.  See the
   GNU Lesser General Public License for more details.
   
   Cite this work as:
   * C. Bannwarth, E. Caldeweyher, S. Ehlert, A. Hansen, P. Pracht,
     J. Seibert, S. Spicher, S. Grimme, WIREs Comput. Mol. Sci., 2020, 11,
     e01493. DOI: 10.1002/wcms.1493
   
   for GFN2-xTB:
   * C. Bannwarth, S. Ehlert and S. Grimme., J. Chem. Theory Comput., 2019,
     15, 1652-1671. DOI: 10.1021/acs.jctc.8b01176
   for GFN1-xTB:
   * S. Grimme, C. Bannwarth, P. Shushkov, J. Chem. Theory Comput., 2017,
     13, 1989-2009. DOI: 10.1021/acs.jctc.7b00118
   for GFN0-xTB:
   * P. Pracht, E. Caldeweyher, S. Ehlert, S. Grimme, ChemRxiv, 2019, preprint.
     DOI: 10.26434/chemrxiv.8326202.v1
   for GFN-FF:
   * S. Spicher and S. Grimme, Angew. Chem. Int. Ed., 2020, 59, 15665-15673.
     DOI: 10.1002/anie.202004239
   
   for ALPB and GBSA implicit solvation:
   * S. Ehlert, M. Stahn, S. Spicher, S. Grimme, J. Chem. Theory Comput.,
     2021, 17, 4250-4261. DOI: 10.1021/acs.jctc.1c00471
   
   for DFT-D4:
   * E. Caldeweyher, C. Bannwarth and S. Grimme, J. Chem. Phys., 2017,
     147, 034112. DOI: 10.1063/1.4993215
   * E. Caldeweyher, S. Ehlert, A. Hansen, H. Neugebauer, S. Spicher,
     C. Bannwarth and S. Grimme, J. Chem. Phys., 2019, 150, 154122.
     DOI: 10.1063/1.5090222
   * E. Caldeweyher, J.-M. Mewes, S. Ehlert and S. Grimme, Phys. Chem. Chem. Phys.
     2020, 22, 8499-8512. DOI: 10.1039/D0CP00502A
   
   for sTDA-xTB:
   * S. Grimme and C. Bannwarth, J. Chem. Phys., 2016, 145, 054103.
     DOI: 10.1063/1.4959605
   
   in the mass-spec context:
   * V. Asgeirsson, C. Bauer and S. Grimme, Chem. Sci., 2017, 8, 4879.
     DOI: 10.1039/c7sc00601b
   * J. Koopman and S. Grimme, ACS Omega 2019, 4, 12, 15120-15133.
     DOI: 10.1021/acsomega.9b02011
   
   for metadynamics refer to:
   * S. Grimme, J. Chem. Theory Comput., 2019, 155, 2847-2862
     DOI: 10.1021/acs.jctc.9b00143
   
   for SPH calculations refer to:
   * S. Spicher and S. Grimme, J. Chem. Theory Comput., 2021, 17, 1701-1714
     DOI: 10.1021/acs.jctc.0c01306
   
   with help from (in alphabetical order)
   P. Atkinson, C. Bannwarth, F. Bohle, G. Brandenburg, E. Caldeweyher
   M. Checinski, S. Dohm, S. Ehlert, S. Ehrlich, I. Gerasimov, C. Hölzer
   A. Katbashev, J. Koopman, C. Lavigne, S. Lehtola, F. März, M. Müller,
   F. Musil, H. Neugebauer, J. Pisarek, C. Plett, P. Pracht, F. Pultar,
   J. Seibert, P. Shushkov, S. Spicher, M. Stahn, M. Steiner, T. Strunk,
   J. Stückrath, T. Rose, and J. Unsleber
   
 * started run on 2022/11/24 at 12:21:40.832     

           -------------------------------------------------
          |                Calculation Setup                |
           -------------------------------------------------

          program call               : xtb solvent_cluster.coord --gfn2 --sp --lmo --chrg 0
          hostname                   : cn0430
          coordinate file            : solvent_cluster.coord
          omp threads                :                     2

   ID    Z sym.   atoms
    1    8 o      1, 4, 7, 10, 13, 16, 19, 22, 25, 28, 31, 34, 37, 40, 43,
                  46, 49, 52, 55, 58, 61, 64, 67, 70, 73, 76, 79, 82, 85, 88,
                  91, 94, 97, 100, 103, 106, 109, 112, 115, 118, 121, 124,
                  127, 130, 133, 136, 139, 142, 145, 148, 151, 154, 157, 160,
                  163, 166, 169, 172, 175, 178, 181, 184, 187, 190, 193, 196,
                  199, 202, 205, 208, 211, 214, 217, 220, 223, 226, 229, 232,
                  235, 238, 241, 244, 247, 250, 253, 256, 259, 262, 265, 268,
                  271, 274, 277, 280, 283, 286, 289, 292, 295, 298, 301, 304,
                  307, 310, 313, 316, 319, 322, 325, 328, 331, 334, 337, 340,
                  343, 346, 349, 352, 355, 358, 361, 364, 367, 370, 373, 376,
                  379, 382, 385, 388, 391, 394, 397, 400, 403, 406, 409, 412,
                  415, 418, 421, 424, 427, 430, 433, 436, 439, 442, 445, 448,
                  451, 454, 457, 460, 463, 466, 469, 472, 475, 478, 481, 484,
                  487, 490, 493, 496, 499, 502, 505, 508, 511, 514, 517, 520,
                  523, 526, 529, 532, 535, 538, 541, 544, 547, 550, 553, 556,
                  559, 562, 565, 568, 571, 574, 577, 580, 583, 586, 589, 592,
                  595, 598, 601, 604, 607, 610, 613, 616, 619, 622, 625, 628,
                  631, 634, 637, 640, 643, 646, 649, 652, 655, 658, 661, 664,
                  667, 670, 673, 676, 679, 682, 685, 688, 691, 694, 697, 700,
                  703, 706, 709, 712, 715, 718, 721, 724, 727, 730, 733, 736,
                  739, 742, 745, 748, 751, 754
    2    1 h      2, 3, 5, 6, 8, 9, 11, 12, 14, 15, 17, 18, 20, 21, 23, 24,
                  26, 27, 29, 30, 32, 33, 35, 36, 38, 39, 41, 42, 44, 45, 47,
                  48, 50, 51, 53, 54, 56, 57, 59, 60, 62, 63, 65, 66, 68, 69,
                  71, 72, 74, 75, 77, 78, 80, 81, 83, 84, 86, 87, 89, 90, 92,
                  93, 95, 96, 98, 99, 101, 102, 104, 105, 107, 108, 110, 111,
                  113, 114, 116, 117, 119, 120, 122, 123, 125, 126, 128, 129,
                  131, 132, 134, 135, 137, 138, 140, 141, 143, 144, 146, 147,
                  149, 150, 152, 153, 155, 156, 158, 159, 161, 162, 164, 165,
                  167, 168, 170, 171, 173, 174, 176, 177, 179, 180, 182, 183,
                  185, 186, 188, 189, 191, 192, 194, 195, 197, 198, 200, 201,
                  203, 204, 206, 207, 209, 210, 212, 213, 215, 216, 218, 219,
                  221, 222, 224, 225, 227, 228, 230, 231, 233, 234, 236, 237,
                  239, 240, 242, 243, 245, 246, 248, 249, 251, 252, 254, 255,
                  257, 258, 260, 261, 263, 264, 266, 267, 269, 270, 272, 273,
                  275, 276, 278, 279, 281, 282, 284, 285, 287, 288, 290, 291,
                  293, 294, 296, 297, 299, 300, 302, 303, 305, 306, 308, 309,
                  311, 312, 314, 315, 317, 318, 320, 321, 323, 324, 326, 327,
                  329, 330, 332, 333, 335, 336, 338, 339, 341, 342, 344, 345,
                  347, 348, 350, 351, 353, 354, 356, 357, 359, 360, 362, 363,
                  365, 366, 368, 369, 371, 372, 374, 375, 377, 378, 380, 381,
                  383, 384, 386, 387, 389, 390, 392, 393, 395, 396, 398, 399,
                  401, 402, 404, 405, 407, 408, 410, 411, 413, 414, 416, 417,
                  419, 420, 422, 423, 425, 426, 428, 429, 431, 432, 434, 435,
                  437, 438, 440, 441, 443, 444, 446, 447, 449, 450, 452, 453,
                  455, 456, 458, 459, 461, 462, 464, 465, 467, 468, 470, 471,
                  473, 474, 476, 477, 479, 480, 482, 483, 485, 486, 488, 489,
                  491, 492, 494, 495, 497, 498, 500, 501, 503, 504, 506, 507,
                  509, 510, 512, 513, 515, 516, 518, 519, 521, 522, 524, 525,
                  527, 528, 530, 531, 533, 534, 536, 537, 539, 540, 542, 543,
                  545, 546, 548, 549, 551, 552, 554, 555, 557, 558, 560, 561,
                  563, 564, 566, 567, 569, 570, 572, 573, 575, 576, 578, 579,
                  581, 582, 584, 585, 587, 588, 590, 591, 593, 594, 596, 597,
                  599, 600, 602, 603, 605, 606, 608, 609, 611, 612, 614, 615,
                  617, 618, 620, 621, 623, 624, 626, 627, 629, 630, 632, 633,
                  635, 636, 638, 639, 641, 642, 644, 645, 647, 648, 650, 651,
                  653, 654, 656, 657, 659, 660, 662, 663, 665, 666, 668, 669,
                  671, 672, 674, 675, 677, 678, 680, 681, 683, 684, 686, 687,
                  689, 690, 692, 693, 695, 696, 698, 699, 701, 702, 704, 705,
                  707, 708, 710, 711, 713, 714, 716, 717, 719, 720, 722, 723,
                  725, 726, 728, 729, 731, 732, 734, 735, 737, 738, 740, 741,
                  743, 744, 746, 747, 749, 750, 752, 753, 755, 756

molecular fragmentation (1/2 indicates fragments):
111222222222222222222222222222222222222222222222222222222222222222222222
222222222222222222222222222222222222222222222222222222222222222222222222
222222222222222222222222222222222222222222222222222222222222222222222222
222222222222222222222222222222222222222222222222222222222222222222222222
222222222222222222222222222222222222222222222222222222222222222222222222
222222222222222222222222222222222222222222222222222222222222222222222222
222222222222222222222222222222222222222222222222222222222222222222222222
222222222222222222222222222222222222222222222222222222222222222222222222
222222222222222222222222222222222222222222222222222222222222222222222222
222222222222222222222222222222222222222222222222222222222222222222222222
222222222222222222222222222222222222
# atoms in fragment 1/2:     3   753
 fragment masses (1/2) :       18.02     4521.84
CMA distance (Bohr)    :  18.300
constraining FC (au)   :  0.0500

           -------------------------------------------------
          |                 G F N 2 - x T B                 |
           -------------------------------------------------

        Reference                      10.1021/acs.jctc.8b01176
      * Hamiltonian:
        H0-scaling (s, p, d)           1.850000    2.230000    2.230000
        zeta-weighting                 0.500000
      * Dispersion:
        s8                             2.700000
        a1                             0.520000
        a2                             5.000000
        s9                             5.000000
      * Repulsion:
        kExp                           1.500000    1.000000
        rExp                           1.000000
      * Coulomb:
        alpha                          2.000000
        third order                    shell-resolved
        anisotropic                    true
        a3                             3.000000
        a5                             4.000000
        cn-shift                       1.200000
        cn-exp                         4.000000
        max-rad                        5.000000


          ...................................................
          :                      SETUP                      :
          :.................................................:
          :  # basis functions                1512          :
          :  # atomic orbitals                1512          :
          :  # shells                         1008          :
          :  # electrons                      2016          :
          :  max. iterations                   250          :
          :  Hamiltonian                  GFN2-xTB          :
          :  restarted?                      false          :
          :  GBSA solvation                  false          :
          :  PC potential                    false          :
          :  electronic temp.          300.0000000     K    :
          :  accuracy                    1.0000000          :
          :  -> integral cutoff          0.2500000E+02      :
          :  -> integral neglect         0.1000000E-07      :
          :  -> SCF convergence          0.1000000E-05 Eh   :
          :  -> wf. convergence          0.1000000E-03 e    :
          :  Broyden damping             0.4000000          :
          ...................................................

 iter      E             dE          RMSdq      gap      omega  full diag
   1  -1290.9782187 -0.129098E+04  0.407E+00    8.54       0.0  T
   2  -1291.0559343 -0.777156E-01  0.241E+00    7.15       1.0  T
   3  -1291.0876127 -0.316783E-01  0.212E-01    5.15       1.0  T
   4  -1291.0930231 -0.541048E-02  0.459E-02    5.68       1.0  T
   5  -1291.0931065 -0.833648E-04  0.308E-02    5.60       1.0  T
   6  -1291.0931463 -0.397551E-04  0.442E-03    5.64       1.0  T
   7  -1291.0931489 -0.259859E-05  0.744E-04    5.64       4.9  T
   8  -1291.0931489 -0.289449E-07  0.381E-04    5.64       9.5  T
   9  -1291.0931489 -0.139826E-07  0.719E-05    5.64      50.6  T

   *** convergence criteria satisfied after 9 iterations ***

         #    Occupation            Energy/Eh            Energy/eV
      -------------------------------------------------------------
         1        2.0000           -0.7080328             -19.2666
       ...           ...                  ...                  ...
      1002        2.0000           -0.3494518              -9.5091
      1003        2.0000           -0.3453558              -9.3976
      1004        2.0000           -0.3435540              -9.3486
      1005        2.0000           -0.3385873              -9.2134
      1006        2.0000           -0.3327690              -9.0551
      1007        2.0000           -0.3312054              -9.0126
      1008        2.0000           -0.2967644              -8.0754 (HOMO)
      1009                         -0.0896018              -2.4382 (LUMO)
      1010                         -0.0765819              -2.0839
      1011                         -0.0637946              -1.7359
      1012                         -0.0605643              -1.6480
      1013                         -0.0592185              -1.6114
       ...                                ...                  ...
      1512                          0.4714789              12.8296
      -------------------------------------------------------------
                  HL-Gap            0.2071625 Eh            5.6372 eV
             Fermi-level           -0.1931831 Eh           -5.2568 eV
 
 localization/xTB-IFF output generation
 averaging CT terms over            1  occ. levels
 averaging CT terms over            1  virt. levels
 dipole moment from electron density (au)
     X       Y       Z   
   4.9025   3.9359  -0.4358  total (Debye):   16.019
cpu  time for init local    0.82 s
wall time for init local    0.41 s
 doing rotations ...
 initialization of trafo matrix to unity

 converged in     16 iterations, threshold :   0.99999165D-06
 doing transformations ...
 lmo centers(Z=2) and atoms on file <lmocent.coord>
 LMO Fii/eV  ncent    charge center   contributions...
    1 LP   *******   0.00  -0.20841  -7.36680 -16.50878  127O : 35.20  700O : 25.72   73O : 24.28  289O : 22.05   16O : 21.95  181O : 21.16  106O : 20.17  136O : 18.68  718O : 18.31  508O : 17.88  616O : 17.03  358O : 17.01
  325O : 16.97  568O : 16.91  742O : 15.83  682O : 15.62  124O : 14.86  232O : 14.81  619O : 14.48   49O : 14.25   82O : 13.82  217O : 12.83   67O : 11.99   13O : 11.91
  445O : 11.78  751O : 11.77  703O : 11.75   40O : 11.57  463O : 11.52  709O : 11.48    4O : 11.34  154O : 11.27   34O : 11.22  148O : 11.16  697O : 11.03  286O : 11.01
  109O : 10.97  400O : 10.64  469O : 10.53  322O : 10.53   79O : 10.13  418O : 10.06  598O :  9.77  484O :  9.60  238O :  9.59  442O :  9.50  694O :  9.49  580O :  9.32
   58O :  9.16   25O :  9.10  292O :  9.05  673O :  9.01  208O :  8.79  364O :  8.79  103O :  8.60   37O :  8.52  538O :  8.47  733O :  8.43   85O :  8.41  133O :  8.32
  505O :  8.27   52O :  8.26  664O :  8.16  562O :  8.06   97O :  7.98  550O :  7.78  649O :  7.63   31O :  7.50  421O :  7.37  370O :  7.27   64O :  7.23  601O :  7.16
   22O :  7.12   19O :  7.10  271O :  7.08  301O :  6.85  514O :  6.83  526O :  6.82  376O :  6.79  625O :  6.78  607O :  6.76   76O :  6.63  577O :  6.62  430O :  6.57
   55O :  6.33  253O :  6.31  382O :  6.24  316O :  6.18  523O :  6.13  235O :  6.12  268O :  6.10  586O :  6.05  643O :  6.00  283O :  5.97  544O :  5.95    7O :  5.87
  190O :  5.81  727O :  5.80  172O :  5.65  754O :  5.63  493O :  5.59  424O :  5.57  199O :  5.56  250O :  5.53  256O :  5.51  412O :  5.50  391O :  5.48   88O :  5.37
  175O :  5.33  373O :  5.31  715O :  5.28  592O :  5.21  361O :  5.17  100O :  5.14  187O :  5.13  502O :  5.12   43O :  5.04  337O :  5.03  535O :  4.97  388O :  4.94
  244O :  4.91  184O :  4.81  541O :  4.77  628O :  4.75  226O :  4.66  499O :  4.49  334O :  4.44  661O :  4.42  427O :  4.42  139O :  4.28  583O :  4.23  403O :  4.20
  331O :  4.03  118O :  4.02  547O :  4.01  481O :  3.97  304O :  3.97  394O :  3.95  160O :  3.94  130O :  3.92  295O :  3.91  265O :  3.87  520O :  3.82  352O :  3.80
  475O :  3.75  532O :  3.75  460O :  3.67   94O :  3.65  748O :  3.62  617H :  3.61  121O :  3.47   61O :  3.44  202O :  3.43  349O :  3.43    1O :  3.40  451O :  3.33
  346O :  3.33  670O :  3.31   28O :  3.29  214O :  3.27  622O :  3.25  676O :  3.22  487O :  3.17  589O :  3.16  355O :  3.11  553O :  3.05  178O :  3.00  307O :  2.98
  436O :  2.98  730O :  2.92  367O :  2.91   14H :  2.90  529O :  2.88   91O :  2.88  613O :  2.86  652O :  2.82   10O :  2.77  688O :  2.75  142O :  2.75  280O :  2.75
  247O :  2.74  454O :  2.70  259O :  2.69  478O :  2.69  293H :  2.69  166O :  2.51  313O :  2.49  658O :  2.48  466O :  2.41  115O :  2.39  457O :  2.38  496O :  2.30
  637O :  2.28  472O :  2.22  223O :  2.22  655O :  2.18  406O :  2.16  298O :  2.16  685O :  2.13  327H :  2.09  126H :  2.09  205O :  2.04  610O :  2.01  679O :  2.01
  640O :  1.95  745O :  1.94  196O :  1.93  328O :  1.91   20H :  1.89  112O :  1.85   51H :  1.83  631O :  1.82  110H :  1.80  409O :  1.79  695H :  1.73  310O :  1.69
  169O :  1.67  193O :  1.66  356H :  1.61  105H :  1.59  372H :  1.52  241O :  1.51  595O :  1.49  229O :  1.49  343O :  1.47  274O :  1.44  545H :  1.42   46O :  1.39
  163O :  1.39  556O :  1.34  270H :  1.33  604O :  1.29  288H :  1.28   89H :  1.25  379O :  1.23  739O :  1.21  385O :  1.20  319O :  1.19  743H :  1.17  574O :  1.15
  634O :  1.15  665H :  1.13  494H :  1.13  691O :  1.09  646O :  1.08  485H :  1.07  721O :  1.06  698H :  1.05  173H :  1.05  534H :  1.04  162H :  1.04  696H :  1.04
  155H :  1.03  736O :  1.02  209H :  1.00  517O :  0.98  340O :  0.98  753H :  0.97   70O :  0.97  582H :  0.94  744H :  0.93  220O :  0.91  651H :  0.91   18H :  0.91
  443H :  0.90  486H :  0.90   50H :  0.89  277O :  0.88  433O :  0.87  717H :  0.87  506H :  0.85  702H :  0.84  571O :  0.84  149H :  0.83  326H :  0.81   27H :  0.81
  397O :  0.81  230H :  0.81  599H :  0.81  362H :  0.80   69H :  0.78  446H :  0.77  593H :  0.76  240H :  0.76  635H :  0.75  174H :  0.74  608H :  0.74  151O :  0.74
  101H :  0.73  667O :  0.72   54H :  0.71    3H :  0.68  414H :  0.68  705H :  0.66  585H :  0.64  245H :  0.63  357H :  0.63  305H :  0.62  587H :  0.62   63H :  0.62
  332H :  0.62   45H :  0.61   93H :  0.61  141H :  0.61  368H :  0.61   81H :  0.60  102H :  0.60  654H :  0.59   65H :  0.58  258H :  0.58  690H :  0.58  455H :  0.58
  726H :  0.57  281H :  0.57  192H :  0.57   39H :  0.56  663H :  0.55  706O :  0.55  104H :  0.55  750H :  0.55  284H :  0.55  211O :  0.55  157O :  0.54   74H :  0.53
  724O :  0.53  415O :  0.53  527H :  0.53  500H :  0.51  137H :  0.51  712O :  0.50  575H :  0.50   86H :  0.49  290H :  0.48  272H :  0.48  728H :  0.48  465H :  0.47
  516H :  0.47  282H :  0.47  473H :  0.46  365H :  0.46  555H :  0.46  108H :  0.46  228H :  0.45  448O :  0.45  255H :  0.44  410H :  0.44   62H :  0.44  470H :  0.44
  542H :  0.44  438H :  0.43  350H :  0.43   78H :  0.42  699H :  0.41  389H :  0.41  559O :  0.41  565O :  0.41  614H :  0.40  678H :  0.40   42H :  0.39  189H :  0.39
  285H :  0.39  720H :  0.39  129H :  0.38  312H :  0.38  300H :  0.38  262O :  0.38  125H :  0.37  490O :  0.36  243H :  0.36  549H :  0.36  515H :  0.36  677H :  0.36
  620H :  0.35  242H :  0.35  390H :  0.35  380H :  0.35  374H :  0.35  439O :  0.34  624H :  0.34  314H :  0.34  354H :  0.34  144H :  0.33  674H :  0.33  303H :  0.32
  131H :  0.32  419H :  0.31  152H :  0.31  476H :  0.31  396H :  0.31    9H :  0.31  353H :  0.30   99H :  0.30  119H :  0.30  145O :  0.30  642H :  0.30  511O :  0.30
  444H :  0.30  276H :  0.30  737H :  0.30  641H :  0.29   17H :  0.29  186H :  0.29   60H :  0.29  507H :  0.28  311H :  0.28  528H :  0.28  452H :  0.28   26H :  0.28
  345H :  0.27  531H :  0.27  333H :  0.27  557H :  0.27   98H :  0.27  341H :  0.26  434H :  0.26  749H :  0.26  291H :  0.26  501H :  0.26  320H :  0.26  467H :  0.25
  525H :  0.25  581H :  0.24  330H :  0.24  107H :  0.24  489H :  0.24  297H :  0.24    5H :  0.24  437H :  0.24  503H :  0.24  222H :  0.23  150H :  0.23  564H :  0.23
  323H :  0.23  740H :  0.23  344H :  0.23  308H :  0.23  732H :  0.22  236H :  0.22  377H :  0.22  612H :  0.21  177H :  0.21  266H :  0.21  153H :  0.21  579H :  0.21
  630H :  0.21  134H :  0.21   77H :  0.21  687H :  0.21  404H :  0.21  176H :  0.20   53H :  0.20  194H :  0.20  600H :  0.20  725H :  0.20  566H :  0.20  540H :  0.20
  140H :  0.19   71H :  0.19  399H :  0.19  425H :  0.19  479H :  0.19  459H :  0.19  221H :  0.19  318H :  0.18  735H :  0.18  167H :  0.18   95H :  0.18  210H :  0.18
  633H :  0.18   44H :  0.17  381H :  0.17  686H :  0.17  456H :  0.17  704H :  0.17  168H :  0.17  267H :  0.16  569H :  0.16  666H :  0.16  159H :  0.16  249H :  0.16
   23H :  0.16  594H :  0.16  524H :  0.16   96H :  0.15   36H :  0.15  201H :  0.15   87H :  0.15  336H :  0.15  596H :  0.15  623H :  0.15  371H :  0.15   92H :  0.14
  518H :  0.14  447H :  0.14  533H :  0.14  348H :  0.14  567H :  0.14  638H :  0.14  662H :  0.14  615H :  0.13  294H :  0.13  605H :  0.13  156H :  0.13  273H :  0.13
   12H :  0.13   11H :  0.12  519H :  0.12  471H :  0.12  629H :  0.12  488H :  0.12  462H :  0.12  431H :  0.12  683H :  0.12  551H :  0.11  554H :  0.11  584H :  0.11
  576H :  0.11  483H :  0.11   72H :  0.11  269H :  0.11   80H :  0.11  461H :  0.11   24H :  0.11  548H :  0.11  360H :  0.11  681H :  0.10  449H :  0.10   21H :  0.10
  179H :  0.10  536H :  0.10  227H :  0.10  416H :  0.10  363H :  0.10  218H :  0.10  558H :  0.10  254H :  0.10    8H :  0.09  644H :  0.09  738H :  0.09  603H :  0.09
  224H :  0.09  342H :  0.09   66H :  0.09  260H :  0.09  164H :  0.09  234H :  0.08  495H :  0.08  420H :  0.08  120H :  0.08  729H :  0.08  734H :  0.08  335H :  0.08
  546H :  0.08  675H :  0.08  747H :  0.08  731H :  0.08   33H :  0.08  477H :  0.08  639H :  0.08  504H :  0.08  413H :  0.08   38H :  0.08  591H :  0.07  530H :  0.07
  650H :  0.07  263H :  0.07    6H :  0.07
    2 LP   *******   0.00 -43.60829   9.62017   2.97529  127O : 26.02  289O : 22.19  700O : 21.46   73O : 20.26   16O : 18.33  181O : 17.66  106O : 16.83  136O : 15.59  718O : 15.28  508O : 14.93  616O : 14.21  358O : 14.20
  325O : 14.16  568O : 14.11  742O : 13.21  682O : 13.04  124O : 12.40  232O : 12.36  619O : 12.08   49O : 11.89   82O : 11.53  217O : 10.71   67O : 10.00   13O :  9.94
  445O :  9.83  751O :  9.82  703O :  9.80   40O :  9.65  463O :  9.62  709O :  9.58    4O :  9.46  154O :  9.41   34O :  9.34  148O :  9.31  697O :  9.20  286O :  9.19
  109O :  9.15  400O :  8.88  469O :  8.79  322O :  8.79   79O :  8.46  418O :  8.40  598O :  8.16  238O :  8.02  484O :  8.01  442O :  7.93  694O :  7.92  580O :  7.78
   58O :  7.65   25O :  7.59  292O :  7.56  673O :  7.52  208O :  7.34  364O :  7.34  103O :  7.18   37O :  7.12  538O :  7.07  733O :  7.04   85O :  7.03  133O :  6.94
  505O :  6.90   52O :  6.89  562O :  6.83  664O :  6.81   97O :  6.66  550O :  6.50  649O :  6.36   31O :  6.25  421O :  6.15  370O :  6.06   64O :  6.03  601O :  5.98
   22O :  5.94   19O :  5.92  271O :  5.91  301O :  5.71  514O :  5.70  526O :  5.70  376O :  5.66  625O :  5.66  607O :  5.63   76O :  5.54  577O :  5.52  430O :  5.49
   55O :  5.29  253O :  5.26  382O :  5.21  316O :  5.16  235O :  5.11  523O :  5.11  268O :  5.09  586O :  5.05  643O :  5.00  283O :  4.99  544O :  4.97    7O :  4.89
  190O :  4.85  727O :  4.84  172O :  4.72  754O :  4.70  493O :  4.66  424O :  4.64  199O :  4.64  250O :  4.62  256O :  4.60  412O :  4.59  391O :  4.57   88O :  4.48
  175O :  4.44  373O :  4.43  715O :  4.41  592O :  4.34  361O :  4.32  100O :  4.29  187O :  4.29  502O :  4.27   43O :  4.21  337O :  4.20  535O :  4.15  388O :  4.12
  244O :  4.10  184O :  4.01  628O :  3.96  541O :  3.90  226O :  3.89  499O :  3.75  334O :  3.70  661O :  3.69  427O :  3.69  139O :  3.57  583O :  3.53  403O :  3.50
  331O :  3.37  304O :  3.36  118O :  3.35  547O :  3.35  481O :  3.31  394O :  3.31  532O :  3.30  160O :  3.29  130O :  3.27  295O :  3.26  265O :  3.23  520O :  3.19
  352O :  3.17  475O :  3.13  460O :  3.06  617H :  3.02  748O :  3.00   94O :  2.95  121O :  2.90   61O :  2.88  202O :  2.87  349O :  2.86    1O :  2.84  451O :  2.78
  346O :  2.78  670O :  2.76   28O :  2.74  214O :  2.73  622O :  2.71  676O :  2.69  487O :  2.64  589O :  2.64  355O :  2.59  553O :  2.54  178O :  2.50  436O :  2.48
  307O :  2.48  730O :  2.44  367O :  2.43   14H :  2.42  529O :  2.40   91O :  2.40  613O :  2.39  652O :  2.35   10O :  2.31  688O :  2.30  142O :  2.30  280O :  2.29
  247O :  2.29  454O :  2.25  259O :  2.25  293H :  2.24  478O :  2.19  166O :  2.09  313O :  2.07  658O :  2.07  466O :  2.01  115O :  1.99  457O :  1.98  496O :  1.92
  637O :  1.90  472O :  1.85  223O :  1.85  655O :  1.82  406O :  1.81  298O :  1.80  685O :  1.77  327H :  1.75  126H :  1.75  205O :  1.70  610O :  1.68  679O :  1.67
  640O :  1.63  745O :  1.62  196O :  1.61  328O :  1.59   20H :  1.57  112O :  1.54  409O :  1.54   51H :  1.53  631O :  1.52  110H :  1.51  695H :  1.45  310O :  1.41
  169O :  1.39  193O :  1.39  356H :  1.34  105H :  1.33  372H :  1.27  241O :  1.26  595O :  1.24  229O :  1.24  343O :  1.23  274O :  1.20  545H :  1.19   46O :  1.16
  163O :  1.16  556O :  1.12  270H :  1.11  534H :  1.08  604O :  1.08  288H :  1.07   89H :  1.04  379O :  1.03  739O :  1.01  385O :  1.00  319O :  0.99  743H :  0.97
  574O :  0.96  634O :  0.96  665H :  0.94  494H :  0.94  691O :  0.91  646O :  0.90  485H :  0.90  721O :  0.88  698H :  0.88  173H :  0.87  162H :  0.87  696H :  0.87
  155H :  0.86  736O :  0.85  209H :  0.84  517O :  0.82  340O :  0.82  753H :  0.81   70O :  0.81  582H :  0.78  744H :  0.77  651H :  0.76   18H :  0.76  220O :  0.75
  443H :  0.75  486H :  0.75   50H :  0.74  277O :  0.73  433O :  0.73  717H :  0.73  506H :  0.71  702H :  0.70  571O :  0.70  149H :  0.69  326H :  0.68   27H :  0.68
  397O :  0.68  230H :  0.68  599H :  0.67  362H :  0.67   69H :  0.65  446H :  0.64  593H :  0.63  240H :  0.63  635H :  0.63  174H :  0.62  151O :  0.61  608H :  0.61
  101H :  0.61  667O :  0.60   54H :  0.60    3H :  0.56  414H :  0.56  705H :  0.55  585H :  0.54  305H :  0.53  245H :  0.53  357H :  0.52  587H :  0.52   63H :  0.52
  332H :  0.51   45H :  0.51   93H :  0.51  141H :  0.51  368H :  0.51   81H :  0.50  102H :  0.50  654H :  0.50   65H :  0.49  258H :  0.48  690H :  0.48  455H :  0.48
  726H :  0.48  281H :  0.48  192H :  0.47   39H :  0.47  663H :  0.46  706O :  0.46  104H :  0.46  284H :  0.46  211O :  0.46  157O :  0.45   74H :  0.44  724O :  0.44
  415O :  0.44  527H :  0.44  500H :  0.43  750H :  0.43  137H :  0.43  712O :  0.42  575H :  0.41   86H :  0.41  272H :  0.40  728H :  0.40  465H :  0.40  516H :  0.40
  282H :  0.39  473H :  0.39  365H :  0.38  555H :  0.38  108H :  0.38  228H :  0.38  448O :  0.37  129H :  0.37  255H :  0.37   62H :  0.37  470H :  0.37  410H :  0.37
  542H :  0.36  438H :  0.36  350H :  0.36   78H :  0.35  699H :  0.35  389H :  0.34  559O :  0.34  565O :  0.34  614H :  0.34  678H :  0.34   42H :  0.33  189H :  0.33
  285H :  0.33  720H :  0.32  290H :  0.32  312H :  0.32  300H :  0.32  262O :  0.31  125H :  0.31  490O :  0.30  243H :  0.30  549H :  0.30  515H :  0.30  677H :  0.30
  620H :  0.29  242H :  0.29  390H :  0.29  380H :  0.29  374H :  0.29  439O :  0.29  624H :  0.28  354H :  0.28  314H :  0.28  144H :  0.28  674H :  0.27  303H :  0.27
  131H :  0.26  419H :  0.26  152H :  0.26  476H :  0.26  396H :  0.26    9H :  0.26  353H :  0.25   99H :  0.25  119H :  0.25  145O :  0.25  642H :  0.25  511O :  0.25
  444H :  0.25  276H :  0.25  737H :  0.25   17H :  0.25  641H :  0.25  186H :  0.24   60H :  0.24  507H :  0.24  311H :  0.24  528H :  0.24  452H :  0.23   26H :  0.23
  345H :  0.23  531H :  0.23  333H :  0.22  557H :  0.22   98H :  0.22  341H :  0.22  434H :  0.22  749H :  0.22  501H :  0.21  320H :  0.21  467H :  0.21  525H :  0.21
  581H :  0.20  330H :  0.20  107H :  0.20  489H :  0.20  297H :  0.20    5H :  0.20  437H :  0.20  503H :  0.20  564H :  0.20  150H :  0.19  740H :  0.19  323H :  0.19
  222H :  0.19  344H :  0.19  308H :  0.19  732H :  0.19  236H :  0.19  377H :  0.18  612H :  0.18  177H :  0.18  266H :  0.18  153H :  0.18  579H :  0.18  630H :  0.18
  134H :  0.17   77H :  0.17  687H :  0.17  404H :  0.17  176H :  0.17   53H :  0.17  194H :  0.17  600H :  0.17  725H :  0.17  291H :  0.17  566H :  0.17  540H :  0.16
  140H :  0.16   71H :  0.16  221H :  0.16  399H :  0.16  425H :  0.16  459H :  0.16  479H :  0.16  318H :  0.15  735H :  0.15  167H :  0.15  210H :  0.15   95H :  0.15
  633H :  0.15   44H :  0.14  381H :  0.14  686H :  0.14  456H :  0.14  704H :  0.14  168H :  0.14  267H :  0.14  569H :  0.14  666H :  0.14  159H :  0.13  249H :  0.13
   23H :  0.13  594H :  0.13  524H :  0.13   96H :  0.13   36H :  0.13  201H :  0.13   87H :  0.13  336H :  0.12  596H :  0.12  623H :  0.12  371H :  0.12   92H :  0.12
  518H :  0.12  533H :  0.12  447H :  0.12  348H :  0.12  567H :  0.12  638H :  0.12  662H :  0.12  615H :  0.11  294H :  0.11  605H :  0.11  156H :  0.11  273H :  0.11
   12H :  0.11   11H :  0.10  519H :  0.10  471H :  0.10  629H :  0.10  488H :  0.10  462H :  0.10  431H :  0.10  683H :  0.10  551H :  0.09  554H :  0.09  584H :  0.09
  576H :  0.09  483H :  0.09   72H :  0.09  269H :  0.09   80H :  0.09  461H :  0.09   24H :  0.09  548H :  0.09  360H :  0.09  681H :  0.09  449H :  0.09   21H :  0.09
  179H :  0.08  536H :  0.08  395H :  0.08  227H :  0.08  416H :  0.08  363H :  0.08  218H :  0.08  558H :  0.08  254H :  0.08    8H :  0.08  644H :  0.08  738H :  0.08
  603H :  0.07  224H :  0.07  342H :  0.07   66H :  0.07  260H :  0.07  164H :  0.07
    3 LP   *******   0.00 -14.64719 -23.71417  26.12318  127O : 25.93  700O : 23.24   73O : 20.19   16O : 18.54  289O : 18.33  181O : 17.59  106O : 16.77  136O : 15.53  718O : 15.23  508O : 14.87  616O : 14.15  358O : 14.15
  325O : 14.11  568O : 14.08  742O : 13.16  682O : 12.99  124O : 12.36  232O : 12.31  619O : 12.04   49O : 11.85   82O : 11.49  217O : 10.67   67O :  9.97   13O :  9.91
  445O :  9.80  751O :  9.79  703O :  9.77   40O :  9.62  463O :  9.58  709O :  9.55    4O :  9.43  154O :  9.37   34O :  9.33  148O :  9.28  697O :  9.17  286O :  9.16
  109O :  9.12  400O :  8.85  469O :  8.76  322O :  8.76   79O :  8.42  418O :  8.37  598O :  8.13  484O :  7.98  238O :  7.98  442O :  7.90  694O :  7.89  580O :  7.75
   58O :  7.62   25O :  7.57  292O :  7.53  673O :  7.50  208O :  7.31  364O :  7.31  103O :  7.15   37O :  7.08  538O :  7.05  733O :  7.01   85O :  7.00  133O :  6.92
  505O :  6.88   52O :  6.87  562O :  6.81  664O :  6.77   97O :  6.64  550O :  6.47  649O :  6.34   31O :  6.23  421O :  6.13  370O :  6.04   64O :  6.01  601O :  5.96
   19O :  5.96   22O :  5.94  271O :  5.88  301O :  5.69  514O :  5.68  526O :  5.64  376O :  5.64  625O :  5.64  607O :  5.61   76O :  5.52  577O :  5.50  430O :  5.47
   55O :  5.28  253O :  5.25  382O :  5.19  316O :  5.14  235O :  5.09  523O :  5.09  268O :  5.08  586O :  5.04  643O :  4.99  283O :  4.97  544O :  4.96    7O :  4.88
  190O :  4.86  727O :  4.82  172O :  4.70  754O :  4.68  493O :  4.65  424O :  4.63  199O :  4.62  250O :  4.60  256O :  4.58  412O :  4.57  391O :  4.55   88O :  4.47
  175O :  4.43  373O :  4.42  715O :  4.39  592O :  4.32  361O :  4.30  100O :  4.27  187O :  4.27  502O :  4.26   43O :  4.20  337O :  4.19  535O :  4.13  388O :  4.10
  244O :  4.08  184O :  4.00  541O :  3.97  628O :  3.95  226O :  3.88  499O :  3.74  334O :  3.69  661O :  3.68  427O :  3.67  139O :  3.56  583O :  3.52  403O :  3.49
  331O :  3.35  304O :  3.35  118O :  3.34  547O :  3.33  481O :  3.30  394O :  3.29  160O :  3.28  130O :  3.26  295O :  3.25  265O :  3.22  520O :  3.17  352O :  3.16
  475O :  3.12  532O :  3.12  460O :  3.05   94O :  3.04  748O :  2.99  617H :  2.98  121O :  2.89   61O :  2.86  202O :  2.86  349O :  2.85    1O :  2.82  451O :  2.77
  346O :  2.77  670O :  2.75   28O :  2.73  214O :  2.72  622O :  2.70  676O :  2.68  487O :  2.63  589O :  2.63  355O :  2.59  553O :  2.54  178O :  2.49  307O :  2.48
  436O :  2.47  730O :  2.43  367O :  2.42   14H :  2.41  529O :  2.40   91O :  2.39  613O :  2.38  652O :  2.34   10O :  2.30  688O :  2.29  142O :  2.29  280O :  2.29
  247O :  2.28  454O :  2.25  259O :  2.24  478O :  2.24  293H :  2.23  166O :  2.08  313O :  2.07  658O :  2.06  466O :  2.01  115O :  1.99  457O :  1.98  496O :  1.91
  637O :  1.90  472O :  1.84  223O :  1.84  655O :  1.81  406O :  1.80  298O :  1.80  685O :  1.77  327H :  1.74  126H :  1.74  205O :  1.69  610O :  1.67  679O :  1.67
  640O :  1.62   20H :  1.62  745O :  1.62  196O :  1.60  328O :  1.59  112O :  1.54  409O :  1.53   51H :  1.52  631O :  1.52  110H :  1.50  695H :  1.44  310O :  1.40
  169O :  1.39  193O :  1.38  356H :  1.34  105H :  1.33  372H :  1.27  241O :  1.26  595O :  1.24  229O :  1.24  343O :  1.22  274O :  1.19  545H :  1.18   46O :  1.16
  163O :  1.15  556O :  1.12  270H :  1.10  604O :  1.08  288H :  1.06   89H :  1.04  379O :  1.02  739O :  1.01  385O :  1.00  319O :  0.99  743H :  0.97  574O :  0.95
  634O :  0.95  494H :  0.94  665H :  0.93  691O :  0.90  646O :  0.90  485H :  0.89  721O :  0.88  698H :  0.87  173H :  0.87  534H :  0.87  162H :  0.86  696H :  0.86
  155H :  0.86  736O :  0.84  209H :  0.84  517O :  0.82  340O :  0.82  753H :  0.81   70O :  0.81  582H :  0.78  744H :  0.77   18H :  0.76  220O :  0.76  651H :  0.76
  443H :  0.75  486H :  0.75   50H :  0.74  277O :  0.73  433O :  0.72  717H :  0.72  506H :  0.71  571O :  0.70  149H :  0.69  326H :  0.68   27H :  0.68  397O :  0.68
  230H :  0.67  599H :  0.67  362H :  0.67   69H :  0.65  446H :  0.64  593H :  0.63  240H :  0.63  635H :  0.62  174H :  0.62  151O :  0.61  608H :  0.61  101H :  0.61
   54H :  0.59  667O :  0.59  702H :  0.58    3H :  0.56  414H :  0.56  705H :  0.55  585H :  0.53  305H :  0.53  245H :  0.52  587H :  0.52  357H :  0.52   63H :  0.51
  332H :  0.51   45H :  0.51   93H :  0.51  141H :  0.51  368H :  0.50   81H :  0.50  102H :  0.50  654H :  0.49   65H :  0.48  258H :  0.48  690H :  0.48  455H :  0.48
  726H :  0.48  281H :  0.48   39H :  0.47  663H :  0.46  104H :  0.46  706O :  0.46  284H :  0.46  211O :  0.45  527H :  0.45  157O :  0.45  192H :  0.45   74H :  0.44
  724O :  0.44  415O :  0.44  500H :  0.43  750H :  0.42  137H :  0.42  712O :  0.42  575H :  0.41   86H :  0.41  290H :  0.40  272H :  0.40  728H :  0.40  465H :  0.39
  516H :  0.39  282H :  0.39  473H :  0.38  365H :  0.38  555H :  0.38  108H :  0.38  228H :  0.38  448O :  0.37  129H :  0.37  255H :  0.37   62H :  0.37  470H :  0.37
  542H :  0.37  410H :  0.36  438H :  0.35  350H :  0.35   78H :  0.35  699H :  0.34  389H :  0.34  559O :  0.34  565O :  0.34  614H :  0.34  678H :  0.33  189H :  0.33
   42H :  0.33  285H :  0.32  720H :  0.32  312H :  0.31  300H :  0.31  262O :  0.31  125H :  0.30  490O :  0.30  243H :  0.30  549H :  0.30  515H :  0.30  677H :  0.30
  620H :  0.29  242H :  0.29  390H :  0.29  380H :  0.29  374H :  0.29  439O :  0.29  624H :  0.28  314H :  0.28  354H :  0.28  144H :  0.28  674H :  0.27  303H :  0.27
  131H :  0.26  152H :  0.26  419H :  0.26  476H :  0.26  396H :  0.26    9H :  0.26  353H :  0.25   99H :  0.25  119H :  0.25  145O :  0.25  642H :  0.25  511O :  0.25
  444H :  0.25  737H :  0.25  641H :  0.25   17H :  0.24  186H :  0.24   60H :  0.24  311H :  0.24  507H :  0.23  276H :  0.23  452H :  0.23  528H :  0.23   26H :  0.23
  345H :  0.23  531H :  0.22  333H :  0.22  557H :  0.22   98H :  0.22  341H :  0.22  434H :  0.22  291H :  0.22  749H :  0.22  501H :  0.21  320H :  0.21  467H :  0.21
  525H :  0.21  581H :  0.20  330H :  0.20  107H :  0.20  489H :  0.20  297H :  0.20    5H :  0.20  437H :  0.20  503H :  0.20  564H :  0.19  222H :  0.19  150H :  0.19
  323H :  0.19  740H :  0.19  344H :  0.19  308H :  0.19  732H :  0.19  236H :  0.18  377H :  0.18  612H :  0.18  177H :  0.18  266H :  0.18  153H :  0.18  579H :  0.18
  630H :  0.18  134H :  0.17   77H :  0.17  687H :  0.17  404H :  0.17  176H :  0.17   53H :  0.17  194H :  0.17  600H :  0.17  725H :  0.17  566H :  0.16  540H :  0.16
  140H :  0.16   71H :  0.16  399H :  0.16  479H :  0.16  425H :  0.16  459H :  0.16  221H :  0.15  318H :  0.15  735H :  0.15  167H :  0.15   95H :  0.15  210H :  0.15
  633H :  0.15   44H :  0.14  381H :  0.14  686H :  0.14  456H :  0.14  704H :  0.14  168H :  0.14   23H :  0.14  267H :  0.14  569H :  0.13  666H :  0.13  159H :  0.13
  249H :  0.13  594H :  0.13  524H :  0.13   96H :  0.13   36H :  0.13  201H :  0.13   87H :  0.12  336H :  0.12  596H :  0.12   92H :  0.12  623H :  0.12  371H :  0.12
  518H :  0.12  447H :  0.12  533H :  0.12  348H :  0.12  567H :  0.12  638H :  0.12  662H :  0.11  615H :  0.11  294H :  0.11  605H :  0.11  156H :  0.11  273H :  0.11
   12H :  0.11   11H :  0.10  519H :  0.10  471H :  0.10  629H :  0.10  488H :  0.10  462H :  0.10  431H :  0.10  683H :  0.10  551H :  0.09  554H :  0.09  584H :  0.09
   21H :  0.09  576H :  0.09   24H :  0.09  483H :  0.09   72H :  0.09  269H :  0.09   80H :  0.09  461H :  0.09  548H :  0.09  360H :  0.09  681H :  0.09  449H :  0.09
  179H :  0.08  536H :  0.08  227H :  0.08  416H :  0.08  363H :  0.08  218H :  0.08  558H :  0.08  254H :  0.08    8H :  0.08  644H :  0.08  738H :  0.08  603H :  0.07
  224H :  0.07  342H :  0.07   66H :  0.07  260H :  0.07  164H :  0.07
    4 LP   *******   0.00  -2.53552  16.23561  81.66855  127O : 25.41   73O : 21.66  700O : 20.95  289O : 17.96   16O : 17.89  181O : 17.24  106O : 16.41  136O : 15.22  718O : 14.92  508O : 14.57  616O : 13.88  358O : 13.86
  325O : 13.82  568O : 13.78  742O : 12.90  682O : 12.73  124O : 12.11  232O : 12.07  619O : 11.79   49O : 11.61   82O : 11.26  217O : 10.45   67O :  9.77   13O :  9.71
  445O :  9.62  751O :  9.59  703O :  9.57   40O :  9.42  463O :  9.39  709O :  9.34    4O :  9.24  154O :  9.18   34O :  9.14  148O :  9.09  697O :  8.98  286O :  8.96
  109O :  8.93  400O :  8.67  322O :  8.58  469O :  8.58   79O :  8.25  418O :  8.20  598O :  7.97  484O :  7.82  238O :  7.82  442O :  7.74  694O :  7.73  580O :  7.60
   58O :  7.53   25O :  7.41  292O :  7.38  673O :  7.34  364O :  7.16  208O :  7.15  103O :  7.01   37O :  6.95  538O :  6.90  733O :  6.87   85O :  6.86  133O :  6.78
  505O :  6.74   52O :  6.67  562O :  6.67  664O :  6.65   97O :  6.50  550O :  6.34  649O :  6.22   31O :  6.11  421O :  6.00  370O :  5.92   64O :  5.89  601O :  5.84
   22O :  5.80   19O :  5.78  271O :  5.77  301O :  5.58  514O :  5.56  526O :  5.56  376O :  5.53  625O :  5.52  607O :  5.49   76O :  5.41  577O :  5.39  430O :  5.36
   55O :  5.16  253O :  5.14  382O :  5.09  316O :  5.04  235O :  4.99  523O :  4.99  268O :  4.97  586O :  4.93  643O :  4.89  283O :  4.87  544O :  4.85    7O :  4.78
  190O :  4.74  727O :  4.72  172O :  4.61  754O :  4.59  493O :  4.55  424O :  4.53  199O :  4.53  250O :  4.51  256O :  4.49  412O :  4.48  391O :  4.46   88O :  4.38
  175O :  4.34  373O :  4.33  715O :  4.31  592O :  4.24  361O :  4.21  100O :  4.19  187O :  4.18  502O :  4.17   43O :  4.11  337O :  4.10  535O :  4.05  388O :  4.02
  244O :  4.00  184O :  3.91  541O :  3.89  628O :  3.87  226O :  3.80  499O :  3.66  334O :  3.61  661O :  3.60  427O :  3.60  139O :  3.49  583O :  3.45  403O :  3.42
  331O :  3.29  304O :  3.28  118O :  3.27  547O :  3.27  481O :  3.24  394O :  3.22  160O :  3.21  130O :  3.19  295O :  3.19  265O :  3.15  520O :  3.11  352O :  3.10
  475O :  3.06  532O :  3.05  460O :  2.99   94O :  2.98  617H :  2.94  748O :  2.93  121O :  2.83   61O :  2.81  202O :  2.80  349O :  2.79    1O :  2.77  451O :  2.72
  346O :  2.71  670O :  2.69   28O :  2.68  214O :  2.66  622O :  2.65  676O :  2.62  589O :  2.58  487O :  2.58  355O :  2.52  553O :  2.48  178O :  2.44  307O :  2.42
  436O :  2.42  730O :  2.38  367O :  2.37   14H :  2.36  529O :  2.35   91O :  2.34  613O :  2.33  652O :  2.30   10O :  2.26  688O :  2.24  142O :  2.24  280O :  2.24
  247O :  2.23  454O :  2.20  259O :  2.19  478O :  2.19  293H :  2.19  166O :  2.03  313O :  2.03  658O :  2.02  466O :  1.96  115O :  1.94  457O :  1.94  496O :  1.87
  637O :  1.86  472O :  1.81  223O :  1.81  655O :  1.78  406O :  1.76  298O :  1.76  685O :  1.73  327H :  1.70  126H :  1.70  205O :  1.66  610O :  1.64  679O :  1.64
  640O :  1.59  745O :  1.58  196O :  1.57  328O :  1.56   20H :  1.54  112O :  1.51  409O :  1.50   51H :  1.49  631O :  1.49  110H :  1.47  695H :  1.41  310O :  1.37
  169O :  1.36  193O :  1.35  356H :  1.32  105H :  1.30  372H :  1.24  241O :  1.23  595O :  1.22  229O :  1.21  343O :  1.20  274O :  1.18  545H :  1.16   46O :  1.13
  163O :  1.13  556O :  1.09  270H :  1.08  604O :  1.05  288H :  1.04   89H :  1.02  379O :  1.00  739O :  0.99  385O :  0.98  319O :  0.97  743H :  0.95  574O :  0.94
  634O :  0.93  665H :  0.92  494H :  0.92  691O :  0.88  646O :  0.88  485H :  0.87  721O :  0.86  698H :  0.86  173H :  0.85  534H :  0.85  162H :  0.85  696H :  0.85
  155H :  0.84  736O :  0.83  209H :  0.82  517O :  0.80  340O :  0.80  753H :  0.79   70O :  0.79  582H :  0.76  744H :  0.75  220O :  0.74  651H :  0.74   18H :  0.74
  443H :  0.73  486H :  0.73   50H :  0.73  277O :  0.72  433O :  0.71  717H :  0.71  506H :  0.70  702H :  0.68  571O :  0.68  149H :  0.67  326H :  0.66   27H :  0.66
  397O :  0.66  230H :  0.66  599H :  0.66  362H :  0.66   69H :  0.63  446H :  0.63  593H :  0.62  240H :  0.62  635H :  0.61  174H :  0.60  608H :  0.60  151O :  0.60
  101H :  0.59   54H :  0.59  667O :  0.58  414H :  0.55    3H :  0.55  705H :  0.53  585H :  0.52  305H :  0.51  245H :  0.51  587H :  0.51   63H :  0.50  357H :  0.50
  332H :  0.50   45H :  0.50   93H :  0.50  141H :  0.50  368H :  0.49   81H :  0.49  102H :  0.49  654H :  0.48   65H :  0.47  258H :  0.47  690H :  0.47  455H :  0.47
  726H :  0.47  281H :  0.47  192H :  0.46   39H :  0.46  663H :  0.45  706O :  0.45  104H :  0.45  284H :  0.45  211O :  0.44  157O :  0.44  724O :  0.43  415O :  0.43
  527H :  0.43  500H :  0.42  750H :  0.42  137H :  0.42  712O :  0.41  575H :  0.41   86H :  0.40  290H :  0.39  272H :  0.39  728H :  0.39  465H :  0.39  516H :  0.39
  282H :  0.38  473H :  0.38  365H :  0.38  555H :  0.37  108H :  0.37  228H :  0.37  448O :  0.37  129H :  0.36  255H :  0.36   62H :  0.36  470H :  0.36  542H :  0.36
  410H :  0.36   74H :  0.35  350H :  0.35  438H :  0.35   78H :  0.34  699H :  0.34  389H :  0.34  559O :  0.33  565O :  0.33  614H :  0.33  678H :  0.33  189H :  0.32
   42H :  0.32  285H :  0.32  720H :  0.32  312H :  0.31  300H :  0.31  262O :  0.31  125H :  0.30  490O :  0.30  243H :  0.30  549H :  0.29  515H :  0.29  677H :  0.29
  620H :  0.29  242H :  0.29  390H :  0.29  380H :  0.29  374H :  0.28  439O :  0.28  624H :  0.28  314H :  0.28  354H :  0.27  144H :  0.27  674H :  0.27  303H :  0.26
  131H :  0.26  419H :  0.26  152H :  0.26  476H :  0.25  396H :  0.25    9H :  0.25  353H :  0.25   99H :  0.25  119H :  0.25  145O :  0.24  642H :  0.24  511O :  0.24
  444H :  0.24  276H :  0.24  737H :  0.24  641H :  0.24   17H :  0.24  186H :  0.23  507H :  0.23  311H :  0.23  528H :  0.23   60H :  0.23  452H :  0.23   26H :  0.22
  345H :  0.22  531H :  0.22  333H :  0.22  557H :  0.22   98H :  0.22  341H :  0.22  434H :  0.21  291H :  0.21  749H :  0.21  501H :  0.21  320H :  0.21  467H :  0.21
  525H :  0.20  581H :  0.20  330H :  0.20  489H :  0.20  297H :  0.20    5H :  0.20  437H :  0.19  107H :  0.19  503H :  0.19  564H :  0.19  222H :  0.19  150H :  0.19
  323H :  0.19  740H :  0.19  344H :  0.19  308H :  0.18  732H :  0.18  236H :  0.18  377H :  0.18  612H :  0.17  177H :  0.17  266H :  0.17  153H :  0.17  579H :  0.17
  630H :  0.17   77H :  0.17  134H :  0.17  687H :  0.17  404H :  0.17   53H :  0.17  176H :  0.17  194H :  0.17  600H :  0.16  725H :  0.16  566H :  0.16  540H :  0.16
  140H :  0.16   71H :  0.16  399H :  0.16  479H :  0.16  425H :  0.16  459H :  0.15  221H :  0.15  318H :  0.15  735H :  0.15  167H :  0.15   95H :  0.15  210H :  0.15
  633H :  0.14   44H :  0.14  381H :  0.14  686H :  0.14  456H :  0.14  704H :  0.14  168H :  0.14  267H :  0.13  569H :  0.13  666H :  0.13  159H :  0.13  249H :  0.13
   23H :  0.13  594H :  0.13  524H :  0.13   96H :  0.13   36H :  0.12  201H :  0.12   87H :  0.12  336H :  0.12  596H :  0.12  623H :  0.12  371H :  0.12   92H :  0.12
  518H :  0.12  533H :  0.12  348H :  0.11  567H :  0.11  638H :  0.11  662H :  0.11  615H :  0.11  294H :  0.11  605H :  0.11  156H :  0.11  273H :  0.11   12H :  0.10
   11H :  0.10  519H :  0.10  471H :  0.10  629H :  0.10  488H :  0.10  462H :  0.10  431H :  0.10  683H :  0.09  551H :  0.09  554H :  0.09  584H :  0.09  576H :  0.09
  483H :  0.09   72H :  0.09  269H :  0.09   80H :  0.09  461H :  0.09   24H :  0.09  548H :  0.09  360H :  0.09  681H :  0.09  449H :  0.08   21H :  0.08  179H :  0.08
  447H :  0.08  536H :  0.08  227H :  0.08  416H :  0.08  363H :  0.08  218H :  0.08  558H :  0.08  254H :  0.08    8H :  0.08  644H :  0.08  738H :  0.07  603H :  0.07
  224H :  0.07  342H :  0.07   66H :  0.07  260H :  0.07
    5 LP   *******   0.00 -23.22083  -0.97331  54.97354  127O : 20.31  700O : 16.75   73O : 15.82  181O : 15.45  289O : 14.36   16O : 14.30  106O : 13.14  136O : 12.18  718O : 11.93  508O : 11.65  616O : 11.09  358O : 11.08
  325O : 11.05  568O : 11.01  742O : 10.31  682O : 10.17  124O :  9.68  232O :  9.65  619O :  9.43   49O :  9.28   82O :  9.00  217O :  8.36   67O :  7.81   13O :  7.76
  445O :  7.67  751O :  7.66  703O :  7.65   40O :  7.52  463O :  7.51  709O :  7.47    4O :  7.38  154O :  7.34   34O :  7.31  148O :  7.27  286O :  7.20  697O :  7.18
  109O :  7.14  400O :  6.93  322O :  6.86  469O :  6.86   79O :  6.60  418O :  6.56  598O :  6.37  484O :  6.25  238O :  6.25  442O :  6.19  694O :  6.18  580O :  6.07
   58O :  5.97  292O :  5.90  673O :  5.87   25O :  5.75  208O :  5.73  364O :  5.73  103O :  5.60   37O :  5.55  538O :  5.52  733O :  5.49   85O :  5.48  133O :  5.42
  505O :  5.39   52O :  5.38  562O :  5.33  664O :  5.31   97O :  5.20  550O :  5.07  649O :  4.97   31O :  4.88  421O :  4.80  370O :  4.73   64O :  4.71  601O :  4.67
   22O :  4.64   19O :  4.62  271O :  4.59  301O :  4.46  514O :  4.45  526O :  4.44  376O :  4.42  625O :  4.41  607O :  4.39  577O :  4.31   76O :  4.31  430O :  4.28
   55O :  4.13  253O :  4.11  382O :  4.07  316O :  4.03  235O :  3.99  523O :  3.99  268O :  3.98  586O :  3.96  643O :  3.91  283O :  3.89  544O :  3.88    7O :  3.82
  190O :  3.79  727O :  3.78  493O :  3.73  172O :  3.69  754O :  3.67  424O :  3.63  199O :  3.62  250O :  3.60  256O :  3.59  412O :  3.58  391O :  3.57   88O :  3.50
  175O :  3.47  373O :  3.46  715O :  3.44  592O :  3.39  361O :  3.37  100O :  3.35  187O :  3.34  502O :  3.34   43O :  3.29  337O :  3.28  535O :  3.24  388O :  3.21
  244O :  3.20  184O :  3.13  541O :  3.11  628O :  3.09  226O :  3.04  499O :  2.93  334O :  2.89  661O :  2.88  427O :  2.88  139O :  2.79  583O :  2.76  118O :  2.64
  331O :  2.63  304O :  2.62  547O :  2.61  403O :  2.59  481O :  2.59  394O :  2.57  160O :  2.57  130O :  2.55  295O :  2.55  265O :  2.52  520O :  2.49  352O :  2.46
  475O :  2.44  532O :  2.44  460O :  2.39   94O :  2.38  617H :  2.35  748O :  2.34   61O :  2.32  121O :  2.26  202O :  2.24  349O :  2.23    1O :  2.21  451O :  2.17
  346O :  2.17  670O :  2.15   28O :  2.14  214O :  2.13  622O :  2.12  676O :  2.10  487O :  2.06  589O :  2.05  355O :  2.03  553O :  1.99  178O :  1.95  436O :  1.94
  307O :  1.94  730O :  1.90  367O :  1.90   14H :  1.89  529O :  1.88   91O :  1.87  613O :  1.87  652O :  1.84  688O :  1.79   10O :  1.79  142O :  1.79  247O :  1.79
  280O :  1.79  454O :  1.76  259O :  1.75  478O :  1.75  293H :  1.75  166O :  1.63  313O :  1.62  658O :  1.62  466O :  1.57  115O :  1.56  457O :  1.55  496O :  1.50
  637O :  1.49  472O :  1.44  223O :  1.44  655O :  1.42  406O :  1.41  298O :  1.41  685O :  1.38  327H :  1.36  126H :  1.36  205O :  1.33  610O :  1.31  679O :  1.31
  640O :  1.27  745O :  1.27  196O :  1.26  328O :  1.24   20H :  1.23  112O :  1.21  409O :  1.20   51H :  1.19  631O :  1.19  110H :  1.18  695H :  1.13  310O :  1.10
  169O :  1.09  193O :  1.08  356H :  1.05  105H :  1.04  372H :  0.99  241O :  0.98  595O :  0.97  229O :  0.97  343O :  0.96  274O :  0.94  545H :  0.93   46O :  0.91
  163O :  0.90  556O :  0.88  494H :  0.87  270H :  0.86  604O :  0.84  288H :  0.84   89H :  0.81  379O :  0.80  739O :  0.79  385O :  0.78  319O :  0.77  743H :  0.76
  574O :  0.75  634O :  0.75  665H :  0.74  691O :  0.71  646O :  0.70  485H :  0.70  721O :  0.69  698H :  0.69  173H :  0.68  534H :  0.68  696H :  0.68  162H :  0.68
  155H :  0.67  736O :  0.66  209H :  0.65  517O :  0.64  340O :  0.64  753H :  0.63   70O :  0.63  582H :  0.61  744H :  0.60  220O :  0.60  651H :  0.59   18H :  0.59
  443H :  0.59  486H :  0.58   50H :  0.58  277O :  0.57  433O :  0.57  717H :  0.57  506H :  0.56  702H :  0.55  571O :  0.55  149H :  0.54  599H :  0.53  326H :  0.53
  397O :  0.53  230H :  0.53  362H :  0.52   27H :  0.51   69H :  0.51  446H :  0.50  593H :  0.49  240H :  0.49  635H :  0.49  174H :  0.48  151O :  0.48  608H :  0.48
  101H :  0.47   54H :  0.47  667O :  0.47  414H :  0.44    3H :  0.44  705H :  0.43  585H :  0.42   63H :  0.41  305H :  0.41  245H :  0.41  357H :  0.41  587H :  0.40
  332H :  0.40   45H :  0.40  141H :  0.40   93H :  0.40  368H :  0.39   81H :  0.39  102H :  0.39  654H :  0.39   65H :  0.38  258H :  0.38  690H :  0.38  455H :  0.38
  726H :  0.37  281H :  0.37  192H :  0.37   39H :  0.37  706O :  0.36  663H :  0.36  104H :  0.36  284H :  0.36  211O :  0.36  157O :  0.35  724O :  0.34   74H :  0.34
  415O :  0.34  527H :  0.34  500H :  0.33  750H :  0.33  137H :  0.33  712O :  0.33  575H :  0.32   86H :  0.32  290H :  0.32  272H :  0.31  728H :  0.31  465H :  0.31
  516H :  0.31  282H :  0.30  473H :  0.30  365H :  0.30  555H :  0.30  108H :  0.30  228H :  0.30  448O :  0.29  129H :  0.29  255H :  0.29  470H :  0.29  542H :  0.29
  410H :  0.29   62H :  0.28  438H :  0.28  350H :  0.28   78H :  0.27  699H :  0.27  389H :  0.27  559O :  0.27  565O :  0.26  614H :  0.26  678H :  0.26   42H :  0.26
  189H :  0.26  285H :  0.25  720H :  0.25  312H :  0.25  300H :  0.25  262O :  0.24  125H :  0.24  490O :  0.24  243H :  0.24  549H :  0.24  515H :  0.23  677H :  0.23
  620H :  0.23  242H :  0.23  390H :  0.23  380H :  0.23  374H :  0.23  439O :  0.22  624H :  0.22  354H :  0.22  314H :  0.22  144H :  0.22  674H :  0.21  303H :  0.21
  131H :  0.21  419H :  0.20  152H :  0.20  476H :  0.20  119H :  0.20  396H :  0.20    9H :  0.20  353H :  0.20   99H :  0.20  145O :  0.20  642H :  0.19  511O :  0.19
  444H :  0.19  276H :  0.19  737H :  0.19  641H :  0.19   17H :  0.19  186H :  0.19   60H :  0.19  507H :  0.18  311H :  0.18  528H :  0.18  452H :  0.18  345H :  0.18
  531H :  0.18  333H :  0.17  557H :  0.17   98H :  0.17  341H :  0.17  434H :  0.17  291H :  0.17  749H :  0.17  501H :  0.17  320H :  0.17  467H :  0.17  525H :  0.16
   26H :  0.16  581H :  0.16  330H :  0.16  107H :  0.16  489H :  0.16  297H :  0.16    5H :  0.16  437H :  0.16  503H :  0.15  564H :  0.15  222H :  0.15  150H :  0.15
  740H :  0.15  323H :  0.15  344H :  0.15  308H :  0.15  732H :  0.15  236H :  0.14  377H :  0.14  612H :  0.14  177H :  0.14  266H :  0.14  153H :  0.14  579H :  0.14
  630H :  0.14   77H :  0.14  404H :  0.14  134H :  0.14  687H :  0.14  176H :  0.13   53H :  0.13  194H :  0.13  600H :  0.13  725H :  0.13  566H :  0.13  540H :  0.13
  140H :  0.13   71H :  0.13  399H :  0.13  479H :  0.12  425H :  0.12  459H :  0.12  221H :  0.12  318H :  0.12  735H :  0.12  167H :  0.12   95H :  0.12  210H :  0.12
  633H :  0.12   44H :  0.11  381H :  0.11  686H :  0.11  456H :  0.11  704H :  0.11  168H :  0.11  267H :  0.11  569H :  0.11  666H :  0.11  159H :  0.10  249H :  0.10
   23H :  0.10  594H :  0.10  524H :  0.10   96H :  0.10   36H :  0.10  201H :  0.10   87H :  0.10  336H :  0.10  596H :  0.10  623H :  0.09  371H :  0.09   92H :  0.09
  518H :  0.09  447H :  0.09  533H :  0.09  348H :  0.09  567H :  0.09  638H :  0.09  662H :  0.09  615H :  0.09  294H :  0.09  605H :  0.09  156H :  0.09  120H :  0.08
  273H :  0.08   12H :  0.08  519H :  0.08  471H :  0.08   11H :  0.08  629H :  0.08  488H :  0.08  462H :  0.08  431H :  0.08  683H :  0.08  551H :  0.07  554H :  0.07
  584H :  0.07  576H :  0.07  483H :  0.07   72H :  0.07  269H :  0.07   80H :  0.07
    6 LP   *******   0.00  65.52612  25.11725   4.56736  127O : 19.49  700O : 16.07   73O : 15.17  718O : 15.03  289O : 13.78   16O : 13.72  181O : 13.22  106O : 12.61  136O : 11.67  508O : 11.18  616O : 10.64  358O : 10.63
  325O : 10.60  568O : 10.57  742O :  9.89  682O :  9.76  124O :  9.29  232O :  9.26  619O :  9.05   49O :  8.91   82O :  8.63  217O :  8.02   67O :  7.49   13O :  7.44
  445O :  7.36  751O :  7.36  703O :  7.34   40O :  7.23  463O :  7.20  709O :  7.17    4O :  7.08  154O :  7.04   34O :  7.01  148O :  6.97  697O :  6.89  286O :  6.88
  109O :  6.85  400O :  6.65  469O :  6.58  322O :  6.58   79O :  6.33  418O :  6.29  598O :  6.11  484O :  6.00  238O :  6.00  442O :  5.94  694O :  5.93  580O :  5.83
   58O :  5.73   25O :  5.69  292O :  5.66  208O :  5.50  364O :  5.49  673O :  5.48  103O :  5.38   37O :  5.33  538O :  5.29  733O :  5.27   85O :  5.26  133O :  5.20
  505O :  5.17   52O :  5.16  562O :  5.12  664O :  5.10   97O :  4.99  550O :  4.86  649O :  4.77   31O :  4.68  421O :  4.60  370O :  4.54   64O :  4.52  601O :  4.48
   22O :  4.45   19O :  4.43  271O :  4.42  301O :  4.28  514O :  4.27  526O :  4.26  376O :  4.24  625O :  4.23  607O :  4.21   76O :  4.14  577O :  4.13  430O :  4.11
   55O :  3.96  253O :  3.94  382O :  3.90  316O :  3.86  235O :  3.83  523O :  3.82  268O :  3.81  586O :  3.78  643O :  3.75  283O :  3.73  544O :  3.72    7O :  3.67
  190O :  3.63  727O :  3.63  172O :  3.53  754O :  3.52  493O :  3.49  424O :  3.48  199O :  3.47  250O :  3.46  256O :  3.45  412O :  3.44  391O :  3.42   88O :  3.36
  175O :  3.33  373O :  3.32  715O :  3.30  592O :  3.25  361O :  3.23  100O :  3.21  187O :  3.21  502O :  3.20   43O :  3.15  337O :  3.15  535O :  3.10  388O :  3.08
  244O :  3.07  184O :  3.00  541O :  2.98  628O :  2.97  226O :  2.91  499O :  2.81  334O :  2.77  661O :  2.76  427O :  2.76  139O :  2.68  583O :  2.65  403O :  2.62
  331O :  2.52  304O :  2.52  118O :  2.51  547O :  2.51  481O :  2.48  394O :  2.47  160O :  2.47  130O :  2.45  295O :  2.44  265O :  2.41  520O :  2.39  352O :  2.37
  475O :  2.35  532O :  2.34  460O :  2.29   94O :  2.28  617H :  2.26  748O :  2.25  121O :  2.17   61O :  2.15  202O :  2.15  349O :  2.14    1O :  2.12  451O :  2.08
  346O :  2.08  670O :  2.07   28O :  2.05  214O :  2.04  676O :  2.01  487O :  1.98  589O :  1.97  622O :  1.95  355O :  1.94  553O :  1.91  178O :  1.87  436O :  1.86
  307O :  1.86  730O :  1.83  367O :  1.82   14H :  1.81  529O :  1.80   91O :  1.79  613O :  1.79  652O :  1.76   10O :  1.73  142O :  1.72  688O :  1.72  280O :  1.72
  247O :  1.71  454O :  1.69  259O :  1.68  478O :  1.68  293H :  1.68  166O :  1.57  313O :  1.55  658O :  1.55  466O :  1.51  115O :  1.49  457O :  1.49  496O :  1.44
  637O :  1.43  472O :  1.39  223O :  1.38  655O :  1.36  406O :  1.35  298O :  1.35  685O :  1.33  327H :  1.31  126H :  1.31  205O :  1.27  610O :  1.26  679O :  1.25
  640O :  1.22  745O :  1.21  196O :  1.21  328O :  1.19   20H :  1.18  112O :  1.16  409O :  1.15   51H :  1.14  631O :  1.14  110H :  1.13  695H :  1.08  310O :  1.05
  169O :  1.04  193O :  1.04  356H :  1.00  105H :  1.00  372H :  0.95  241O :  0.94  595O :  0.93  229O :  0.93  343O :  0.92  274O :  0.90  545H :  0.89   46O :  0.87
  163O :  0.87  556O :  0.84  270H :  0.83  604O :  0.81  288H :  0.80   89H :  0.78  379O :  0.77  739O :  0.76  385O :  0.75  319O :  0.74  743H :  0.73  574O :  0.72
  634O :  0.72  665H :  0.71  494H :  0.70  691O :  0.68  646O :  0.67  485H :  0.67  721O :  0.66  698H :  0.66  173H :  0.65  534H :  0.65  162H :  0.65  696H :  0.65
  155H :  0.64  736O :  0.63  209H :  0.63  517O :  0.61  340O :  0.61  753H :  0.61   70O :  0.61  582H :  0.58  744H :  0.58  220O :  0.57  651H :  0.57   18H :  0.57
  443H :  0.56  486H :  0.56   50H :  0.56  277O :  0.55  433O :  0.54  717H :  0.54  506H :  0.53  702H :  0.52  571O :  0.52  149H :  0.52  326H :  0.51   27H :  0.51
  397O :  0.51  230H :  0.51  599H :  0.50  362H :  0.50   69H :  0.49  446H :  0.48  593H :  0.47  240H :  0.47  635H :  0.47  174H :  0.46  151O :  0.46  608H :  0.46
  101H :  0.46  667O :  0.45   54H :  0.45  726H :  0.44  414H :  0.42    3H :  0.42  705H :  0.41  585H :  0.40  305H :  0.39  245H :  0.39  357H :  0.39  587H :  0.39
   63H :  0.39  332H :  0.38   45H :  0.38   93H :  0.38  141H :  0.38  368H :  0.38   81H :  0.38  102H :  0.37  654H :  0.37  724O :  0.37   65H :  0.36  258H :  0.36
  690H :  0.36  455H :  0.36  281H :  0.36  192H :  0.35   39H :  0.35  663H :  0.35  104H :  0.35  706O :  0.34  284H :  0.34  211O :  0.34  157O :  0.34   74H :  0.33
  415O :  0.33  527H :  0.33  728H :  0.33  500H :  0.32  750H :  0.32  137H :  0.32  712O :  0.32  575H :  0.31   86H :  0.31  290H :  0.30  272H :  0.30  465H :  0.30
  516H :  0.30  282H :  0.29  473H :  0.29  555H :  0.29  365H :  0.29  108H :  0.29  228H :  0.28  448O :  0.28  129H :  0.28  255H :  0.28   62H :  0.28  470H :  0.28
  542H :  0.28  410H :  0.27  350H :  0.27  438H :  0.27   78H :  0.26  699H :  0.26  389H :  0.26  559O :  0.26  565O :  0.25  614H :  0.25  678H :  0.25   42H :  0.25
  189H :  0.25  285H :  0.24  312H :  0.24  300H :  0.24  262O :  0.23  125H :  0.23  490O :  0.23  243H :  0.23  549H :  0.23  515H :  0.23  677H :  0.22  620H :  0.22
  242H :  0.22  390H :  0.22  380H :  0.22  374H :  0.22  439O :  0.22  314H :  0.21  354H :  0.21  720H :  0.21  144H :  0.21  624H :  0.21  674H :  0.20  303H :  0.20
  131H :  0.20  419H :  0.20  152H :  0.20  476H :  0.19  396H :  0.19    9H :  0.19  353H :  0.19   99H :  0.19  119H :  0.19  145O :  0.19  642H :  0.19  511O :  0.19
  444H :  0.19  276H :  0.19  737H :  0.19  641H :  0.18   17H :  0.18  186H :  0.18   60H :  0.18  507H :  0.18  311H :  0.18  528H :  0.18  452H :  0.17   26H :  0.17
  345H :  0.17  531H :  0.17  333H :  0.17   98H :  0.17  557H :  0.17  341H :  0.17  434H :  0.16  291H :  0.16  749H :  0.16  320H :  0.16  501H :  0.16  467H :  0.16
  267H :  0.16  525H :  0.16  581H :  0.15  330H :  0.15  107H :  0.15  489H :  0.15  297H :  0.15    5H :  0.15  437H :  0.15  503H :  0.15  564H :  0.15  222H :  0.15
  150H :  0.14  323H :  0.14  740H :  0.14  344H :  0.14  308H :  0.14  732H :  0.14  236H :  0.14  377H :  0.14  266H :  0.13  612H :  0.13  177H :  0.13  153H :  0.13
  579H :  0.13  630H :  0.13  134H :  0.13   77H :  0.13  687H :  0.13  404H :  0.13  176H :  0.13   53H :  0.13  194H :  0.13  600H :  0.13  725H :  0.12  566H :  0.12
  540H :  0.12  140H :  0.12   71H :  0.12  399H :  0.12  479H :  0.12  425H :  0.12  459H :  0.12  221H :  0.12  318H :  0.11  735H :  0.11  167H :  0.11   95H :  0.11
  210H :  0.11  633H :  0.11   44H :  0.11  381H :  0.11  686H :  0.11  456H :  0.11  704H :  0.10  168H :  0.10  569H :  0.10  666H :  0.10  159H :  0.10  249H :  0.10
   23H :  0.10  594H :  0.10  524H :  0.10   96H :  0.10   36H :  0.09  201H :  0.09   87H :  0.09  336H :  0.09  596H :  0.09  371H :  0.09   92H :  0.09  518H :  0.09
  623H :  0.09  447H :  0.09  533H :  0.09  348H :  0.09  567H :  0.09  638H :  0.09  662H :  0.09  615H :  0.08  294H :  0.08  605H :  0.08  156H :  0.08  273H :  0.08
   12H :  0.08   11H :  0.08  519H :  0.08  471H :  0.08  629H :  0.08  488H :  0.07  462H :  0.07  431H :  0.07  683H :  0.07  551H :  0.07  554H :  0.07  584H :  0.07
    7 LP   *******   0.00  22.18196 -20.10436  73.28032  127O : 17.76  700O : 14.65   73O : 13.83  289O : 12.56   16O : 12.50  181O : 12.05  358O : 11.97  106O : 11.49  136O : 10.64  718O : 10.43  508O : 10.18  616O :  9.70
  325O :  9.66  568O :  9.63  742O :  9.01  682O :  8.90  124O :  8.46  232O :  8.43  619O :  8.24   49O :  8.12   82O :  7.87  217O :  7.31   67O :  6.83   13O :  6.78
  445O :  6.71  751O :  6.70  703O :  6.69   40O :  6.59  463O :  6.56  709O :  6.51    4O :  6.46  154O :  6.42   34O :  6.39  148O :  6.35  697O :  6.28  286O :  6.27
  109O :  6.25  400O :  6.06  469O :  6.00  322O :  6.00   79O :  5.77  418O :  5.73  598O :  5.57  484O :  5.46  238O :  5.46  442O :  5.41  694O :  5.41  580O :  5.31
   58O :  5.22   25O :  5.18  292O :  5.16  673O :  5.13  364O :  5.01  103O :  4.90   37O :  4.86  208O :  4.84  538O :  4.83  733O :  4.80   85O :  4.79  133O :  4.74
  505O :  4.71   52O :  4.70  562O :  4.66  664O :  4.65   97O :  4.55  550O :  4.43  649O :  4.34   31O :  4.27  421O :  4.20  370O :  4.14   64O :  4.11  601O :  4.08
   22O :  4.05   19O :  4.04  271O :  4.03  301O :  3.90  514O :  3.89  526O :  3.89  376O :  3.87  625O :  3.86  607O :  3.84   76O :  3.78  577O :  3.77  430O :  3.74
   55O :  3.61  253O :  3.59  382O :  3.55  316O :  3.52  235O :  3.49  523O :  3.49  268O :  3.48  586O :  3.45  643O :  3.42  283O :  3.40  544O :  3.39    7O :  3.34
  190O :  3.31  727O :  3.30  172O :  3.22  754O :  3.21  493O :  3.18  424O :  3.17  199O :  3.17  250O :  3.15  256O :  3.14  412O :  3.13  391O :  3.12   88O :  3.06
  175O :  3.03  373O :  3.02  715O :  3.01  592O :  2.96  361O :  2.95  100O :  2.93  187O :  2.92  502O :  2.92   43O :  2.87  337O :  2.87  535O :  2.83  388O :  2.81
  244O :  2.80  184O :  2.74  541O :  2.72  628O :  2.70  226O :  2.65  499O :  2.56  334O :  2.53  661O :  2.52  427O :  2.52  139O :  2.44  583O :  2.41  403O :  2.39
  331O :  2.36  304O :  2.29  118O :  2.29  547O :  2.28  481O :  2.26  394O :  2.25  160O :  2.25  295O :  2.23  130O :  2.21  265O :  2.20  520O :  2.17  352O :  2.16
  475O :  2.14  532O :  2.14  460O :  2.09   94O :  2.08  617H :  2.06  748O :  2.05  121O :  1.98   61O :  1.96  202O :  1.96  349O :  1.95    1O :  1.93  451O :  1.90
  346O :  1.89  670O :  1.88   28O :  1.87  214O :  1.86  622O :  1.85  676O :  1.83  487O :  1.80  589O :  1.80  355O :  1.77  553O :  1.74  178O :  1.71  436O :  1.69
  307O :  1.69  730O :  1.66  367O :  1.66   14H :  1.65  529O :  1.64   91O :  1.63  613O :  1.63  652O :  1.61  142O :  1.59   10O :  1.58  688O :  1.57  280O :  1.56
  247O :  1.56  454O :  1.54  259O :  1.53  478O :  1.53  293H :  1.53  166O :  1.43  313O :  1.42  658O :  1.41  466O :  1.37  115O :  1.37  457O :  1.35  496O :  1.31
  637O :  1.30  223O :  1.26  472O :  1.26  655O :  1.24  406O :  1.23  298O :  1.23  685O :  1.21  327H :  1.19  126H :  1.19  205O :  1.16  610O :  1.14  679O :  1.14
  640O :  1.11  745O :  1.11  196O :  1.10  328O :  1.09   20H :  1.07  112O :  1.05  409O :  1.05   51H :  1.04  631O :  1.04  110H :  1.03  695H :  0.99  310O :  0.96
  169O :  0.95  193O :  0.93  356H :  0.92  105H :  0.91  372H :  0.87  241O :  0.86  595O :  0.85  229O :  0.85  343O :  0.84  274O :  0.82  545H :  0.81   46O :  0.79
  163O :  0.79  556O :  0.77  270H :  0.75  604O :  0.74  288H :  0.73   89H :  0.71  379O :  0.70  739O :  0.69  385O :  0.68  319O :  0.68  743H :  0.66  574O :  0.65
  634O :  0.65  665H :  0.64  494H :  0.64  691O :  0.62  646O :  0.61  485H :  0.61  721O :  0.60  698H :  0.60  173H :  0.60  534H :  0.59  162H :  0.59  696H :  0.59
  155H :  0.59  736O :  0.58  209H :  0.57  517O :  0.56  340O :  0.56  753H :  0.55   70O :  0.55  582H :  0.53  744H :  0.53  220O :  0.52  651H :  0.52   18H :  0.52
  443H :  0.51  486H :  0.51   50H :  0.51  277O :  0.50  433O :  0.50  717H :  0.50  506H :  0.49  702H :  0.48  571O :  0.48  149H :  0.47  326H :  0.46   27H :  0.46
  397O :  0.46  230H :  0.46  599H :  0.46  362H :  0.46   69H :  0.44  446H :  0.44  593H :  0.43  240H :  0.43  635H :  0.43  174H :  0.42  151O :  0.42  608H :  0.42
  101H :  0.42  667O :  0.41   54H :  0.41    3H :  0.39  414H :  0.39  705H :  0.37  585H :  0.37  305H :  0.36  245H :  0.36  332H :  0.36  357H :  0.36  587H :  0.35
   63H :  0.35   45H :  0.35   93H :  0.35  141H :  0.35  368H :  0.35   81H :  0.34  102H :  0.34  654H :  0.34   65H :  0.33  258H :  0.33  690H :  0.33  455H :  0.33
  726H :  0.33  281H :  0.33  192H :  0.32   39H :  0.32  104H :  0.31  663H :  0.31  706O :  0.31  284H :  0.31  211O :  0.31  157O :  0.31  724O :  0.30   74H :  0.30
  415O :  0.30  527H :  0.30  500H :  0.29  750H :  0.29  137H :  0.29  712O :  0.29  575H :  0.28   86H :  0.28  290H :  0.28  272H :  0.27  728H :  0.27  465H :  0.27
  516H :  0.27  282H :  0.27  473H :  0.26  365H :  0.26  555H :  0.26  108H :  0.26  228H :  0.26  448O :  0.26  129H :  0.25  255H :  0.25   62H :  0.25  470H :  0.25
  542H :  0.25  410H :  0.25  350H :  0.24  438H :  0.24   78H :  0.24  699H :  0.24  389H :  0.23  559O :  0.23  565O :  0.23  614H :  0.23  678H :  0.23  189H :  0.22
   42H :  0.22  285H :  0.22  720H :  0.22  300H :  0.22  312H :  0.22  262O :  0.21  125H :  0.21  490O :  0.21  243H :  0.21  549H :  0.21  515H :  0.21  677H :  0.20
  620H :  0.20  242H :  0.20  390H :  0.20  380H :  0.20  374H :  0.20  439O :  0.20  624H :  0.19  314H :  0.19  354H :  0.19  144H :  0.19  674H :  0.19  145O :  0.19
  303H :  0.18  152H :  0.18  419H :  0.18  476H :  0.18  131H :  0.18  396H :  0.18    9H :  0.18  353H :  0.17   99H :  0.17  119H :  0.17  642H :  0.17  511O :  0.17
  444H :  0.17  276H :  0.17  737H :  0.17  641H :  0.17   17H :  0.17  186H :  0.16   60H :  0.16  507H :  0.16  311H :  0.16  528H :  0.16  333H :  0.16  452H :  0.16
   26H :  0.16  345H :  0.15  531H :  0.15  557H :  0.15   98H :  0.15  341H :  0.15  434H :  0.15  291H :  0.15  749H :  0.15  501H :  0.15  320H :  0.15  467H :  0.15
  525H :  0.14  581H :  0.14  330H :  0.14  107H :  0.14  489H :  0.14  297H :  0.14    5H :  0.14  437H :  0.14  503H :  0.13  194H :  0.13  564H :  0.13  222H :  0.13
  150H :  0.13  323H :  0.13  740H :  0.13  344H :  0.13  308H :  0.13  732H :  0.13  236H :  0.13  377H :  0.12  612H :  0.12  177H :  0.12  266H :  0.12  153H :  0.12
  579H :  0.12  630H :  0.12  134H :  0.12   77H :  0.12  687H :  0.12  404H :  0.12  176H :  0.12   53H :  0.12  600H :  0.12  725H :  0.11  566H :  0.11  540H :  0.11
  140H :  0.11   71H :  0.11  399H :  0.11  479H :  0.11  425H :  0.11  459H :  0.11  221H :  0.11  318H :  0.10  735H :  0.10  167H :  0.10   95H :  0.10  633H :  0.10
   44H :  0.10  381H :  0.10  686H :  0.10  456H :  0.10  210H :  0.10  704H :  0.09  168H :  0.09  267H :  0.09  569H :  0.09  666H :  0.09  159H :  0.09  249H :  0.09
   23H :  0.09  594H :  0.09  524H :  0.09   96H :  0.09   36H :  0.09  201H :  0.09   87H :  0.09  336H :  0.09  596H :  0.08  623H :  0.08  371H :  0.08   92H :  0.08
  518H :  0.08  447H :  0.08  533H :  0.08  348H :  0.08  567H :  0.08  638H :  0.08  662H :  0.08  615H :  0.08  294H :  0.08  605H :  0.07  156H :  0.07  273H :  0.07
   12H :  0.07   11H :  0.07
    8 LP   *******   0.00  10.86542  58.57173  59.91159  127O : 17.66  700O : 14.57   73O : 13.75  325O : 13.11  289O : 12.49   16O : 12.43  181O : 11.98  106O : 11.43  136O : 10.58  718O : 10.37  508O : 10.13  616O :  9.65
  358O :  9.63  568O :  9.58  742O :  8.96  682O :  8.85  124O :  8.42  232O :  8.39  619O :  8.20   49O :  8.07   82O :  7.83  217O :  7.26   67O :  6.79   13O :  6.75
  445O :  6.67  751O :  6.67  703O :  6.65   40O :  6.55  463O :  6.52  709O :  6.50    4O :  6.41  154O :  6.38   34O :  6.36  148O :  6.32  697O :  6.25  286O :  6.24
  109O :  6.21  400O :  6.03  469O :  5.97  322O :  5.96   79O :  5.74  418O :  5.70  598O :  5.54  484O :  5.43  238O :  5.43  442O :  5.38  694O :  5.38  580O :  5.28
   58O :  5.19   25O :  5.15  292O :  5.13  673O :  5.11  208O :  4.98  364O :  4.98  103O :  4.87   37O :  4.83  538O :  4.80  733O :  4.78   85O :  4.77  133O :  4.71
  505O :  4.68   52O :  4.68  562O :  4.64  664O :  4.62   97O :  4.52  550O :  4.41  649O :  4.32   31O :  4.25  421O :  4.17  370O :  4.12   64O :  4.10  601O :  4.06
   22O :  4.03   19O :  4.02  271O :  4.01  301O :  3.88  514O :  3.87  526O :  3.86  376O :  3.84  625O :  3.84  607O :  3.82   76O :  3.76  577O :  3.75  430O :  3.72
   55O :  3.59  253O :  3.55  382O :  3.54  316O :  3.50  235O :  3.47  523O :  3.47  268O :  3.46  586O :  3.43  643O :  3.40  283O :  3.38  544O :  3.37    7O :  3.32
  190O :  3.29  727O :  3.28  172O :  3.20  754O :  3.19  493O :  3.16  424O :  3.15  199O :  3.15  256O :  3.12  412O :  3.12  391O :  3.10  250O :  3.10   88O :  3.04
  175O :  3.02  715O :  2.99  373O :  2.98  592O :  2.95  361O :  2.93  100O :  2.91  187O :  2.91  502O :  2.90   43O :  2.86  337O :  2.85  535O :  2.81  388O :  2.79
  244O :  2.78  184O :  2.72  541O :  2.70  628O :  2.69  226O :  2.64  499O :  2.54  334O :  2.51  661O :  2.51  427O :  2.50  139O :  2.43  583O :  2.40  403O :  2.38
  331O :  2.28  304O :  2.28  118O :  2.28  547O :  2.27  481O :  2.25  394O :  2.24  160O :  2.23  130O :  2.22  295O :  2.21  265O :  2.19  520O :  2.16  352O :  2.15
  475O :  2.13  532O :  2.12  460O :  2.08   94O :  2.07  617H :  2.05  748O :  2.04  121O :  1.97   61O :  1.95  202O :  1.95  349O :  1.94    1O :  1.92  451O :  1.89
  346O :  1.88  670O :  1.87   28O :  1.86  214O :  1.85  622O :  1.84  676O :  1.82  487O :  1.79  589O :  1.79  355O :  1.76  553O :  1.73  178O :  1.70  436O :  1.69
  307O :  1.68  730O :  1.66  367O :  1.65   14H :  1.64  529O :  1.63   91O :  1.63  613O :  1.62  652O :  1.60   10O :  1.57  688O :  1.56  142O :  1.56  280O :  1.56
  247O :  1.55  454O :  1.53  259O :  1.53  478O :  1.52  293H :  1.52  166O :  1.42  313O :  1.41  658O :  1.41  466O :  1.37  115O :  1.35  457O :  1.35  496O :  1.30
  637O :  1.29  472O :  1.26  223O :  1.25  655O :  1.24  406O :  1.23  298O :  1.22  685O :  1.20  126H :  1.18  205O :  1.15  610O :  1.14  679O :  1.14  640O :  1.11
  745O :  1.10  196O :  1.09  328O :  1.08  327H :  1.07   20H :  1.07  112O :  1.05  409O :  1.04   51H :  1.04  631O :  1.03  110H :  1.02  695H :  0.98  310O :  0.95
  169O :  0.95  193O :  0.94  356H :  0.91  105H :  0.90  372H :  0.86  241O :  0.86  595O :  0.84  229O :  0.84  343O :  0.83  274O :  0.82  545H :  0.81   46O :  0.79
  163O :  0.79  556O :  0.76  270H :  0.75  604O :  0.73  288H :  0.72   89H :  0.71  379O :  0.70  739O :  0.69  385O :  0.68  319O :  0.67  743H :  0.66  574O :  0.65
  634O :  0.65  665H :  0.64  494H :  0.64  691O :  0.62  646O :  0.61  485H :  0.61  721O :  0.60  698H :  0.60  173H :  0.59  534H :  0.59  162H :  0.59  696H :  0.59
  155H :  0.58  736O :  0.57  209H :  0.57  517O :  0.56  340O :  0.56  753H :  0.55   70O :  0.55  582H :  0.53  744H :  0.52  220O :  0.52  651H :  0.52   18H :  0.51
  443H :  0.51  486H :  0.51   50H :  0.50  277O :  0.50  433O :  0.49  717H :  0.49  506H :  0.48  702H :  0.48  571O :  0.47  149H :  0.47  397O :  0.46   27H :  0.46
  230H :  0.46  599H :  0.46  362H :  0.46   69H :  0.44  446H :  0.43  593H :  0.43  240H :  0.43  635H :  0.43  174H :  0.42  608H :  0.42  151O :  0.42  101H :  0.41
  326H :  0.41  667O :  0.41   54H :  0.40    3H :  0.38  414H :  0.38  705H :  0.37  585H :  0.36  305H :  0.36  245H :  0.36  357H :  0.35  587H :  0.35   63H :  0.35
  332H :  0.35   45H :  0.35   93H :  0.35  141H :  0.35  368H :  0.34   81H :  0.34  102H :  0.34  654H :  0.34   65H :  0.33  258H :  0.33  690H :  0.33  455H :  0.33
  726H :  0.32  281H :  0.32  192H :  0.32   39H :  0.32  663H :  0.31  104H :  0.31  706O :  0.31  284H :  0.31  211O :  0.31  157O :  0.31  724O :  0.30   74H :  0.30
  415O :  0.30  527H :  0.30  500H :  0.29  750H :  0.29  137H :  0.29  712O :  0.29  575H :  0.28   86H :  0.28  290H :  0.27  272H :  0.27  728H :  0.27  465H :  0.27
  516H :  0.27  282H :  0.26  255H :  0.26  448O :  0.26  473H :  0.26  365H :  0.26  555H :  0.26  108H :  0.26  228H :  0.26  129H :  0.25   62H :  0.25  470H :  0.25
  542H :  0.25  410H :  0.25  350H :  0.24  438H :  0.24   78H :  0.24  559O :  0.24  699H :  0.23  389H :  0.23  565O :  0.23  614H :  0.23  678H :  0.23  189H :  0.22
   42H :  0.22  285H :  0.22  720H :  0.22  300H :  0.21  312H :  0.21  262O :  0.21  125H :  0.21  490O :  0.21  243H :  0.21  549H :  0.20  515H :  0.20  677H :  0.20
  620H :  0.20  374H :  0.20  242H :  0.20  380H :  0.20  390H :  0.20  439O :  0.20  624H :  0.19  314H :  0.19  354H :  0.19  144H :  0.19  674H :  0.19  303H :  0.18
  131H :  0.18  419H :  0.18  152H :  0.18  476H :  0.18  396H :  0.18    9H :  0.17  353H :  0.17   99H :  0.17  119H :  0.17  145O :  0.17  642H :  0.17  511O :  0.17
  444H :  0.17  276H :  0.17  737H :  0.17  641H :  0.17   17H :  0.17  186H :  0.16   60H :  0.16  507H :  0.16  311H :  0.16  528H :  0.16  452H :  0.16   26H :  0.16
  345H :  0.15  531H :  0.15  333H :  0.15  557H :  0.15   98H :  0.15  341H :  0.15  434H :  0.15  291H :  0.15  749H :  0.15  320H :  0.15  501H :  0.15  467H :  0.14
  525H :  0.14    5H :  0.14  581H :  0.14  330H :  0.14  107H :  0.14  489H :  0.14  297H :  0.14  437H :  0.14  503H :  0.13  564H :  0.13  222H :  0.13  150H :  0.13
  323H :  0.13  740H :  0.13  344H :  0.13  308H :  0.13  732H :  0.13  236H :  0.13  377H :  0.12  612H :  0.12  177H :  0.12  266H :  0.12  153H :  0.12  579H :  0.12
  630H :  0.12  134H :  0.12   77H :  0.12  687H :  0.12  404H :  0.12  176H :  0.12   53H :  0.12  194H :  0.11  600H :  0.11  725H :  0.11  566H :  0.11  540H :  0.11
  140H :  0.11   71H :  0.11  399H :  0.11  479H :  0.11  425H :  0.11  459H :  0.11  221H :  0.11  318H :  0.10  735H :  0.10  167H :  0.10   95H :  0.10  210H :  0.10
  633H :  0.10   44H :  0.10  381H :  0.10  686H :  0.10  456H :  0.10  704H :  0.09  168H :  0.09  267H :  0.09  569H :  0.09  666H :  0.09  159H :  0.09  249H :  0.09
   23H :  0.09  594H :  0.09  524H :  0.09   96H :  0.09   36H :  0.09  201H :  0.09   87H :  0.09  336H :  0.08  596H :  0.08  623H :  0.08  371H :  0.08   92H :  0.08
  518H :  0.08  447H :  0.08  533H :  0.08  348H :  0.08  567H :  0.08  638H :  0.08  662H :  0.08  375H :  0.08  615H :  0.08  294H :  0.07  605H :  0.07  156H :  0.07
  273H :  0.07   12H :  0.07
    9 LP   *******   0.00  61.66560  47.41649  30.93865  127O : 16.74  700O : 13.80   73O : 13.03  742O : 12.42  289O : 11.83   16O : 11.78  181O : 11.36  106O : 10.83  136O : 10.02  718O :  9.83  508O :  9.60  616O :  9.14
  358O :  9.13  325O :  9.11  568O :  9.08  682O :  8.38  124O :  7.98  232O :  7.95  619O :  7.77   49O :  7.65   82O :  7.41  217O :  6.88   67O :  6.43   13O :  6.39
  445O :  6.32  751O :  6.32  703O :  6.30   40O :  6.21  463O :  6.18  709O :  6.16    4O :  6.08  154O :  6.05   34O :  6.02  148O :  5.99  697O :  5.92  286O :  5.91
  109O :  5.89  400O :  5.71  469O :  5.65  322O :  5.65   79O :  5.44  418O :  5.40  598O :  5.25  484O :  5.15  238O :  5.15  442O :  5.10  694O :  5.09  580O :  5.00
   58O :  4.92   25O :  4.88  292O :  4.86  673O :  4.84  208O :  4.72  364O :  4.72  103O :  4.62   37O :  4.57  733O :  4.53   85O :  4.52  538O :  4.48  133O :  4.47
  505O :  4.44   52O :  4.43  562O :  4.39  664O :  4.38   97O :  4.28  550O :  4.18  649O :  4.09   31O :  4.02  421O :  3.95  370O :  3.90   64O :  3.88  601O :  3.85
   22O :  3.82   19O :  3.81  271O :  3.80  301O :  3.67  526O :  3.66  376O :  3.64  625O :  3.64  607O :  3.62   76O :  3.56  577O :  3.55  430O :  3.53  514O :  3.52
   55O :  3.40  253O :  3.39  382O :  3.35  316O :  3.32  235O :  3.29  523O :  3.29  268O :  3.28  586O :  3.25  643O :  3.22  283O :  3.21  544O :  3.19    7O :  3.15
  190O :  3.12  727O :  3.11  172O :  3.04  754O :  3.02  493O :  3.00  424O :  2.99  199O :  2.98  250O :  2.97  256O :  2.96  412O :  2.95  391O :  2.94   88O :  2.88
  175O :  2.86  373O :  2.85  715O :  2.84  592O :  2.79  361O :  2.78  100O :  2.76  187O :  2.76  502O :  2.75   43O :  2.71  337O :  2.70  535O :  2.67  388O :  2.65
  244O :  2.64  184O :  2.58  541O :  2.56  628O :  2.55  226O :  2.50  499O :  2.41  334O :  2.38  661O :  2.37  427O :  2.37  139O :  2.30  583O :  2.27  403O :  2.25
  331O :  2.16  304O :  2.16  118O :  2.16  547O :  2.15  481O :  2.13  394O :  2.12  160O :  2.12  130O :  2.10  295O :  2.10  265O :  2.08  520O :  2.05  352O :  2.04
  475O :  2.01  532O :  2.01  460O :  1.97   94O :  1.96  617H :  1.94  748O :  1.93  121O :  1.86   61O :  1.85  202O :  1.84  349O :  1.84    1O :  1.82  451O :  1.79
  346O :  1.78  670O :  1.78   28O :  1.76  214O :  1.76  622O :  1.74  676O :  1.72  487O :  1.70  589O :  1.69  355O :  1.67  553O :  1.64  178O :  1.61  436O :  1.60
  307O :  1.60  730O :  1.57  367O :  1.56   14H :  1.55  529O :  1.55   91O :  1.54  613O :  1.54  652O :  1.51   10O :  1.49  688O :  1.48  142O :  1.48  280O :  1.47
  247O :  1.47  454O :  1.45  259O :  1.45  478O :  1.44  293H :  1.44  166O :  1.35  313O :  1.33  658O :  1.33  466O :  1.29  115O :  1.28  457O :  1.28  496O :  1.23
  637O :  1.22  472O :  1.19  223O :  1.19  655O :  1.17  406O :  1.16  298O :  1.16  685O :  1.14  327H :  1.12  126H :  1.12  205O :  1.09  610O :  1.08  679O :  1.08
  640O :  1.05  745O :  1.05  196O :  1.04  328O :  1.02   20H :  1.01  112O :  0.99  409O :  0.99   51H :  0.98  631O :  0.98  110H :  0.97  695H :  0.93  310O :  0.90
  169O :  0.90  193O :  0.89  356H :  0.86  105H :  0.86  372H :  0.82  241O :  0.81  595O :  0.80  229O :  0.80  343O :  0.79  274O :  0.77  545H :  0.76   46O :  0.75
  163O :  0.74  556O :  0.72  270H :  0.71  604O :  0.69  288H :  0.69   89H :  0.67  379O :  0.66  385O :  0.66  739O :  0.65  319O :  0.64  574O :  0.62  634O :  0.61
  665H :  0.61  494H :  0.60  691O :  0.58  646O :  0.58  485H :  0.58  721O :  0.57  698H :  0.56  743H :  0.56  173H :  0.56  534H :  0.56  162H :  0.56  696H :  0.56
  155H :  0.55  736O :  0.55  209H :  0.54  517O :  0.53  340O :  0.53  753H :  0.52   70O :  0.52  582H :  0.50  220O :  0.49  651H :  0.49   18H :  0.49  443H :  0.48
  486H :  0.48   50H :  0.48  277O :  0.47  433O :  0.47  717H :  0.47  506H :  0.46  702H :  0.45  571O :  0.45  149H :  0.44  744H :  0.44  326H :  0.44   27H :  0.44
  397O :  0.44  230H :  0.44  599H :  0.43  362H :  0.43   69H :  0.42  446H :  0.41  593H :  0.41  240H :  0.41  635H :  0.40  174H :  0.40  608H :  0.39  151O :  0.39
  101H :  0.39  667O :  0.38   54H :  0.38    3H :  0.36  414H :  0.36  705H :  0.35  585H :  0.34  305H :  0.34  245H :  0.34  357H :  0.34  587H :  0.33   63H :  0.33
  332H :  0.33   45H :  0.33   93H :  0.33  141H :  0.33  368H :  0.33   81H :  0.32  102H :  0.32  654H :  0.32   65H :  0.31  690H :  0.31  258H :  0.31  455H :  0.31
  726H :  0.31  281H :  0.31  192H :  0.30   39H :  0.30  663H :  0.30  104H :  0.30  706O :  0.29  284H :  0.29  211O :  0.29  157O :  0.29  724O :  0.28   74H :  0.28
[...]
   369   1 h    0.884 --   367 o    0.821
   370   8 o    1.836 --   372 h    0.871   371 h    0.844
   371   1 h    0.894 --   370 o    0.844
   372   1 h    0.901 --   370 o    0.871
   373   8 o    1.864 --   374 h    0.845   375 h    0.827
   374   1 h    0.894 --   373 o    0.845
   375   1 h    0.885 --   373 o    0.827
   376   8 o    1.867 --   378 h    0.823   377 h    0.822
   377   1 h    0.890 --   376 o    0.822
   378   1 h    0.883 --   376 o    0.823
   379   8 o    1.841 --   381 h    0.823   380 h    0.803
   380   1 h    0.882 --   379 o    0.803
   381   1 h    0.877 --   379 o    0.823
   382   8 o    1.875 --   384 h    0.822   383 h    0.810
   383   1 h    0.876 --   382 o    0.810
   384   1 h    0.893 --   382 o    0.822
   385   8 o    1.837 --   387 h    0.863   386 h    0.847
   386   1 h    0.890 --   385 o    0.847
   387   1 h    0.898 --   385 o    0.863
   388   8 o    1.891 --   389 h    0.814   390 h    0.791
   389   1 h    0.877 --   388 o    0.814
   390   1 h    0.868 --   388 o    0.791
   391   8 o    1.829 --   393 h    0.911   392 h    0.805
   392   1 h    0.883 --   391 o    0.805
   393   1 h    0.921 --   391 o    0.911
   394   8 o    1.849 --   395 h    0.874   396 h    0.857
   395   1 h    0.896 --   394 o    0.874
   396   1 h    0.897 --   394 o    0.857
   397   8 o    1.865 --   399 h    0.915   398 h    0.796
   398   1 h    0.874 --   397 o    0.796
   399   1 h    0.919 --   397 o    0.915
   400   8 o    1.881 --   402 h    0.846   401 h    0.811
   401   1 h    0.884 --   400 o    0.811
   402   1 h    0.877 --   400 o    0.846
   403   8 o    1.878 --   405 h    0.831   404 h    0.792
   404   1 h    0.872 --   403 o    0.792
   405   1 h    0.890 --   403 o    0.831
   406   8 o    1.853 --   408 h    0.914   407 h    0.792
   407   1 h    0.877 --   406 o    0.792
   408   1 h    0.919 --   406 o    0.914
   409   8 o    1.828 --   410 h    0.874   411 h    0.842
   410   1 h    0.891 --   409 o    0.874
   411   1 h    0.895 --   409 o    0.842
   412   8 o    1.873 --   414 h    0.802   413 h    0.793
   413   1 h    0.874 --   412 o    0.793
   414   1 h    0.877 --   412 o    0.802
   415   8 o    1.842 --   416 h    0.840   417 h    0.805
   416   1 h    0.899 --   415 o    0.840
   417   1 h    0.880 --   415 o    0.805
   418   8 o    1.862 --   420 h    0.840   419 h    0.824
   419   1 h    0.879 --   418 o    0.824
   420   1 h    0.891 --   418 o    0.840
   421   8 o    1.885 --   422 h    0.821   423 h    0.810
   422   1 h    0.875 --   421 o    0.821
   423   1 h    0.880 --   421 o    0.810
   424   8 o    1.815 --   425 h    0.843   426 h    0.839
   425   1 h    0.895 --   424 o    0.843
   426   1 h    0.890 --   424 o    0.839
   427   8 o    1.874 --   429 h    0.862   428 h    0.836
   428   1 h    0.884 --   427 o    0.836
   429   1 h    0.899 --   427 o    0.862
   430   8 o    1.849 --   431 h    0.870   432 h    0.831
   431   1 h    0.900 --   430 o    0.870
   432   1 h    0.888 --   430 o    0.831
   433   8 o    1.878 --   435 h    0.858   434 h    0.798
   434   1 h    0.866 --   433 o    0.798
   435   1 h    0.884 --   433 o    0.858
   436   8 o    1.835 --   438 h    0.859   437 h    0.823
   437   1 h    0.888 --   436 o    0.823
   438   1 h    0.900 --   436 o    0.859
   439   8 o    1.862 --   440 h    0.891   441 h    0.863
   440   1 h    0.902 --   439 o    0.891
   441   1 h    0.890 --   439 o    0.863
   442   8 o    1.820 --   443 h    0.842   444 h    0.836
   443   1 h    0.883 --   442 o    0.842
   444   1 h    0.893 --   442 o    0.836
   445   8 o    1.831 --   447 h    0.853   446 h    0.828
   446   1 h    0.892 --   445 o    0.828
   447   1 h    0.895 --   445 o    0.853
   448   8 o    1.841 --   450 h    0.907   449 h    0.814
   449   1 h    0.885 --   448 o    0.814
   450   1 h    0.913 --   448 o    0.907
   451   8 o    1.806 --   453 h    0.849   452 h    0.833
   452   1 h    0.890 --   451 o    0.833
   453   1 h    0.898 --   451 o    0.849
   454   8 o    1.842 --   455 h    0.840   456 h    0.828
   455   1 h    0.883 --   454 o    0.840
   456   1 h    0.886 --   454 o    0.828
   457   8 o    1.853 --   458 h    0.847   459 h    0.807
   458   1 h    0.883 --   457 o    0.847
   459   1 h    0.878 --   457 o    0.807
   460   8 o    1.865 --   461 h    0.806   462 h    0.804
   461   1 h    0.882 --   460 o    0.806
   462   1 h    0.875 --   460 o    0.804
   463   8 o    1.856 --   464 h    0.825   465 h    0.823
   464   1 h    0.889 --   463 o    0.825
   465   1 h    0.882 --   463 o    0.823
   466   8 o    1.869 --   468 h    0.835   467 h    0.823
   467   1 h    0.887 --   466 o    0.823
   468   1 h    0.892 --   466 o    0.835
   469   8 o    1.854 --   470 h    0.854   471 h    0.813
   470   1 h    0.893 --   469 o    0.854
   471   1 h    0.878 --   469 o    0.813
   472   8 o    1.819 --   474 h    0.882   473 h    0.872
   473   1 h    0.894 --   472 o    0.872
   474   1 h    0.903 --   472 o    0.882
   475   8 o    1.857 --   476 h    0.813   477 h    0.791
   476   1 h    0.883 --   475 o    0.813
   477   1 h    0.877 --   475 o    0.791
   478   8 o    1.880 --   480 h    0.872   479 h    0.771
   479   1 h    0.866 --   478 o    0.771
   480   1 h    0.898 --   478 o    0.872
   481   8 o    1.860 --   483 h    0.861   482 h    0.828
   482   1 h    0.885 --   481 o    0.828
   483   1 h    0.887 --   481 o    0.861
   484   8 o    1.838 --   485 h    0.859   486 h    0.831
   485   1 h    0.897 --   484 o    0.859
   486   1 h    0.887 --   484 o    0.831
   487   8 o    1.848 --   489 h    0.858   488 h    0.833
   488   1 h    0.888 --   487 o    0.833
   489   1 h    0.898 --   487 o    0.858
   490   8 o    1.827 --   491 h    0.865   492 h    0.826
   491   1 h    0.897 --   490 o    0.865
   492   1 h    0.886 --   490 o    0.826
   493   8 o    1.859 --   495 h    0.863   494 h    0.827
   494   1 h    0.875 --   493 o    0.827
   495   1 h    0.894 --   493 o    0.863
   496   8 o    1.856 --   498 h    0.914   497 h    0.831
   497   1 h    0.883 --   496 o    0.831
   498   1 h    0.919 --   496 o    0.914
   499   8 o    1.847 --   501 h    0.864   500 h    0.819
   500   1 h    0.877 --   499 o    0.819
   501   1 h    0.892 --   499 o    0.864
   502   8 o    1.862 --   503 h    0.839   504 h    0.815
   503   1 h    0.893 --   502 o    0.839
   504   1 h    0.887 --   502 o    0.815
   505   8 o    1.832 --   506 h    0.844   507 h    0.831
   506   1 h    0.894 --   505 o    0.844
   507   1 h    0.893 --   505 o    0.831
   508   8 o    1.845 --   510 h    0.816   509 h    0.788
   509   1 h    0.876 --   508 o    0.788
   510   1 h    0.882 --   508 o    0.816
   511   8 o    1.842 --   512 h    0.858   513 h    0.813
   512   1 h    0.898 --   511 o    0.858
   513   1 h    0.889 --   511 o    0.813
   514   8 o    1.874 --   515 h    0.821   516 h    0.792
   515   1 h    0.891 --   514 o    0.821
   516   1 h    0.874 --   514 o    0.792
   517   8 o    1.848 --   519 h    0.877   518 h    0.807
   518   1 h    0.878 --   517 o    0.807
   519   1 h    0.901 --   517 o    0.877
   520   8 o    1.870 --   522 h    0.869   521 h    0.839
   521   1 h    0.890 --   520 o    0.839
   522   1 h    0.898 --   520 o    0.869
   523   8 o    1.865 --   524 h    0.893   525 h    0.824
   524   1 h    0.906 --   523 o    0.893
   525   1 h    0.876 --   523 o    0.824
   526   8 o    1.852 --   527 h    0.843   528 h    0.817
   527   1 h    0.889 --   526 o    0.843
   528   1 h    0.879 --   526 o    0.817
   529   8 o    1.843 --   530 h    0.835   531 h    0.807
   530   1 h    0.897 --   529 o    0.835
   531   1 h    0.877 --   529 o    0.807
   532   8 o    1.874 --   534 h    0.828   533 h    0.821
   533   1 h    0.880 --   532 o    0.821
   534   1 h    0.883 --   532 o    0.828
   535   8 o    1.866 --   536 h    0.862   537 h    0.816
   536   1 h    0.893 --   535 o    0.862
   537   1 h    0.886 --   535 o    0.816
   538   8 o    1.844 --   540 h    0.886   539 h    0.871
   539   1 h    0.897 --   538 o    0.871
   540   1 h    0.903 --   538 o    0.886
   541   8 o    1.851 --   542 h    0.856   543 h    0.844
   542   1 h    0.897 --   541 o    0.856
   543   1 h    0.890 --   541 o    0.844
   544   8 o    1.866 --   545 h    0.823   546 h    0.818
   545   1 h    0.892 --   544 o    0.823
   546   1 h    0.889 --   544 o    0.818
   547   8 o    1.857 --   548 h    0.826   549 h    0.793
   548   1 h    0.888 --   547 o    0.826
   549   1 h    0.874 --   547 o    0.793
   550   8 o    1.823 --   552 h    0.827   551 h    0.809
   551   1 h    0.888 --   550 o    0.809
   552   1 h    0.886 --   550 o    0.827
   553   8 o    1.851 --   554 h    0.908   555 h    0.833
   554   1 h    0.916 --   553 o    0.908
   555   1 h    0.880 --   553 o    0.833
   556   8 o    1.863 --   557 h    0.858   558 h    0.799
   557   1 h    0.897 --   556 o    0.858
   558   1 h    0.886 --   556 o    0.799
   559   8 o    1.866 --   561 h    0.884   560 h    0.807
   560   1 h    0.869 --   559 o    0.807
   561   1 h    0.903 --   559 o    0.884
   562   8 o    1.861 --   564 h    0.810   563 h    0.805
   563   1 h    0.884 --   562 o    0.805
   564   1 h    0.871 --   562 o    0.810
   565   8 o    1.825 --   566 h    0.870   567 h    0.835
   566   1 h    0.899 --   565 o    0.870
   567   1 h    0.885 --   565 o    0.835
   568   8 o    1.861 --   569 h    0.832   570 h    0.777
   569   1 h    0.891 --   568 o    0.832
   570   1 h    0.872 --   568 o    0.777
   571   8 o    1.878 --   573 h    0.853   572 h    0.806
   572   1 h    0.876 --   571 o    0.806
   573   1 h    0.892 --   571 o    0.853
   574   8 o    1.877 --   575 h    0.836   576 h    0.786
   575   1 h    0.884 --   574 o    0.836
   576   1 h    0.875 --   574 o    0.786
   577   8 o    1.831 --   579 h    0.841   578 h    0.828
   578   1 h    0.891 --   577 o    0.828
   579   1 h    0.890 --   577 o    0.841
   580   8 o    1.820 --   581 h    0.866   582 h    0.828
   581   1 h    0.900 --   580 o    0.866
   582   1 h    0.893 --   580 o    0.828
   583   8 o    1.836 --   584 h    0.835   585 h    0.819
   584   1 h    0.888 --   583 o    0.835
   585   1 h    0.886 --   583 o    0.819
   586   8 o    1.844 --   588 h    0.848   587 h    0.810
   587   1 h    0.875 --   586 o    0.810
   588   1 h    0.896 --   586 o    0.848
   589   8 o    1.875 --   590 h    0.813   591 h    0.812
   590   1 h    0.871 --   589 o    0.813
   591   1 h    0.886 --   589 o    0.812
   592   8 o    1.838 --   593 h    0.807   594 h    0.802
   593   1 h    0.889 --   592 o    0.807
   594   1 h    0.890 --   592 o    0.802
   595   8 o    1.857 --   597 h    0.914   596 h    0.821
   596   1 h    0.883 --   595 o    0.821
   597   1 h    0.918 --   595 o    0.914
   598   8 o    1.865 --   600 h    0.891   599 h    0.780
   599   1 h    0.868 --   598 o    0.780
   600   1 h    0.907 --   598 o    0.891
   601   8 o    1.834 --   603 h    0.904   602 h    0.835
   602   1 h    0.887 --   601 o    0.835
   603   1 h    0.911 --   601 o    0.904
   604   8 o    1.841 --   605 h    0.878   606 h    0.834
   605   1 h    0.901 --   604 o    0.878
   606   1 h    0.888 --   604 o    0.834
   607   8 o    1.839 --   609 h    0.851   608 h    0.832
   608   1 h    0.884 --   607 o    0.832
   609   1 h    0.894 --   607 o    0.851
   610   8 o    1.836 --   611 h    0.873   612 h    0.850
   611   1 h    0.902 --   610 o    0.873
   612   1 h    0.895 --   610 o    0.850
   613   8 o    1.847 --   615 h    0.872   614 h    0.858
   614   1 h    0.892 --   613 o    0.858
   615   1 h    0.897 --   613 o    0.872
   616   8 o    1.832 --   617 h    0.888   618 h    0.867
   617   1 h    0.903 --   616 o    0.888
   618   1 h    0.894 --   616 o    0.867
   619   8 o    1.848 --   620 h    0.881   621 h    0.823
   620   1 h    0.900 --   619 o    0.881
   621   1 h    0.883 --   619 o    0.823
   622   8 o    1.863 --   624 h    0.838   623 h    0.832
   623   1 h    0.886 --   622 o    0.832
   624   1 h    0.887 --   622 o    0.838
   625   8 o    1.857 --   626 h    0.866   627 h    0.861
   626   1 h    0.894 --   625 o    0.866
   627   1 h    0.899 --   625 o    0.861
   628   8 o    1.878 --   629 h    0.816   630 h    0.814
   629   1 h    0.881 --   628 o    0.816
   630   1 h    0.879 --   628 o    0.814
   631   8 o    1.876 --   633 h    0.808   632 h    0.799
   632   1 h    0.871 --   631 o    0.799
   633   1 h    0.876 --   631 o    0.808
   634   8 o    1.846 --   636 h    0.865   635 h    0.854
   635   1 h    0.894 --   634 o    0.854
   636   1 h    0.899 --   634 o    0.865
   637   8 o    1.858 --   639 h    0.877   638 h    0.810
   638   1 h    0.885 --   637 o    0.810
   639   1 h    0.902 --   637 o    0.877
   640   8 o    1.861 --   641 h    0.854   642 h    0.824
   641   1 h    0.899 --   640 o    0.854
   642   1 h    0.881 --   640 o    0.824
   643   8 o    1.868 --   645 h    0.838   644 h    0.836
   644   1 h    0.889 --   643 o    0.836
   645   1 h    0.890 --   643 o    0.838
   646   8 o    1.870 --   647 h    0.862   648 h    0.794
   647   1 h    0.902 --   646 o    0.862
   648   1 h    0.876 --   646 o    0.794
   649   8 o    1.849 --   651 h    0.835   650 h    0.816
   650   1 h    0.882 --   649 o    0.816
   651   1 h    0.896 --   649 o    0.835
   652   8 o    1.846 --   654 h    0.852   653 h    0.824
   653   1 h    0.893 --   652 o    0.824
   654   1 h    0.894 --   652 o    0.852
   655   8 o    1.878 --   657 h    0.834   656 h    0.825
   656   1 h    0.878 --   655 o    0.825
   657   1 h    0.870 --   655 o    0.834
   658   8 o    1.866 --   659 h    0.823   660 h    0.814
   659   1 h    0.876 --   658 o    0.823
   660   1 h    0.891 --   658 o    0.814
   661   8 o    1.851 --   662 h    0.855   663 h    0.802
   662   1 h    0.888 --   661 o    0.855
   663   1 h    0.888 --   661 o    0.802
   664   8 o    1.866 --   666 h    0.914   665 h    0.767
   665   1 h    0.868 --   664 o    0.767
   666   1 h    0.920 --   664 o    0.914
   667   8 o    1.841 --   668 h    0.850   669 h    0.843
   668   1 h    0.892 --   667 o    0.850
   669   1 h    0.896 --   667 o    0.843
   670   8 o    1.872 --   672 h    0.846   671 h    0.784
   671   1 h    0.873 --   670 o    0.784
   672   1 h    0.884 --   670 o    0.846
   673   8 o    1.883 --   674 h    0.824   675 h    0.788
   674   1 h    0.886 --   673 o    0.824
   675   1 h    0.873 --   673 o    0.788
   676   8 o    1.842 --   677 h    0.832   678 h    0.798
   677   1 h    0.893 --   676 o    0.832
   678   1 h    0.888 --   676 o    0.798
   679   8 o    1.848 --   680 h    0.861   681 h    0.827
   680   1 h    0.892 --   679 o    0.861
   681   1 h    0.888 --   679 o    0.827
   682   8 o    1.865 --   684 h    0.827   683 h    0.811
   683   1 h    0.886 --   682 o    0.811
   684   1 h    0.877 --   682 o    0.827
   685   8 o    1.874 --   687 h    0.839   686 h    0.802
   686   1 h    0.887 --   685 o    0.802
   687   1 h    0.883 --   685 o    0.839
   688   8 o    1.844 --   689 h    0.826   690 h    0.802
   689   1 h    0.887 --   688 o    0.826
   690   1 h    0.884 --   688 o    0.802
   691   8 o    1.859 --   693 h    0.866   692 h    0.798
   692   1 h    0.875 --   691 o    0.798
   693   1 h    0.897 --   691 o    0.866
   694   8 o    1.824 --   695 h    0.876   696 h    0.823
   695   1 h    0.902 --   694 o    0.876
   696   1 h    0.890 --   694 o    0.823
   697   8 o    1.838 --   698 h    0.857   699 h    0.820
   698   1 h    0.896 --   697 o    0.857
   699   1 h    0.878 --   697 o    0.820
   700   8 o    1.821 --   702 h    0.884   701 h    0.811
   701   1 h    0.878 --   700 o    0.811
   702   1 h    0.906 --   700 o    0.884
   703   8 o    1.851 --   704 h    0.833   705 h    0.823
   704   1 h    0.877 --   703 o    0.833
   705   1 h    0.884 --   703 o    0.823
   706   8 o    1.845 --   707 h    0.830   708 h    0.820
   707   1 h    0.882 --   706 o    0.830
   708   1 h    0.881 --   706 o    0.820
   709   8 o    1.855 --   710 h    0.838   711 h    0.818
   710   1 h    0.890 --   709 o    0.838
   711   1 h    0.885 --   709 o    0.818
   712   8 o    1.846 --   714 h    0.895   713 h    0.766
   713   1 h    0.870 --   712 o    0.766
   714   1 h    0.910 --   712 o    0.895
   715   8 o    1.843 --   717 h    0.875   716 h    0.854
   716   1 h    0.889 --   715 o    0.854
   717   1 h    0.900 --   715 o    0.875
   718   8 o    1.839 --   720 h    0.826   719 h    0.803
   719   1 h    0.882 --   718 o    0.803
   720   1 h    0.893 --   718 o    0.826
   721   8 o    1.864 --   722 h    0.906   723 h    0.797
   722   1 h    0.911 --   721 o    0.906
   723   1 h    0.873 --   721 o    0.797
   724   8 o    1.850 --   725 h    0.840   726 h    0.839
   725   1 h    0.891 --   724 o    0.840
   726   1 h    0.895 --   724 o    0.839
   727   8 o    1.815 --   728 h    0.865   729 h    0.838
   728   1 h    0.892 --   727 o    0.865
   729   1 h    0.892 --   727 o    0.838
   730   8 o    1.843 --   731 h    0.832   732 h    0.779
   731   1 h    0.890 --   730 o    0.832
   732   1 h    0.876 --   730 o    0.779
   733   8 o    1.860 --   735 h    0.831   734 h    0.815
   734   1 h    0.884 --   733 o    0.815
   735   1 h    0.894 --   733 o    0.831
   736   8 o    1.862 --   738 h    0.890   737 h    0.847
   737   1 h    0.887 --   736 o    0.847
   738   1 h    0.904 --   736 o    0.890
   739   8 o    1.855 --   740 h    0.862   741 h    0.831
   740   1 h    0.900 --   739 o    0.862
   741   1 h    0.886 --   739 o    0.831
   742   8 o    1.861 --   744 h    0.857   743 h    0.852
   743   1 h    0.888 --   742 o    0.852
   744   1 h    0.892 --   742 o    0.857
   745   8 o    1.849 --   747 h    0.847   746 h    0.824
   746   1 h    0.884 --   745 o    0.824
   747   1 h    0.889 --   745 o    0.847
   748   8 o    1.850 --   750 h    0.825   749 h    0.769
   749   1 h    0.873 --   748 o    0.769
   750   1 h    0.884 --   748 o    0.825
   751   8 o    1.808 --   752 h    0.873   753 h    0.857
   752   1 h    0.888 --   751 o    0.873
   753   1 h    0.884 --   751 o    0.857
   754   8 o    1.790 --   755 h    0.873   756 h    0.855
   755   1 h    0.898 --   754 o    0.873
   756   1 h    0.896 --   754 o    0.855
 ---------------------------------------------------------------------------

Topologies differ in total number of bonds
Writing topology from bond orders to xtbtopo.mol

molecular dipole:
                 x           y           z       tot (Debye)
 q only:        3.992       3.762      -0.392
   full:        4.903       3.936      -0.436      16.019
molecular quadrupole (traceless):
                xx          xy          yy          xz          yz          zz
 q only:      183.014     -30.571     -93.848      26.683      -9.336     -89.166
  q+dip:      252.071     -23.867    -129.837      36.540      -6.681    -122.234
   full:      255.175     -23.619    -131.501      37.055      -6.049    -123.674


           -------------------------------------------------
          | TOTAL ENERGY            -1283.306115032314 Eh   |
          | GRADIENT NORM               0.103525544834 Eh/α |
          | HOMO-LUMO GAP               5.637179277874 eV   |
           -------------------------------------------------

------------------------------------------------------------------------
 * finished run on 2022/11/24 at 12:22:37.835     
------------------------------------------------------------------------
 total:
 * wall-time:     0 d,  0 h,  0 min, 57.003 sec
 *  cpu-time:     0 d,  0 h,  1 min, 13.686 sec
 * ratio c/w:     1.293 speedup
 SCF:
 * wall-time:     0 d,  0 h,  0 min, 55.947 sec
 *  cpu-time:     0 d,  0 h,  1 min, 11.934 sec
 * ratio c/w:     1.286 speedup

