      -----------------------------------------------------------      
     |                   =====================                   |     
     |                           x T B                           |     
     |                   =====================                   |     
     |                         S. Grimme                         |     
     |          Mulliken Center for Theoretical Chemistry        |     
     |                    University of Bonn                     |     
      -----------------------------------------------------------      

   * xtb version 6.5.1 (579679a) compiled by 'ehlert@majestix' on 2022-07-11

   xtb is free software: you can redistribute it and/or modify it under
   the terms of the GNU Lesser General Public License as published by
   the Free Software Foundation, either version 3 of the License, or
   (at your option) any later version.
   
   xtb is distributed in the hope that it will be useful,
   but WITHOUT ANY WARRANTY; without even the implied warranty of
   MERCHANTABILITY or FITNESS FOR A PARTICULAR PURPOSE.  See the
   GNU Lesser General Public License for more details.
   
   Cite this work as:
   * C. Bannwarth, E. Caldeweyher, S. Ehlert, A. Hansen, P. Pracht,
     J. Seibert, S. Spicher, S. Grimme, WIREs Comput. Mol. Sci., 2020, 11,
     e01493. DOI: 10.1002/wcms.1493
   
   for GFN2-xTB:
   * C. Bannwarth, S. Ehlert and S. Grimme., J. Chem. Theory Comput., 2019,
     15, 1652-1671. DOI: 10.1021/acs.jctc.8b01176
   for GFN1-xTB:
   * S. Grimme, C. Bannwarth, P. Shushkov, J. Chem. Theory Comput., 2017,
     13, 1989-2009. DOI: 10.1021/acs.jctc.7b00118
   for GFN0-xTB:
   * P. Pracht, E. Caldeweyher, S. Ehlert, S. Grimme, ChemRxiv, 2019, preprint.
     DOI: 10.26434/chemrxiv.8326202.v1
   for GFN-FF:
   * S. Spicher and S. Grimme, Angew. Chem. Int. Ed., 2020, 59, 15665-15673.
     DOI: 10.1002/anie.202004239
   
   for ALPB and GBSA implicit solvation:
   * S. Ehlert, M. Stahn, S. Spicher, S. Grimme, J. Chem. Theory Comput.,
     2021, 17, 4250-4261. DOI: 10.1021/acs.jctc.1c00471
   
   for DFT-D4:
   * E. Caldeweyher, C. Bannwarth and S. Grimme, J. Chem. Phys., 2017,
     147, 034112. DOI: 10.1063/1.4993215
   * E. Caldeweyher, S. Ehlert, A. Hansen, H. Neugebauer, S. Spicher,
     C. Bannwarth and S. Grimme, J. Chem. Phys., 2019, 150, 154122.
     DOI: 10.1063/1.5090222
   * E. Caldeweyher, J.-M. Mewes, S. Ehlert and S. Grimme, Phys. Chem. Chem. Phys.
     2020, 22, 8499-8512. DOI: 10.1039/D0CP00502A
   
   for sTDA-xTB:
   * S. Grimme and C. Bannwarth, J. Chem. Phys., 2016, 145, 054103.
     DOI: 10.1063/1.4959605
   
   in the mass-spec context:
   * V. Asgeirsson, C. Bauer and S. Grimme, Chem. Sci., 2017, 8, 4879.
     DOI: 10.1039/c7sc00601b
   * J. Koopman and S. Grimme, ACS Omega 2019, 4, 12, 15120-15133.
     DOI: 10.1021/acsomega.9b02011
   
   for metadynamics refer to:
   * S. Grimme, J. Chem. Theory Comput., 2019, 155, 2847-2862
     DOI: 10.1021/acs.jctc.9b00143
   
   for SPH calculations refer to:
   * S. Spicher and S. Grimme, J. Chem. Theory Comput., 2021, 17, 1701-1714
     DOI: 10.1021/acs.jctc.0c01306
   
   with help from (in alphabetical order)
   P. Atkinson, C. Bannwarth, F. Bohle, G. Brandenburg, E. Caldeweyher
   M. Checinski, S. Dohm, S. Ehlert, S. Ehrlich, I. Gerasimov, C. Hölzer
   A. Katbashev, J. Koopman, C. Lavigne, S. Lehtola, F. März, M. Müller,
   F. Musil, H. Neugebauer, J. Pisarek, C. Plett, P. Pracht, F. Pultar,
   J. Seibert, P. Shushkov, S. Spicher, M. Stahn, M. Steiner, T. Strunk,
   J. Stückrath, T. Rose, and J. Unsleber
   
 * started run on 2022/11/24 at 12:21:16.684     

           -------------------------------------------------
          |                Calculation Setup                |
           -------------------------------------------------

          program call               : xtb xtbopt.coord --gfn2 --sp --gbsa water
          hostname                   : cn0430
          coordinate file            : xtbopt.coord
          omp threads                :                     2

   ID    Z sym.   atoms
    1    8 o      1, 4, 7, 10, 13, 16, 19, 22, 25, 28, 31, 34, 37, 40, 43,
                  46, 49, 52, 55, 58, 61, 64, 67, 70, 73, 76, 79, 82, 85, 88,
                  91, 94, 97, 100, 103, 106, 109, 112, 115, 118, 121, 124,
                  127, 130, 133, 136, 139, 142, 145, 148, 151, 154, 157, 160,
                  163, 166, 169, 172, 175, 178, 181, 184, 187, 190, 193, 196,
                  199, 202, 205, 208, 211, 214, 217, 220, 223, 226, 229, 232,
                  235, 238, 241, 244, 247, 250, 253, 256, 259, 262, 265, 268,
                  271, 274, 277, 280, 283, 286, 289, 292, 295, 298, 301, 304,
                  307, 310, 313, 316, 319, 322, 325, 328, 331, 334, 337, 340,
                  343, 346, 349, 352, 355, 358, 361, 364, 367, 370, 373, 376,
                  379, 382, 385, 388, 391, 394, 397, 400, 403, 406, 409, 412,
                  415, 418, 421, 424, 427, 430, 433, 436, 439, 442, 445, 448,
                  451, 454, 457, 460, 463, 466, 469, 472, 475, 478, 481, 484,
                  487, 490, 493, 496, 499, 502, 505, 508, 511, 514, 517, 520,
                  523, 526, 529, 532, 535, 538, 541, 544, 547, 550, 553, 556,
                  559, 562, 565, 568, 571, 574, 577, 580, 583, 586, 589, 592,
                  595, 598, 601, 604, 607, 610, 613, 616, 619, 622, 625, 628,
                  631, 634, 637, 640, 643, 646, 649, 652, 655, 658, 661, 664,
                  667, 670, 673, 676, 679, 682, 685, 688, 691, 694, 697, 700,
                  703, 706, 709, 712, 715, 718, 721, 724, 727, 730, 733, 736,
                  739, 742, 745, 748, 751, 754
    2    1 h      2, 3, 5, 6, 8, 9, 11, 12, 14, 15, 17, 18, 20, 21, 23, 24,
                  26, 27, 29, 30, 32, 33, 35, 36, 38, 39, 41, 42, 44, 45, 47,
                  48, 50, 51, 53, 54, 56, 57, 59, 60, 62, 63, 65, 66, 68, 69,
                  71, 72, 74, 75, 77, 78, 80, 81, 83, 84, 86, 87, 89, 90, 92,
                  93, 95, 96, 98, 99, 101, 102, 104, 105, 107, 108, 110, 111,
                  113, 114, 116, 117, 119, 120, 122, 123, 125, 126, 128, 129,
                  131, 132, 134, 135, 137, 138, 140, 141, 143, 144, 146, 147,
                  149, 150, 152, 153, 155, 156, 158, 159, 161, 162, 164, 165,
                  167, 168, 170, 171, 173, 174, 176, 177, 179, 180, 182, 183,
                  185, 186, 188, 189, 191, 192, 194, 195, 197, 198, 200, 201,
                  203, 204, 206, 207, 209, 210, 212, 213, 215, 216, 218, 219,
                  221, 222, 224, 225, 227, 228, 230, 231, 233, 234, 236, 237,
                  239, 240, 242, 243, 245, 246, 248, 249, 251, 252, 254, 255,
                  257, 258, 260, 261, 263, 264, 266, 267, 269, 270, 272, 273,
                  275, 276, 278, 279, 281, 282, 284, 285, 287, 288, 290, 291,
                  293, 294, 296, 297, 299, 300, 302, 303, 305, 306, 308, 309,
                  311, 312, 314, 315, 317, 318, 320, 321, 323, 324, 326, 327,
                  329, 330, 332, 333, 335, 336, 338, 339, 341, 342, 344, 345,
                  347, 348, 350, 351, 353, 354, 356, 357, 359, 360, 362, 363,
                  365, 366, 368, 369, 371, 372, 374, 375, 377, 378, 380, 381,
                  383, 384, 386, 387, 389, 390, 392, 393, 395, 396, 398, 399,
                  401, 402, 404, 405, 407, 408, 410, 411, 413, 414, 416, 417,
                  419, 420, 422, 423, 425, 426, 428, 429, 431, 432, 434, 435,
                  437, 438, 440, 441, 443, 444, 446, 447, 449, 450, 452, 453,
                  455, 456, 458, 459, 461, 462, 464, 465, 467, 468, 470, 471,
                  473, 474, 476, 477, 479, 480, 482, 483, 485, 486, 488, 489,
                  491, 492, 494, 495, 497, 498, 500, 501, 503, 504, 506, 507,
                  509, 510, 512, 513, 515, 516, 518, 519, 521, 522, 524, 525,
                  527, 528, 530, 531, 533, 534, 536, 537, 539, 540, 542, 543,
                  545, 546, 548, 549, 551, 552, 554, 555, 557, 558, 560, 561,
                  563, 564, 566, 567, 569, 570, 572, 573, 575, 576, 578, 579,
                  581, 582, 584, 585, 587, 588, 590, 591, 593, 594, 596, 597,
                  599, 600, 602, 603, 605, 606, 608, 609, 611, 612, 614, 615,
                  617, 618, 620, 621, 623, 624, 626, 627, 629, 630, 632, 633,
                  635, 636, 638, 639, 641, 642, 644, 645, 647, 648, 650, 651,
                  653, 654, 656, 657, 659, 660, 662, 663, 665, 666, 668, 669,
                  671, 672, 674, 675, 677, 678, 680, 681, 683, 684, 686, 687,
                  689, 690, 692, 693, 695, 696, 698, 699, 701, 702, 704, 705,
                  707, 708, 710, 711, 713, 714, 716, 717, 719, 720, 722, 723,
                  725, 726, 728, 729, 731, 732, 734, 735, 737, 738, 740, 741,
                  743, 744, 746, 747, 749, 750, 752, 753, 755, 756

molecular fragmentation (1/2 indicates fragments):
111222222222222222222222222222222222222222222222222222222222222222222222
222222222222222222222222222222222222222222222222222222222222222222222222
222222222222222222222222222222222222222222222222222222222222222222222222
222222222222222222222222222222222222222222222222222222222222222222222222
222222222222222222222222222222222222222222222222222222222222222222222222
222222222222222222222222222222222222222222222222222222222222222222222222
222222222222222222222222222222222222222222222222222222222222222222222222
222222222222222222222222222222222222222222222222222222222222222222222222
222222222222222222222222222222222222222222222222222222222222222222222222
222222222222222222222222222222222222222222222222222222222222222222222222
222222222222222222222222222222222222
# atoms in fragment 1/2:     3   753
 fragment masses (1/2) :       18.02     4521.84
CMA distance (Bohr)    :  18.300
constraining FC (au)   :  0.0500

           -------------------------------------------------
          |                 G F N 2 - x T B                 |
           -------------------------------------------------

        Reference                      10.1021/acs.jctc.8b01176
      * Hamiltonian:
        H0-scaling (s, p, d)           1.850000    2.230000    2.230000
        zeta-weighting                 0.500000
      * Dispersion:
        s8                             2.700000
        a1                             0.520000
        a2                             5.000000
        s9                             5.000000
      * Repulsion:
        kExp                           1.500000    1.000000
        rExp                           1.000000
      * Coulomb:
        alpha                          2.000000
        third order                    shell-resolved
        anisotropic                    true
        a3                             3.000000
        a5                             4.000000
        cn-shift                       1.200000
        cn-exp                         4.000000
        max-rad                        5.000000

      * Solvation model:               GBSA
        Solvent                        water
        Parameter file                 internal GFN2-xTB/GBSA
        Dielectric constant                8.0200E+01
        Reference state                gsolv [1 M gas/solution]
        Free energy shift                  1.8574E-03 Eh       1.1656E+00 kcal/mol
        Temperature                        2.9815E+02 K
        Density                            1.0000E+00 kg/L
        Solvent mass                       1.8000E+01 g/mol
        Interaction kernel             Still
        Born radius scaling (c1)           1.5524E+00
        Born radii integrator          GBOBC
        Born offset                        2.4628E-02 a0       4.6540E-02 AA
        H-bond correction              true
        Ion screening                  false
        Surface tension                    1.0000E-05 Eh       1.5569E+01 dyn/cm
        Grid points                               230 per atom

          ...................................................
          :                      SETUP                      :
          :.................................................:
          :  # basis functions                1512          :
          :  # atomic orbitals                1512          :
          :  # shells                         1008          :
          :  # electrons                      2016          :
          :  max. iterations                   250          :
          :  Hamiltonian                  GFN2-xTB          :
          :  restarted?                      false          :
          :  GBSA solvation                   true          :
          :  PC potential                    false          :
          :  electronic temp.          300.0000000     K    :
          :  accuracy                    1.0000000          :
          :  -> integral cutoff          0.2500000E+02      :
          :  -> integral neglect         0.1000000E-07      :
          :  -> SCF convergence          0.1000000E-05 Eh   :
          :  -> wf. convergence          0.1000000E-03 e    :
          :  Broyden damping             0.4000000          :
          ...................................................

 iter      E             dE          RMSdq      gap      omega  full diag
   1  -1291.2225806 -0.129122E+04  0.408E+00    8.43       0.0  T
   2  -1291.3072970 -0.847164E-01  0.242E+00    7.91       1.0  T
   3  -1291.3427354 -0.354384E-01  0.225E-01    6.57       1.0  T
   4  -1291.3482555 -0.552014E-02  0.478E-02    6.88       1.0  T
   5  -1291.3484109 -0.155338E-03  0.307E-02    6.81       1.0  T
   6  -1291.3484558 -0.449074E-04  0.376E-03    6.82       1.0  T
   7  -1291.3484575 -0.168300E-05  0.859E-04    6.82       4.2  T
   8  -1291.3484575 -0.686009E-07  0.453E-04    6.82       8.0  T
   9  -1291.3484576 -0.306536E-07  0.112E-04    6.82      32.6  T

   *** convergence criteria satisfied after 9 iterations ***

         #    Occupation            Energy/Eh            Energy/eV
      -------------------------------------------------------------
         1        2.0000           -0.6626845             -18.0326
       ...           ...                  ...                  ...
      1002        2.0000           -0.3376369              -9.1876
      1003        2.0000           -0.3365957              -9.1592
      1004        2.0000           -0.3347078              -9.1079
      1005        2.0000           -0.3336356              -9.0787
      1006        2.0000           -0.3309099              -9.0045
      1007        2.0000           -0.3216628              -8.7529
      1008        2.0000           -0.3034145              -8.2563 (HOMO)
      1009                         -0.0527366              -1.4350 (LUMO)
      1010                         -0.0459973              -1.2517
      1011                         -0.0362673              -0.9869
      1012                         -0.0314206              -0.8550
      1013                         -0.0278820              -0.7587
       ...                                ...                  ...
      1512                          0.4912577              13.3678
      -------------------------------------------------------------
                  HL-Gap            0.2506779 Eh            6.8213 eV
             Fermi-level           -0.1780755 Eh           -4.8457 eV

 SCC (total)                   0 d,  0 h,  0 min, 19.928 sec
 SCC setup                      ...        0 min,  0.117 sec (  0.589%)
 Dispersion                     ...        0 min,  0.110 sec (  0.550%)
 classical contributions        ...        0 min,  0.023 sec (  0.117%)
 integral evaluation            ...        0 min,  0.612 sec (  3.071%)
 iterations                     ...        0 min,  6.528 sec ( 32.758%)
 molecular gradient             ...        0 min, 12.473 sec ( 62.589%)
 printout                       ...        0 min,  0.065 sec (  0.326%)

         :::::::::::::::::::::::::::::::::::::::::::::::::::::
         ::                     SUMMARY                     ::
         :::::::::::::::::::::::::::::::::::::::::::::::::::::
         :: total energy           -1283.561423684040 Eh    ::
         :: total w/o Gsasa/hb     -1283.326929123531 Eh    ::
         :: gradient norm              0.121681567627 Eh/a0 ::
         :: HOMO-LUMO gap              6.821292758483 eV    ::
         ::.................................................::
         :: SCC energy             -1291.348457552745 Eh    ::
         :: -> isotropic ES            7.362461376486 Eh    ::
         :: -> anisotropic ES         -1.637561235594 Eh    ::
         :: -> anisotropic XC         -0.119567069862 Eh    ::
         :: -> dispersion             -0.793781260431 Eh    ::
         :: -> Gsolv                  -0.272623444159 Eh    ::
         ::    -> Gelec               -0.038128883651 Eh    ::
         ::    -> Gsasa                0.006003827810 Eh    ::
         ::    -> Ghb                 -0.242355831445 Eh    ::
         ::    -> Gshift               0.001857443127 Eh    ::
         :: repulsion energy           7.632393823948 Eh    ::
         :: add. restraining           0.000000000000 Eh    ::
         :: total charge              -0.000000000000 e     ::
         :::::::::::::::::::::::::::::::::::::::::::::::::::::

           -------------------------------------------------
          |                Property Printout                |
           -------------------------------------------------

    * Orbital Energies and Occupations

         #    Occupation            Energy/Eh            Energy/eV
      -------------------------------------------------------------
         1        2.0000           -0.6626845             -18.0326
       ...           ...                  ...                  ...
       996        2.0000           -0.3467219              -9.4348
       997        2.0000           -0.3449885              -9.3876
       998        2.0000           -0.3446991              -9.3797
       999        2.0000           -0.3434875              -9.3468
      1000        2.0000           -0.3416178              -9.2959
      1001        2.0000           -0.3384650              -9.2101
      1002        2.0000           -0.3376369              -9.1876
      1003        2.0000           -0.3365957              -9.1592
      1004        2.0000           -0.3347078              -9.1079
      1005        2.0000           -0.3336356              -9.0787
      1006        2.0000           -0.3309099              -9.0045
      1007        2.0000           -0.3216628              -8.7529
      1008        2.0000           -0.3034145              -8.2563 (HOMO)
      1009                         -0.0527366              -1.4350 (LUMO)
      1010                         -0.0459973              -1.2517
      1011                         -0.0362673              -0.9869
      1012                         -0.0314206              -0.8550
      1013                         -0.0278820              -0.7587
      1014                         -0.0210048              -0.5716
      1015                         -0.0184927              -0.5032
      1016                         -0.0110576              -0.3009
      1017                         -0.0098278              -0.2674
      1018                         -0.0058408              -0.1589
      1019                          0.0000793               0.0022
       ...                                ...                  ...
      1512                          0.4912577              13.3678
      -------------------------------------------------------------
                  HL-Gap            0.2506779 Eh            6.8213 eV
             Fermi-level           -0.1780755 Eh           -4.8457 eV

     #   Z          covCN         q      C6AA      α(0)
     1   8 o        1.610    -0.644    26.275     6.918
     2   1 h        0.805     0.325     0.651     1.268
     3   1 h        0.804     0.338     0.618     1.235
     4   8 o        1.606    -0.703    27.802     7.116
     5   1 h        0.804     0.330     0.637     1.254
     6   1 h        0.803     0.347     0.596     1.212
     7   8 o        1.608    -0.685    27.311     7.053
     8   1 h        0.804     0.334     0.627     1.243
     9   1 h        0.804     0.343     0.605     1.222
    10   8 o        1.607    -0.690    27.449     7.071
    11   1 h        0.803     0.356     0.575     1.191
    12   1 h        0.804     0.348     0.593     1.210
    13   8 o        1.608    -0.703    27.796     7.116
    14   1 h        0.804     0.344     0.602     1.219
    15   1 h        0.804     0.343     0.606     1.223
    16   8 o        1.605    -0.697    27.632     7.095
    17   1 h        0.803     0.333     0.630     1.247
    18   1 h        0.802     0.357     0.573     1.189
    19   8 o        1.609    -0.658    26.611     6.962
    20   1 h        0.804     0.336     0.621     1.238
    21   1 h        0.805     0.330     0.636     1.253
    22   8 o        1.608    -0.675    27.043     7.019
    23   1 h        0.803     0.327     0.645     1.261
    24   1 h        0.804     0.351     0.585     1.202
    25   8 o        1.606    -0.703    27.802     7.116
    26   1 h        0.803     0.327     0.646     1.262
    27   1 h        0.804     0.327     0.646     1.263
    28   8 o        1.607    -0.672    26.979     7.010
    29   1 h        0.803     0.334     0.627     1.244
    30   1 h        0.804     0.339     0.616     1.232
    31   8 o        1.609    -0.680    27.172     7.035
    32   1 h        0.805     0.338     0.617     1.234
    33   1 h        0.804     0.343     0.605     1.222
    34   8 o        1.608    -0.683    27.262     7.047
    35   1 h        0.805     0.340     0.612     1.229
    36   1 h        0.804     0.359     0.567     1.183
    37   8 o        1.609    -0.684    27.291     7.051
    38   1 h        0.804     0.342     0.607     1.224
    39   1 h        0.804     0.338     0.616     1.233
    40   8 o        1.605    -0.710    27.979     7.139
    41   1 h        0.802     0.353     0.581     1.198
    42   1 h        0.804     0.359     0.568     1.183
    43   8 o        1.608    -0.672    26.965     7.008
    44   1 h        0.804     0.354     0.578     1.194
    45   1 h        0.804     0.339     0.615     1.232
    46   8 o        1.606    -0.694    27.556     7.085
    47   1 h        0.802     0.354     0.580     1.197
    48   1 h        0.804     0.349     0.590     1.207
    49   8 o        1.608    -0.711    28.003     7.142
    50   1 h        0.804     0.324     0.654     1.271
    51   1 h        0.804     0.334     0.626     1.243
    52   8 o        1.608    -0.690    27.452     7.071
    53   1 h        0.804     0.325     0.651     1.268
    54   1 h        0.804     0.339     0.616     1.232
    55   8 o        1.608    -0.678    27.142     7.031
    56   1 h        0.804     0.348     0.592     1.209
    57   1 h        0.804     0.329     0.639     1.256
    58   8 o        1.606    -0.698    27.666     7.099
    59   1 h        0.802     0.363     0.558     1.174
    60   1 h        0.804     0.335     0.626     1.242
    61   8 o        1.609    -0.676    27.090     7.025
    62   1 h        0.805     0.341     0.609     1.226
    63   1 h        0.804     0.364     0.557     1.172
    64   8 o        1.607    -0.684    27.299     7.052
    65   1 h        0.805     0.336     0.622     1.239
    66   1 h        0.803     0.349     0.592     1.208
    67   8 o        1.607    -0.682    27.237     7.044
    68   1 h        0.803     0.352     0.584     1.201
    69   1 h        0.805     0.329     0.640     1.257
    70   8 o        1.606    -0.689    27.423     7.068
    71   1 h        0.803     0.333     0.630     1.247
    72   1 h        0.803     0.352     0.584     1.201
    73   8 o        1.610    -0.681    27.197     7.039
    74   1 h        0.805     0.335     0.624     1.240
    75   1 h        0.804     0.327     0.646     1.263
    76   8 o        1.609    -0.667    26.851     6.994
    77   1 h        0.803     0.356     0.575     1.191
    78   1 h        0.804     0.357     0.572     1.189
    79   8 o        1.608    -0.687    27.354     7.059
    80   1 h        0.803     0.357     0.572     1.188
    81   1 h        0.805     0.347     0.596     1.213
    82   8 o        1.607    -0.695    27.573     7.087
    83   1 h        0.805     0.345     0.599     1.216
    84   1 h        0.803     0.352     0.584     1.201
    85   8 o        1.606    -0.679    27.164     7.034
    86   1 h        0.803     0.327     0.645     1.261
    87   1 h        0.803     0.340     0.613     1.229
    88   8 o        1.607    -0.686    27.340     7.057
    89   1 h        0.802     0.365     0.554     1.169
    90   1 h        0.805     0.348     0.592     1.208
    91   8 o        1.605    -0.705    27.855     7.123
    92   1 h        0.802     0.356     0.574     1.190
    93   1 h        0.804     0.334     0.628     1.245
    94   8 o        1.607    -0.719    28.229     7.171
    95   1 h        0.803     0.348     0.593     1.209
    96   1 h        0.803     0.337     0.620     1.236
    97   8 o        1.607    -0.686    27.343     7.057
    98   1 h        0.803     0.357     0.572     1.188
    99   1 h        0.805     0.335     0.624     1.241
   100   8 o        1.608    -0.700    27.717     7.106
   101   1 h        0.804     0.345     0.599     1.216
   102   1 h        0.804     0.348     0.594     1.211
   103   8 o        1.609    -0.678    27.142     7.032
   104   1 h        0.805     0.340     0.613     1.229
   105   1 h        0.804     0.338     0.618     1.234
   106   8 o        1.608    -0.665    26.802     6.987
   107   1 h        0.805     0.332     0.633     1.250
   108   1 h        0.803     0.355     0.576     1.193
   109   8 o        1.608    -0.677    27.101     7.026
   110   1 h        0.804     0.328     0.643     1.260
   111   1 h        0.804     0.360     0.566     1.182
   112   8 o        1.608    -0.676    27.092     7.025
   113   1 h        0.804     0.332     0.631     1.248
   114   1 h        0.803     0.346     0.598     1.215
   115   8 o        1.606    -0.672    26.985     7.011
   116   1 h        0.802     0.334     0.627     1.244
   117   1 h        0.804     0.345     0.600     1.217
   118   8 o        1.607    -0.675    27.057     7.020
   119   1 h        0.803     0.339     0.614     1.231
   120   1 h        0.804     0.361     0.563     1.179
   121   8 o        1.608    -0.691    27.469     7.074
   122   1 h        0.804     0.344     0.602     1.219
   123   1 h        0.803     0.339     0.616     1.233
   124   8 o        1.608    -0.686    27.353     7.059
   125   1 h        0.804     0.351     0.585     1.202
   126   1 h        0.804     0.346     0.598     1.215
   127   8 o        1.610    -0.657    26.597     6.961
   128   1 h        0.805     0.332     0.631     1.248
   129   1 h        0.805     0.344     0.603     1.220
   130   8 o        1.608    -0.683    27.261     7.047
   131   1 h        0.804     0.344     0.603     1.220
   132   1 h        0.804     0.344     0.601     1.218
   133   8 o        1.609    -0.669    26.891     6.999
   134   1 h        0.804     0.324     0.653     1.269
   135   1 h        0.805     0.335     0.625     1.242
   136   8 o        1.606    -0.679    27.157     7.033
   137   1 h        0.803     0.332     0.632     1.249
   138   1 h        0.803     0.351     0.586     1.202
   139   8 o        1.606    -0.700    27.699     7.103
   140   1 h        0.803     0.360     0.565     1.181
   141   1 h        0.803     0.342     0.607     1.224
   142   8 o        1.605    -0.701    27.740     7.108
   143   1 h        0.802     0.361     0.564     1.180
   144   1 h        0.803     0.339     0.616     1.233
   145   8 o        1.608    -0.675    27.046     7.019
   146   1 h        0.803     0.351     0.586     1.203
   147   1 h        0.805     0.331     0.634     1.251
   148   8 o        1.607    -0.693    27.537     7.082
   149   1 h        0.803     0.351     0.587     1.204
   150   1 h        0.805     0.350     0.588     1.204
   151   8 o        1.607    -0.687    27.370     7.061
   152   1 h        0.803     0.358     0.569     1.185
   153   1 h        0.804     0.332     0.632     1.248
   154   8 o        1.610    -0.652    26.461     6.943
   155   1 h        0.805     0.330     0.638     1.254
   156   1 h        0.805     0.340     0.613     1.230
   157   8 o        1.608    -0.691    27.474     7.074
   158   1 h        0.804     0.343     0.604     1.221
   159   1 h        0.803     0.353     0.580     1.197
   160   8 o        1.609    -0.671    26.942     7.006
   161   1 h        0.805     0.330     0.638     1.255
   162   1 h        0.804     0.342     0.608     1.225
   163   8 o        1.608    -0.695    27.574     7.087
   164   1 h        0.804     0.354     0.580     1.196
   165   1 h        0.804     0.333     0.631     1.248
   166   8 o        1.606    -0.700    27.702     7.103
   167   1 h        0.803     0.362     0.561     1.177
   168   1 h        0.804     0.363     0.559     1.174
   169   8 o        1.609    -0.692    27.508     7.079
   170   1 h        0.805     0.330     0.636     1.253
   171   1 h        0.804     0.343     0.604     1.221
   172   8 o        1.607    -0.688    27.396     7.064
   173   1 h        0.803     0.341     0.609     1.226
   174   1 h        0.804     0.331     0.634     1.251
   175   8 o        1.609    -0.669    26.897     7.000
   176   1 h        0.805     0.330     0.637     1.254
   177   1 h        0.803     0.347     0.595     1.212
   178   8 o        1.609    -0.670    26.915     7.002
   179   1 h        0.804     0.340     0.612     1.229
   180   1 h        0.805     0.342     0.606     1.223
   181   8 o        1.606    -0.694    27.544     7.083
   182   1 h        0.804     0.351     0.586     1.203
   183   1 h        0.802     0.347     0.596     1.213
   184   8 o        1.607    -0.693    27.525     7.081
   185   1 h        0.803     0.357     0.573     1.189
   186   1 h        0.804     0.334     0.626     1.243
   187   8 o        1.609    -0.676    27.069     7.022
   188   1 h        0.805     0.343     0.604     1.221
   189   1 h        0.804     0.336     0.622     1.238
   190   8 o        1.609    -0.680    27.186     7.037
   191   1 h        0.805     0.334     0.626     1.243
   192   1 h        0.803     0.354     0.579     1.195
   193   8 o        1.609    -0.662    26.707     6.975
   194   1 h        0.803     0.338     0.618     1.235
   195   1 h        0.806     0.316     0.674     1.289
   196   8 o        1.605    -0.690    27.446     7.071
   197   1 h        0.805     0.318     0.668     1.284
   198   1 h        0.801     0.368     0.549     1.164
   199   8 o        1.606    -0.694    27.555     7.085
   200   1 h        0.803     0.343     0.606     1.222
   201   1 h        0.803     0.347     0.596     1.213
   202   8 o        1.609    -0.661    26.687     6.972
   203   1 h        0.805     0.316     0.673     1.289
   204   1 h        0.803     0.349     0.592     1.208
   205   8 o        1.605    -0.677    27.105     7.026
   206   1 h        0.806     0.311     0.688     1.303
   207   1 h        0.800     0.351     0.585     1.202
   208   8 o        1.606    -0.686    27.355     7.059
   209   1 h        0.803     0.345     0.600     1.217
   210   1 h        0.803     0.333     0.629     1.246
   211   8 o        1.609    -0.657    26.602     6.961
   212   1 h        0.804     0.366     0.552     1.168
   213   1 h        0.805     0.320     0.664     1.279
   214   8 o        1.608    -0.689    27.426     7.068
   215   1 h        0.804     0.344     0.603     1.219
   216   1 h        0.803     0.340     0.613     1.230
   217   8 o        1.604    -0.719    28.217     7.169
   218   1 h        0.802     0.365     0.554     1.169
   219   1 h        0.803     0.340     0.612     1.229
   220   8 o        1.608    -0.683    27.274     7.049
   221   1 h        0.803     0.360     0.567     1.183
   222   1 h        0.804     0.351     0.586     1.202
   223   8 o        1.608    -0.683    27.257     7.046
   224   1 h        0.802     0.355     0.577     1.193
   225   1 h        0.806     0.316     0.676     1.291
   226   8 o        1.608    -0.683    27.261     7.047
   227   1 h        0.802     0.360     0.566     1.182
   228   1 h        0.805     0.317     0.671     1.287
   229   8 o        1.607    -0.686    27.354     7.059
   230   1 h        0.802     0.356     0.574     1.190
   231   1 h        0.805     0.332     0.632     1.249
   232   8 o        1.607    -0.694    27.546     7.084
   233   1 h        0.803     0.346     0.597     1.213
   234   1 h        0.804     0.332     0.631     1.248
   235   8 o        1.608    -0.681    27.213     7.041
   236   1 h        0.803     0.342     0.608     1.225
   237   1 h        0.805     0.327     0.644     1.260
   238   8 o        1.608    -0.660    26.680     6.971
   239   1 h        0.805     0.313     0.682     1.297
   240   1 h        0.803     0.349     0.591     1.208
   241   8 o        1.610    -0.650    26.416     6.937
   242   1 h        0.805     0.327     0.645     1.261
   243   1 h        0.805     0.323     0.657     1.273
   244   8 o        1.608    -0.683    27.265     7.047
   245   1 h        0.803     0.339     0.615     1.232
   246   1 h        0.805     0.329     0.639     1.255
   247   8 o        1.608    -0.674    27.023     7.016
   248   1 h        0.803     0.360     0.566     1.182
   249   1 h        0.805     0.339     0.614     1.231
   250   8 o        1.608    -0.659    26.642     6.966
   251   1 h        0.803     0.326     0.649     1.265
   252   1 h        0.805     0.315     0.678     1.294
   253   8 o        1.609    -0.684    27.297     7.052
   254   1 h        0.804     0.345     0.600     1.217
   255   1 h        0.804     0.323     0.656     1.272
   256   8 o        1.606    -0.698    27.668     7.099
   257   1 h        0.802     0.360     0.566     1.182
   258   1 h        0.804     0.320     0.663     1.279
   259   8 o        1.608    -0.685    27.327     7.055
   260   1 h        0.803     0.340     0.612     1.229
   261   1 h        0.805     0.327     0.646     1.263
   262   8 o        1.609    -0.677    27.108     7.027
   263   1 h        0.805     0.341     0.611     1.227
   264   1 h        0.804     0.340     0.613     1.230
   265   8 o        1.608    -0.658    26.612     6.962
   266   1 h        0.804     0.336     0.623     1.240
   267   1 h        0.804     0.324     0.653     1.270
   268   8 o        1.609    -0.659    26.652     6.968
   269   1 h        0.804     0.341     0.611     1.227
   270   1 h        0.804     0.341     0.611     1.228
   271   8 o        1.608    -0.685    27.305     7.053
   272   1 h        0.804     0.329     0.639     1.256
   273   1 h        0.804     0.342     0.608     1.225
   274   8 o        1.609    -0.681    27.199     7.039
   275   1 h        0.804     0.336     0.622     1.239
   276   1 h        0.803     0.358     0.570     1.186
   277   8 o        1.606    -0.664    26.763     6.982
   278   1 h        0.806     0.310     0.691     1.305
   279   1 h        0.802     0.351     0.585     1.202
   280   8 o        1.608    -0.663    26.757     6.981
   281   1 h        0.805     0.334     0.627     1.243
   282   1 h        0.804     0.343     0.604     1.221
   283   8 o        1.609    -0.660    26.661     6.969
   284   1 h        0.803     0.360     0.566     1.182
   285   1 h        0.806     0.307     0.701     1.315
   286   8 o        1.609    -0.651    26.446     6.941
   287   1 h        0.805     0.321     0.662     1.278
   288   1 h        0.804     0.331     0.635     1.251
   289   8 o        1.607    -0.683    27.263     7.047
   290   1 h        0.804     0.329     0.641     1.258
   291   1 h        0.803     0.361     0.564     1.179
   292   8 o        1.606    -0.695    27.584     7.088
   293   1 h        0.801     0.369     0.547     1.162
   294   1 h        0.804     0.323     0.655     1.271
   295   8 o        1.608    -0.666    26.811     6.988
   296   1 h        0.803     0.359     0.568     1.184
   297   1 h        0.805     0.325     0.649     1.266
   298   8 o        1.608    -0.669    26.902     7.000
   299   1 h        0.804     0.353     0.582     1.198
   300   1 h        0.804     0.336     0.622     1.239
   301   8 o        1.607    -0.670    26.929     7.004
   302   1 h        0.802     0.347     0.597     1.214
   303   1 h        0.805     0.316     0.675     1.291
   304   8 o        1.609    -0.665    26.795     6.986
   305   1 h        0.805     0.337     0.621     1.237
   306   1 h        0.805     0.331     0.634     1.251
   307   8 o        1.610    -0.668    26.877     6.997
   308   1 h        0.803     0.329     0.641     1.257
   309   1 h        0.805     0.346     0.597     1.213
   310   8 o        1.609    -0.661    26.686     6.972
   311   1 h        0.804     0.315     0.679     1.294
   312   1 h        0.804     0.341     0.609     1.226
   313   8 o        1.608    -0.684    27.279     7.049
   314   1 h        0.804     0.350     0.587     1.204
   315   1 h        0.804     0.320     0.665     1.281
   316   8 o        1.609    -0.681    27.208     7.040
   317   1 h        0.803     0.351     0.586     1.203
   318   1 h        0.805     0.330     0.638     1.254
   319   8 o        1.607    -0.709    27.956     7.136
   320   1 h        0.804     0.350     0.589     1.206
   321   1 h        0.803     0.340     0.612     1.229
   322   8 o        1.608    -0.679    27.163     7.034
   323   1 h        0.805     0.356     0.573     1.189
   324   1 h        0.804     0.334     0.628     1.245
   325   8 o        1.608    -0.671    26.951     7.007
   326   1 h        0.803     0.353     0.582     1.198
   327   1 h        0.805     0.322     0.659     1.275
   328   8 o        1.605    -0.723    28.323     7.183
   329   1 h        0.802     0.357     0.573     1.189
   330   1 h        0.804     0.343     0.605     1.222
   331   8 o        1.607    -0.668    26.862     6.995
   332   1 h        0.803     0.334     0.628     1.245
   333   1 h        0.804     0.332     0.632     1.249
   334   8 o        1.607    -0.676    27.069     7.022
   335   1 h        0.804     0.352     0.583     1.199
   336   1 h        0.803     0.342     0.608     1.225
   337   8 o        1.606    -0.708    27.917     7.131
   338   1 h        0.803     0.358     0.571     1.187
   339   1 h        0.803     0.345     0.601     1.217
   340   8 o        1.608    -0.672    26.970     7.009
   341   1 h        0.805     0.328     0.643     1.259
   342   1 h        0.803     0.354     0.579     1.195
   343   8 o        1.608    -0.690    27.438     7.070
   344   1 h        0.804     0.330     0.637     1.254
   345   1 h        0.803     0.361     0.564     1.180
   346   8 o        1.606    -0.692    27.508     7.079
   347   1 h        0.804     0.339     0.616     1.233
   348   1 h        0.803     0.333     0.631     1.248
   349   8 o        1.607    -0.677    27.117     7.028
   350   1 h        0.804     0.343     0.604     1.221
   351   1 h        0.803     0.350     0.589     1.205
   352   8 o        1.609    -0.646    26.312     6.923
   353   1 h        0.804     0.342     0.608     1.225
   354   1 h        0.805     0.324     0.652     1.269
   355   8 o        1.607    -0.680    27.190     7.038
   356   1 h        0.804     0.331     0.636     1.253
   357   1 h        0.803     0.360     0.565     1.181
   358   8 o        1.607    -0.686    27.330     7.056
   359   1 h        0.803     0.350     0.587     1.204
   360   1 h        0.804     0.326     0.648     1.264
   361   8 o        1.608    -0.661    26.702     6.974
   362   1 h        0.805     0.322     0.658     1.274
   363   1 h        0.803     0.346     0.598     1.215
   364   8 o        1.606    -0.692    27.495     7.077
   365   1 h        0.803     0.356     0.574     1.190
   366   1 h        0.803     0.358     0.571     1.187
   367   8 o        1.606    -0.672    26.978     7.010
   368   1 h        0.803     0.351     0.586     1.203
   369   1 h        0.803     0.334     0.627     1.244
   370   8 o        1.609    -0.689    27.429     7.068
   371   1 h        0.804     0.340     0.611     1.228
   372   1 h        0.805     0.331     0.635     1.252
   373   8 o        1.608    -0.662    26.732     6.978
   374   1 h        0.804     0.328     0.642     1.258
   375   1 h        0.804     0.338     0.616     1.233
   376   8 o        1.607    -0.670    26.916     7.002
   377   1 h        0.803     0.330     0.637     1.254
   378   1 h        0.804     0.339     0.614     1.230
   379   8 o        1.606    -0.706    27.883     7.127
   380   1 h        0.803     0.350     0.588     1.204
   381   1 h        0.804     0.350     0.588     1.205
   382   8 o        1.607    -0.676    27.080     7.023
   383   1 h        0.803     0.350     0.587     1.204
   384   1 h        0.803     0.326     0.647     1.264
   385   8 o        1.609    -0.660    26.681     6.971
   386   1 h        0.804     0.338     0.618     1.235
   387   1 h        0.805     0.325     0.650     1.266
   388   8 o        1.608    -0.686    27.347     7.058
   389   1 h        0.804     0.352     0.584     1.201
   390   1 h        0.802     0.365     0.554     1.169
   391   8 o        1.607    -0.671    26.952     7.007
   392   1 h        0.802     0.344     0.604     1.221
   393   1 h        0.806     0.314     0.679     1.295
   394   8 o        1.609    -0.678    27.132     7.030
   395   1 h        0.805     0.339     0.615     1.232
   396   1 h        0.804     0.336     0.622     1.239
   397   8 o        1.607    -0.667    26.857     6.994
   398   1 h        0.802     0.358     0.571     1.187
   399   1 h        0.806     0.316     0.675     1.290
   400   8 o        1.607    -0.677    27.109     7.027
   401   1 h        0.802     0.339     0.615     1.232
   402   1 h        0.804     0.360     0.565     1.180
   403   8 o        1.607    -0.685    27.317     7.054
   404   1 h        0.803     0.360     0.566     1.181
   405   1 h        0.804     0.333     0.629     1.246
   406   8 o        1.607    -0.666    26.813     6.989
   407   1 h        0.802     0.353     0.582     1.199
   408   1 h        0.806     0.310     0.690     1.305
   409   8 o        1.609    -0.665    26.791     6.986
   410   1 h        0.805     0.337     0.619     1.235
   411   1 h        0.804     0.326     0.648     1.265
   412   8 o        1.606    -0.705    27.855     7.123
   413   1 h        0.803     0.356     0.575     1.191
   414   1 h        0.803     0.359     0.569     1.185
   415   8 o        1.607    -0.680    27.198     7.039
   416   1 h        0.804     0.317     0.671     1.287
   417   1 h        0.803     0.348     0.592     1.209
   418   8 o        1.607    -0.662    26.714     6.976
   419   1 h        0.804     0.345     0.601     1.218
   420   1 h        0.804     0.327     0.646     1.262
   421   8 o        1.607    -0.675    27.063     7.021
   422   1 h        0.804     0.348     0.593     1.210
   423   1 h        0.803     0.350     0.587     1.204
   424   8 o        1.607    -0.691    27.473     7.074
   425   1 h        0.804     0.331     0.635     1.251
   426   1 h        0.804     0.338     0.617     1.233
   427   8 o        1.608    -0.670    26.929     7.004
   428   1 h        0.804     0.350     0.589     1.206
   429   1 h        0.804     0.329     0.639     1.256
   430   8 o        1.608    -0.687    27.368     7.061
   431   1 h        0.805     0.332     0.632     1.248
   432   1 h        0.803     0.347     0.595     1.212
   433   8 o        1.608    -0.666    26.831     6.991
   434   1 h        0.803     0.368     0.547     1.162
   435   1 h        0.805     0.336     0.623     1.239
   436   8 o        1.608    -0.695    27.567     7.086
   437   1 h        0.803     0.345     0.601     1.218
   438   1 h        0.804     0.325     0.649     1.266
   439   8 o        1.610    -0.638    26.112     6.897
   440   1 h        0.805     0.326     0.647     1.263
   441   1 h        0.805     0.337     0.620     1.237
   442   8 o        1.609    -0.674    27.035     7.018
   443   1 h        0.805     0.350     0.589     1.206
   444   1 h        0.804     0.319     0.666     1.282
   445   8 o        1.608    -0.692    27.502     7.078
   446   1 h        0.803     0.343     0.605     1.222
   447   1 h        0.804     0.329     0.640     1.257
   448   8 o        1.608    -0.669    26.912     7.001
   449   1 h        0.802     0.344     0.604     1.221
   450   1 h        0.806     0.315     0.678     1.293
   451   8 o        1.609    -0.680    27.172     7.035
   452   1 h        0.804     0.335     0.624     1.241
   453   1 h        0.805     0.318     0.670     1.286
   454   8 o        1.609    -0.676    27.075     7.023
   455   1 h        0.805     0.340     0.611     1.228
   456   1 h        0.804     0.335     0.624     1.241
   457   8 o        1.608    -0.683    27.250     7.045
   458   1 h        0.805     0.349     0.589     1.206
   459   1 h        0.803     0.345     0.600     1.217
   460   8 o        1.607    -0.690    27.448     7.071
   461   1 h        0.803     0.345     0.600     1.217
   462   1 h        0.803     0.351     0.585     1.202
   463   8 o        1.607    -0.674    27.039     7.018
   464   1 h        0.804     0.331     0.636     1.253
   465   1 h        0.803     0.342     0.608     1.225
   466   8 o        1.607    -0.680    27.192     7.038
   467   1 h        0.803     0.339     0.614     1.231
   468   1 h        0.803     0.335     0.625     1.242
   469   8 o        1.608    -0.692    27.512     7.079
   470   1 h        0.804     0.334     0.626     1.243
   471   1 h        0.803     0.357     0.573     1.189
   472   8 o        1.610    -0.652    26.453     6.942
   473   1 h        0.805     0.332     0.633     1.250
   474   1 h        0.805     0.319     0.665     1.281
   475   8 o        1.606    -0.687    27.376     7.062
   476   1 h        0.804     0.343     0.606     1.223
   477   1 h        0.802     0.343     0.606     1.223
   478   8 o        1.606    -0.678    27.138     7.031
   479   1 h        0.801     0.372     0.541     1.156
   480   1 h        0.805     0.321     0.662     1.278
   481   8 o        1.608    -0.668    26.869     6.996
   482   1 h        0.803     0.344     0.603     1.220
   483   1 h        0.805     0.341     0.610     1.227
   484   8 o        1.608    -0.663    26.735     6.978
   485   1 h        0.804     0.324     0.652     1.268
   486   1 h        0.803     0.334     0.626     1.243
   487   8 o        1.607    -0.692    27.512     7.079
   488   1 h        0.803     0.349     0.591     1.208
   489   1 h        0.804     0.332     0.633     1.250
   490   8 o        1.607    -0.679    27.158     7.033
   491   1 h        0.805     0.326     0.648     1.265
   492   1 h        0.803     0.342     0.608     1.225
   493   8 o        1.609    -0.661    26.685     6.972
   494   1 h        0.804     0.355     0.577     1.194
   495   1 h        0.805     0.330     0.638     1.254
   496   8 o        1.609    -0.656    26.566     6.956
   497   1 h        0.803     0.348     0.594     1.211
   498   1 h        0.806     0.318     0.668     1.284
   499   8 o        1.608    -0.670    26.915     7.002
   500   1 h        0.803     0.358     0.570     1.186
   501   1 h        0.805     0.323     0.655     1.271
   502   8 o        1.607    -0.668    26.884     6.998
   503   1 h        0.804     0.328     0.643     1.260
   504   1 h        0.803     0.335     0.624     1.241
   505   8 o        1.607    -0.698    27.652     7.097
   506   1 h        0.804     0.340     0.612     1.229
   507   1 h        0.803     0.333     0.629     1.246
   508   8 o        1.606    -0.710    27.978     7.139
   509   1 h        0.803     0.356     0.576     1.192
   510   1 h        0.803     0.343     0.604     1.221
   511   8 o        1.607    -0.684    27.281     7.049
   512   1 h        0.805     0.330     0.638     1.255
   513   1 h        0.802     0.335     0.626     1.243
   514   8 o        1.606    -0.684    27.302     7.052
   515   1 h        0.803     0.324     0.654     1.271
   516   1 h        0.803     0.362     0.562     1.177
   517   8 o        1.607    -0.680    27.198     7.039
   518   1 h        0.802     0.360     0.565     1.181
   519   1 h        0.805     0.317     0.671     1.287
   520   8 o        1.609    -0.683    27.261     7.047
   521   1 h        0.804     0.346     0.598     1.215
   522   1 h        0.805     0.339     0.615     1.232
   523   8 o        1.609    -0.658    26.606     6.962
   524   1 h        0.806     0.315     0.677     1.292
   525   1 h        0.804     0.359     0.567     1.182
   526   8 o        1.607    -0.687    27.376     7.062
   527   1 h        0.804     0.330     0.637     1.254
   528   1 h        0.803     0.358     0.571     1.187
   529   8 o        1.607    -0.694    27.541     7.083
   530   1 h        0.804     0.324     0.652     1.269
   531   1 h        0.803     0.356     0.575     1.191
   532   8 o        1.607    -0.669    26.910     7.001
   533   1 h        0.804     0.341     0.609     1.226
   534   1 h        0.804     0.345     0.600     1.217
   535   8 o        1.608    -0.670    26.932     7.004
   536   1 h        0.805     0.330     0.638     1.255
   537   1 h        0.803     0.348     0.592     1.209
   538   8 o        1.610    -0.654    26.511     6.949
   539   1 h        0.805     0.334     0.626     1.243
   540   1 h        0.805     0.328     0.642     1.259
   541   8 o        1.609    -0.688    27.390     7.064
   542   1 h        0.804     0.336     0.622     1.239
   543   1 h        0.804     0.342     0.607     1.223
   544   8 o        1.607    -0.666    26.834     6.991
   545   1 h        0.803     0.328     0.642     1.259
   546   1 h        0.804     0.330     0.638     1.255
   547   8 o        1.606    -0.709    27.945     7.135
   548   1 h        0.804     0.337     0.619     1.236
   549   1 h        0.802     0.366     0.553     1.169
   550   8 o        1.606    -0.703    27.804     7.117
   551   1 h        0.802     0.330     0.637     1.253
   552   1 h        0.803     0.348     0.594     1.211
   553   8 o        1.609    -0.656    26.558     6.955
   554   1 h        0.806     0.325     0.651     1.267
   555   1 h        0.804     0.346     0.597     1.214
   556   8 o        1.608    -0.658    26.621     6.964
   557   1 h        0.805     0.321     0.661     1.277
   558   1 h        0.803     0.333     0.630     1.247
   559   8 o        1.608    -0.664    26.761     6.982
   560   1 h        0.803     0.365     0.555     1.170
   561   1 h        0.805     0.319     0.667     1.283
   562   8 o        1.606    -0.694    27.546     7.083
   563   1 h        0.803     0.338     0.617     1.234
   564   1 h        0.803     0.361     0.563     1.179
   565   8 o        1.608    -0.682    27.229     7.043
   566   1 h        0.805     0.323     0.656     1.272
   567   1 h        0.804     0.351     0.587     1.203
   568   8 o        1.606    -0.695    27.571     7.087
   569   1 h        0.804     0.331     0.635     1.252
   570   1 h        0.802     0.358     0.570     1.186
   571   8 o        1.608    -0.662    26.719     6.976
   572   1 h        0.803     0.356     0.574     1.190
   573   1 h        0.805     0.324     0.654     1.270
   574   8 o        1.606    -0.694    27.544     7.083
   575   1 h        0.804     0.345     0.599     1.216
   576   1 h        0.802     0.357     0.571     1.188
   577   8 o        1.607    -0.685    27.314     7.054
   578   1 h        0.803     0.331     0.636     1.253
   579   1 h        0.804     0.340     0.612     1.228
   580   8 o        1.607    -0.684    27.292     7.051
   581   1 h        0.805     0.328     0.643     1.260
   582   1 h        0.803     0.330     0.637     1.254
   583   8 o        1.607    -0.685    27.316     7.054
   584   1 h        0.804     0.333     0.631     1.248
   585   1 h        0.803     0.340     0.612     1.229
   586   8 o        1.608    -0.676    27.090     7.025
   587   1 h        0.803     0.349     0.590     1.207
   588   1 h        0.804     0.328     0.643     1.260
   589   8 o        1.606    -0.680    27.175     7.036
   590   1 h        0.804     0.347     0.595     1.212
   591   1 h        0.803     0.339     0.616     1.233
   592   8 o        1.604    -0.696    27.621     7.093
   593   1 h        0.802     0.335     0.625     1.242
   594   1 h        0.802     0.328     0.643     1.259
   595   8 o        1.609    -0.653    26.483     6.946
   596   1 h        0.803     0.346     0.598     1.215
   597   1 h        0.806     0.316     0.673     1.289
   598   8 o        1.606    -0.676    27.081     7.023
   599   1 h        0.801     0.369     0.546     1.161
   600   1 h        0.805     0.313     0.684     1.299
   601   8 o        1.609    -0.659    26.644     6.967
   602   1 h        0.804     0.342     0.606     1.223
   603   1 h        0.806     0.314     0.680     1.295
   604   8 o        1.609    -0.679    27.158     7.034
   605   1 h        0.805     0.327     0.646     1.263
   606   1 h        0.804     0.343     0.604     1.221
   607   8 o        1.608    -0.670    26.924     7.003
   608   1 h        0.803     0.344     0.603     1.219
   609   1 h        0.805     0.323     0.656     1.272
   610   8 o        1.609    -0.684    27.295     7.051
   611   1 h        0.805     0.331     0.634     1.251
   612   1 h        0.804     0.339     0.614     1.231
   613   8 o        1.609    -0.665    26.799     6.987
   614   1 h        0.804     0.338     0.617     1.234
   615   1 h        0.805     0.332     0.631     1.248
   616   8 o        1.610    -0.658    26.606     6.962
   617   1 h        0.805     0.323     0.654     1.271
   618   1 h        0.805     0.338     0.617     1.234
   619   8 o        1.609    -0.682    27.226     7.042
   620   1 h        0.805     0.325     0.650     1.266
   621   1 h        0.803     0.353     0.582     1.199
   622   8 o        1.607    -0.694    27.554     7.085
   623   1 h        0.804     0.349     0.590     1.206
   624   1 h        0.803     0.345     0.600     1.217
   625   8 o        1.609    -0.672    26.980     7.010
   626   1 h        0.805     0.338     0.618     1.235
   627   1 h        0.804     0.335     0.624     1.241
   628   8 o        1.606    -0.680    27.196     7.038
   629   1 h        0.803     0.341     0.610     1.227
   630   1 h        0.803     0.352     0.584     1.200
   631   8 o        1.607    -0.691    27.479     7.075
   632   1 h        0.803     0.362     0.560     1.176
   633   1 h        0.804     0.349     0.591     1.208
   634   8 o        1.609    -0.679    27.168     7.035
   635   1 h        0.804     0.338     0.618     1.235
   636   1 h        0.805     0.333     0.631     1.248
   637   8 o        1.607    -0.676    27.091     7.025
   638   1 h        0.802     0.345     0.599     1.216
   639   1 h        0.805     0.326     0.647     1.263
   640   8 o        1.607    -0.678    27.122     7.029
   641   1 h        0.804     0.323     0.656     1.272
   642   1 h        0.803     0.355     0.578     1.194
   643   8 o        1.607    -0.674    27.025     7.016
   644   1 h        0.804     0.343     0.605     1.222
   645   1 h        0.804     0.337     0.619     1.236
   646   8 o        1.607    -0.685    27.307     7.053
   647   1 h        0.805     0.321     0.661     1.277
   648   1 h        0.802     0.360     0.566     1.182
   649   8 o        1.606    -0.696    27.610     7.092
   650   1 h        0.803     0.355     0.578     1.194
   651   1 h        0.803     0.324     0.652     1.269
   652   8 o        1.607    -0.669    26.902     7.000
   653   1 h        0.803     0.325     0.651     1.267
   654   1 h        0.804     0.327     0.644     1.261
   655   8 o        1.609    -0.667    26.859     6.995
   656   1 h        0.804     0.345     0.600     1.217
   657   1 h        0.805     0.364     0.558     1.173
   658   8 o        1.606    -0.686    27.333     7.056
   659   1 h        0.804     0.360     0.565     1.181
   660   1 h        0.803     0.328     0.644     1.261
   661   8 o        1.609    -0.665    26.805     6.988
   662   1 h        0.805     0.336     0.622     1.239
   663   1 h        0.803     0.329     0.641     1.257
   664   8 o        1.605    -0.672    26.986     7.011
   665   1 h        0.801     0.359     0.568     1.184
   666   1 h        0.806     0.316     0.676     1.291
   667   8 o        1.608    -0.670    26.931     7.004
   668   1 h        0.804     0.336     0.623     1.240
   669   1 h        0.804     0.329     0.641     1.258
   670   8 o        1.607    -0.678    27.134     7.030
   671   1 h        0.803     0.358     0.571     1.187
   672   1 h        0.805     0.337     0.621     1.237
   673   8 o        1.606    -0.684    27.290     7.050
   674   1 h        0.803     0.340     0.613     1.230
   675   1 h        0.803     0.357     0.572     1.188
   676   8 o        1.605    -0.695    27.571     7.087
   677   1 h        0.804     0.333     0.630     1.247
   678   1 h        0.801     0.333     0.631     1.248
   679   8 o        1.608    -0.684    27.278     7.049
   680   1 h        0.805     0.331     0.635     1.252
   681   1 h        0.803     0.350     0.590     1.206
   682   8 o        1.607    -0.673    26.999     7.013
   683   1 h        0.803     0.333     0.630     1.246
   684   1 h        0.804     0.351     0.585     1.202
   685   8 o        1.606    -0.687    27.371     7.061
   686   1 h        0.802     0.333     0.629     1.246
   687   1 h        0.804     0.356     0.575     1.191
   688   8 o        1.606    -0.700    27.714     7.105
   689   1 h        0.804     0.337     0.620     1.237
   690   1 h        0.802     0.349     0.590     1.207
   691   8 o        1.607    -0.684    27.302     7.052
   692   1 h        0.802     0.363     0.559     1.174
   693   1 h        0.805     0.328     0.643     1.260
   694   8 o        1.608    -0.686    27.351     7.058
   695   1 h        0.805     0.330     0.638     1.255
   696   1 h        0.803     0.339     0.615     1.232
   697   8 o        1.608    -0.684    27.294     7.051
   698   1 h        0.805     0.323     0.657     1.273
   699   1 h        0.803     0.360     0.565     1.181
   700   8 o        1.609    -0.667    26.848     6.993
   701   1 h        0.804     0.350     0.587     1.204
   702   1 h        0.806     0.310     0.692     1.307
   703   8 o        1.608    -0.676    27.085     7.024
   704   1 h        0.804     0.350     0.587     1.204
   705   1 h        0.803     0.335     0.625     1.242
   706   8 o        1.607    -0.683    27.255     7.046
   707   1 h        0.804     0.345     0.601     1.217
   708   1 h        0.803     0.344     0.603     1.220
   709   8 o        1.606    -0.707    27.887     7.127
   710   1 h        0.804     0.344     0.602     1.219
   711   1 h        0.803     0.346     0.598     1.215
   712   8 o        1.605    -0.694    27.558     7.085
   713   1 h        0.801     0.368     0.549     1.164
   714   1 h        0.806     0.314     0.679     1.294
   715   8 o        1.609    -0.667    26.844     6.993
   716   1 h        0.804     0.343     0.606     1.223
   717   1 h        0.805     0.329     0.639     1.256
   718   8 o        1.605    -0.715    28.128     7.158
   719   1 h        0.802     0.358     0.570     1.187
   720   1 h        0.803     0.328     0.642     1.259
   721   8 o        1.608    -0.654    26.519     6.950
   722   1 h        0.806     0.309     0.693     1.308
   723   1 h        0.802     0.360     0.566     1.182
   724   8 o        1.609    -0.682    27.248     7.045
   725   1 h        0.804     0.339     0.615     1.232
   726   1 h        0.804     0.334     0.628     1.245
   727   8 o        1.608    -0.674    27.016     7.015
   728   1 h        0.805     0.331     0.634     1.250
   729   1 h        0.803     0.336     0.622     1.239
   730   8 o        1.603    -0.722    28.310     7.181
   731   1 h        0.803     0.334     0.626     1.243
   732   1 h        0.801     0.361     0.564     1.180
   733   8 o        1.607    -0.676    27.090     7.025
   734   1 h        0.803     0.337     0.620     1.237
   735   1 h        0.804     0.331     0.634     1.251
   736   8 o        1.610    -0.634    26.011     6.883
   737   1 h        0.804     0.339     0.615     1.231
   738   1 h        0.805     0.316     0.673     1.289
   739   8 o        1.608    -0.687    27.364     7.060
   740   1 h        0.804     0.330     0.637     1.253
   741   1 h        0.803     0.348     0.592     1.209
   742   8 o        1.609    -0.668    26.869     6.996
   743   1 h        0.804     0.339     0.615     1.231
   744   1 h        0.805     0.342     0.608     1.224
   745   8 o        1.608    -0.661    26.695     6.973
   746   1 h        0.804     0.341     0.609     1.226
   747   1 h        0.804     0.330     0.637     1.254
   748   8 o        1.606    -0.705    27.849     7.122
   749   1 h        0.803     0.356     0.575     1.192
   750   1 h        0.804     0.344     0.602     1.219
   751   8 o        1.609    -0.646    26.321     6.924
   752   1 h        0.805     0.316     0.674     1.290
   753   1 h        0.804     0.333     0.629     1.246
   754   8 o        1.610    -0.671    26.949     7.006
   755   1 h        0.805     0.319     0.666     1.282
   756   1 h        0.805     0.318     0.669     1.285

 Mol. C6AA /au·bohr⁶  :    2899420.392573
 Mol. C8AA /au·bohr⁸  :   52608377.439178
 Mol. α(0) /au        :       2393.081962


Wiberg/Mayer (AO) data.
largest (>0.10) Wiberg bond orders for each atom

 ---------------------------------------------------------------------------
     #   Z sym  total        # sym  WBO       # sym  WBO       # sym  WBO
 ---------------------------------------------------------------------------
     1   8 o    1.838 --     2 h    0.887     3 h    0.850
     2   1 h    0.895 --     1 o    0.887
     3   1 h    0.886 --     1 o    0.850
     4   8 o    1.809 --     5 h    0.832     6 h    0.788
     5   1 h    0.891 --     4 o    0.832
     6   1 h    0.880 --     4 o    0.788
     7   8 o    1.829 --     8 h    0.833     9 h    0.828
     8   1 h    0.888 --     7 o    0.833
     9   1 h    0.882 --     7 o    0.828
    10   8 o    1.869 --    12 h    0.825    11 h    0.790
    11   1 h    0.873 --    10 o    0.790
    12   1 h    0.879 --    10 o    0.825
    13   8 o    1.827 --    14 h    0.817    15 h    0.802
    14   1 h    0.881 --    13 o    0.817
    15   1 h    0.882 --    13 o    0.802
    16   8 o    1.876 --    17 h    0.822    18 h    0.776
    17   1 h    0.889 --    16 o    0.822
    18   1 h    0.873 --    16 o    0.776
    19   8 o    1.862 --    21 h    0.856    20 h    0.839
    20   1 h    0.887 --    19 o    0.839
    21   1 h    0.891 --    19 o    0.856
    22   8 o    1.857 --    23 h    0.833    24 h    0.827
    23   1 h    0.893 --    22 o    0.833
    24   1 h    0.877 --    22 o    0.827
    25   8 o    1.797 --    26 h    0.826    27 h    0.824
    26   1 h    0.893 --    25 o    0.826
    27   1 h    0.893 --    25 o    0.824
    28   8 o    1.860 --    30 h    0.828    29 h    0.822
    29   1 h    0.888 --    28 o    0.822
    30   1 h    0.885 --    28 o    0.828
    31   8 o    1.837 --    32 h    0.849    33 h    0.828
    32   1 h    0.886 --    31 o    0.849
    33   1 h    0.882 --    31 o    0.828
    34   8 o    1.853 --    35 h    0.842    36 h    0.803
    35   1 h    0.884 --    34 o    0.842
    36   1 h    0.871 --    34 o    0.803
    37   8 o    1.851 --    39 h    0.839    38 h    0.819
    38   1 h    0.883 --    37 o    0.819
    39   1 h    0.886 --    37 o    0.839
    40   8 o    1.842 --    42 h    0.807    41 h    0.782
    41   1 h    0.875 --    40 o    0.782
    42   1 h    0.871 --    40 o    0.807
    43   8 o    1.857 --    45 h    0.853    44 h    0.809
    44   1 h    0.874 --    43 o    0.809
    45   1 h    0.885 --    43 o    0.853
    46   8 o    1.876 --    48 h    0.816    47 h    0.787
    47   1 h    0.875 --    46 o    0.787
    48   1 h    0.878 --    46 o    0.816
    49   8 o    1.773 --    50 h    0.841    51 h    0.824
    50   1 h    0.895 --    49 o    0.841
    51   1 h    0.888 --    49 o    0.824
    52   8 o    1.798 --    54 h    0.840    53 h    0.838
    53   1 h    0.895 --    52 o    0.838
    54   1 h    0.885 --    52 o    0.840
    55   8 o    1.836 --    57 h    0.845    56 h    0.816
    56   1 h    0.878 --    55 o    0.816
    57   1 h    0.892 --    55 o    0.845
    58   8 o    1.844 --    60 h    0.838    59 h    0.778
    59   1 h    0.868 --    58 o    0.778
    60   1 h    0.888 --    58 o    0.838
    61   8 o    1.864 --    62 h    0.854    63 h    0.796
    62   1 h    0.883 --    61 o    0.854
    63   1 h    0.867 --    61 o    0.796
    64   8 o    1.862 --    65 h    0.844    66 h    0.789
    65   1 h    0.887 --    64 o    0.844
    66   1 h    0.878 --    64 o    0.789
    67   8 o    1.844 --    69 h    0.861    68 h    0.797
    68   1 h    0.876 --    67 o    0.797
    69   1 h    0.892 --    67 o    0.861
    70   8 o    1.860 --    71 h    0.826    72 h    0.798
    71   1 h    0.889 --    70 o    0.826
    72   1 h    0.876 --    70 o    0.798
    73   8 o    1.794 --    74 h    0.855    75 h    0.850
    74   1 h    0.887 --    73 o    0.855
    75   1 h    0.893 --    73 o    0.850
    76   8 o    1.909 --    78 h    0.839    77 h    0.796
    77   1 h    0.873 --    76 o    0.796
    78   1 h    0.873 --    76 o    0.839
    79   8 o    1.865 --    81 h    0.834    80 h    0.793
    80   1 h    0.872 --    79 o    0.793
    81   1 h    0.880 --    79 o    0.834
    82   8 o    1.854 --    83 h    0.830    84 h    0.788
    83   1 h    0.881 --    82 o    0.830
    84   1 h    0.876 --    82 o    0.788
    85   8 o    1.876 --    86 h    0.826    87 h    0.801
    86   1 h    0.893 --    85 o    0.826
    87   1 h    0.884 --    85 o    0.801
    88   8 o    1.881 --    90 h    0.842    89 h    0.776
    89   1 h    0.866 --    88 o    0.776
    90   1 h    0.879 --    88 o    0.842
    91   8 o    1.857 --    93 h    0.812    92 h    0.783
    92   1 h    0.873 --    91 o    0.783
    93   1 h    0.888 --    91 o    0.812
    94   8 o    1.802 --    96 h    0.807    95 h    0.799
    95   1 h    0.879 --    94 o    0.799
    96   1 h    0.886 --    94 o    0.807
    97   8 o    1.859 --    99 h    0.847    98 h    0.785
    98   1 h    0.872 --    97 o    0.785
    99   1 h    0.888 --    97 o    0.847
   100   8 o    1.836 --   101 h    0.818   102 h    0.807
   101   1 h    0.881 --   100 o    0.818
   102   1 h    0.879 --   100 o    0.807
   103   8 o    1.842 --   104 h    0.838   105 h    0.830
   104   1 h    0.884 --   103 o    0.838
   105   1 h    0.886 --   103 o    0.830
   106   8 o    1.873 --   107 h    0.855   108 h    0.809
   107   1 h    0.890 --   106 o    0.855
   108   1 h    0.874 --   106 o    0.809
   109   8 o    1.838 --   110 h    0.847   111 h    0.825
   110   1 h    0.893 --   109 o    0.847
   111   1 h    0.871 --   109 o    0.825
   112   8 o    1.870 --   113 h    0.828   114 h    0.810
   113   1 h    0.889 --   112 o    0.828
   114   1 h    0.880 --   112 o    0.810
   115   8 o    1.873 --   117 h    0.823   116 h    0.819
   116   1 h    0.888 --   115 o    0.819
   117   1 h    0.881 --   115 o    0.823
   118   8 o    1.871 --   120 h    0.837   119 h    0.820
   119   1 h    0.885 --   118 o    0.820
   120   1 h    0.870 --   118 o    0.837
   121   8 o    1.829 --   123 h    0.829   122 h    0.829
   122   1 h    0.881 --   121 o    0.829
   123   1 h    0.885 --   121 o    0.829
   124   8 o    1.854 --   126 h    0.831   125 h    0.810
   125   1 h    0.876 --   124 o    0.810
   126   1 h    0.880 --   124 o    0.831
   127   8 o    1.828 --   128 h    0.871   129 h    0.867
   128   1 h    0.890 --   127 o    0.871
   129   1 h    0.882 --   127 o    0.867
   130   8 o    1.849 --   131 h    0.819   132 h    0.816
   131   1 h    0.882 --   130 o    0.819
   132   1 h    0.881 --   130 o    0.816
   133   8 o    1.828 --   135 h    0.847   134 h    0.840
   134   1 h    0.895 --   133 o    0.840
   135   1 h    0.888 --   133 o    0.847
   136   8 o    1.866 --   137 h    0.816   138 h    0.806
   137   1 h    0.890 --   136 o    0.816
   138   1 h    0.877 --   136 o    0.806
   139   8 o    1.871 --   141 h    0.810   140 h    0.783
   140   1 h    0.870 --   139 o    0.783
   141   1 h    0.883 --   139 o    0.810
   142   8 o    1.855 --   144 h    0.817   143 h    0.793
   143   1 h    0.870 --   142 o    0.793
   144   1 h    0.885 --   142 o    0.817
   145   8 o    1.841 --   147 h    0.862   146 h    0.820
   146   1 h    0.877 --   145 o    0.820
   147   1 h    0.890 --   145 o    0.862
   148   8 o    1.843 --   150 h    0.842   149 h    0.790
   149   1 h    0.877 --   148 o    0.790
   150   1 h    0.877 --   148 o    0.842
   151   8 o    1.834 --   153 h    0.835   152 h    0.806
   152   1 h    0.871 --   151 o    0.806
   153   1 h    0.890 --   151 o    0.835
   154   8 o    1.846 --   155 h    0.871   156 h    0.849
   155   1 h    0.891 --   154 o    0.871
   156   1 h    0.885 --   154 o    0.849
   157   8 o    1.871 --   158 h    0.827   159 h    0.796
   158   1 h    0.882 --   157 o    0.827
   159   1 h    0.875 --   157 o    0.796
   160   8 o    1.816 --   161 h    0.861   162 h    0.844
   161   1 h    0.891 --   160 o    0.861
   162   1 h    0.883 --   160 o    0.844
   163   8 o    1.820 --   165 h    0.836   164 h    0.813
   164   1 h    0.875 --   163 o    0.813
   165   1 h    0.889 --   163 o    0.836
   166   8 o    1.878 --   168 h    0.811   167 h    0.779
   167   1 h    0.869 --   166 o    0.779
   168   1 h    0.868 --   166 o    0.811
   169   8 o    1.803 --   170 h    0.848   171 h    0.814
   170   1 h    0.891 --   169 o    0.848
   171   1 h    0.882 --   169 o    0.814
   172   8 o    1.825 --   174 h    0.832   173 h    0.823
   173   1 h    0.883 --   172 o    0.823
   174   1 h    0.890 --   172 o    0.832
   175   8 o    1.854 --   176 h    0.862   177 h    0.816
   176   1 h    0.891 --   175 o    0.862
   177   1 h    0.879 --   175 o    0.816
   178   8 o    1.834 --   179 h    0.853   180 h    0.852
   179   1 h    0.884 --   178 o    0.853
   180   1 h    0.883 --   178 o    0.852
   181   8 o    1.847 --   182 h    0.817   183 h    0.809
   182   1 h    0.877 --   181 o    0.817
   183   1 h    0.880 --   181 o    0.809
   184   8 o    1.837 --   186 h    0.841   185 h    0.809
   185   1 h    0.873 --   184 o    0.809
   186   1 h    0.888 --   184 o    0.841
   187   8 o    1.850 --   188 h    0.842   189 h    0.827
   188   1 h    0.882 --   187 o    0.842
   189   1 h    0.887 --   187 o    0.827
   190   8 o    1.838 --   191 h    0.867   192 h    0.823
   191   1 h    0.888 --   190 o    0.867
   192   1 h    0.875 --   190 o    0.823
   193   8 o    1.825 --   195 h    0.885   194 h    0.815
   194   1 h    0.886 --   193 o    0.815
   195   1 h    0.900 --   193 o    0.885
   196   8 o    1.836 --   197 h    0.877   198 h    0.771
   197   1 h    0.899 --   196 o    0.877
   198   1 h    0.865 --   196 o    0.771
   199   8 o    1.868 --   200 h    0.805   201 h    0.804
   200   1 h    0.882 --   199 o    0.805
   201   1 h    0.880 --   199 o    0.804
   202   8 o    1.858 --   203 h    0.866   204 h    0.814
   203   1 h    0.900 --   202 o    0.866
   204   1 h    0.878 --   202 o    0.814
   205   8 o    1.833 --   206 h    0.895   207 h    0.775
   206   1 h    0.903 --   205 o    0.895
   207   1 h    0.876 --   205 o    0.775
   208   8 o    1.864 --   210 h    0.818   209 h    0.800
   209   1 h    0.881 --   208 o    0.800
   210   1 h    0.889 --   208 o    0.818
   211   8 o    1.850 --   213 h    0.882   212 h    0.826
   212   1 h    0.866 --   211 o    0.826
   213   1 h    0.897 --   211 o    0.882
   214   8 o    1.850 --   215 h    0.825   216 h    0.813
   215   1 h    0.882 --   214 o    0.825
   216   1 h    0.884 --   214 o    0.813
   217   8 o    1.839 --   219 h    0.802   218 h    0.778
   218   1 h    0.867 --   217 o    0.778
   219   1 h    0.884 --   217 o    0.802
   220   8 o    1.876 --   222 h    0.834   221 h    0.796
   221   1 h    0.871 --   220 o    0.796
   222   1 h    0.877 --   220 o    0.834
   223   8 o    1.826 --   225 h    0.889   224 h    0.791
   224   1 h    0.874 --   223 o    0.791
   225   1 h    0.900 --   223 o    0.889
   226   8 o    1.815 --   228 h    0.880   227 h    0.796
   227   1 h    0.870 --   226 o    0.796
   228   1 h    0.899 --   226 o    0.880
   229   8 o    1.844 --   231 h    0.871   230 h    0.778
   230   1 h    0.873 --   229 o    0.778
   231   1 h    0.890 --   229 o    0.871
   232   8 o    1.817 --   234 h    0.846   233 h    0.812
   233   1 h    0.880 --   232 o    0.812
   234   1 h    0.889 --   232 o    0.846
   235   8 o    1.818 --   237 h    0.860   236 h    0.817
   236   1 h    0.883 --   235 o    0.817
   237   1 h    0.893 --   235 o    0.860
   238   8 o    1.860 --   239 h    0.872   240 h    0.791
   239   1 h    0.902 --   238 o    0.872
   240   1 h    0.878 --   238 o    0.791
   241   8 o    1.814 --   243 h    0.872   242 h    0.870
   242   1 h    0.893 --   241 o    0.870
   243   1 h    0.896 --   241 o    0.872
   244   8 o    1.808 --   246 h    0.870   245 h    0.818
   245   1 h    0.885 --   244 o    0.818
   246   1 h    0.891 --   244 o    0.870
   247   8 o    1.868 --   249 h    0.853   248 h    0.807
   248   1 h    0.870 --   247 o    0.807
   249   1 h    0.885 --   247 o    0.853
   250   8 o    1.833 --   252 h    0.877   251 h    0.829
   251   1 h    0.894 --   250 o    0.829
   252   1 h    0.901 --   250 o    0.877
   253   8 o    1.842 --   255 h    0.839   254 h    0.803
   254   1 h    0.881 --   253 o    0.803
   255   1 h    0.896 --   253 o    0.839
   256   8 o    1.833 --   258 h    0.845   257 h    0.781
   257   1 h    0.871 --   256 o    0.781
   258   1 h    0.897 --   256 o    0.845
   259   8 o    1.820 --   261 h    0.856   260 h    0.820
   260   1 h    0.884 --   259 o    0.820
   261   1 h    0.893 --   259 o    0.856
   262   8 o    1.845 --   263 h    0.841   264 h    0.829
   263   1 h    0.884 --   262 o    0.841
   264   1 h    0.884 --   262 o    0.829
   265   8 o    1.851 --   267 h    0.854   266 h    0.840
   266   1 h    0.887 --   265 o    0.840
   267   1 h    0.895 --   265 o    0.854
   268   8 o    1.865 --   269 h    0.842   270 h    0.839
   269   1 h    0.884 --   268 o    0.842
   270   1 h    0.884 --   268 o    0.839
   271   8 o    1.818 --   272 h    0.842   273 h    0.823
   272   1 h    0.891 --   271 o    0.842
   273   1 h    0.883 --   271 o    0.823
   274   8 o    1.857 --   275 h    0.841   276 h    0.809
   275   1 h    0.887 --   274 o    0.841
   276   1 h    0.872 --   274 o    0.809
   277   8 o    1.848 --   278 h    0.900   279 h    0.791
   278   1 h    0.904 --   277 o    0.900
   279   1 h    0.876 --   277 o    0.791
   280   8 o    1.858 --   281 h    0.848   282 h    0.825
   281   1 h    0.888 --   280 o    0.848
   282   1 h    0.882 --   280 o    0.825
   283   8 o    1.838 --   285 h    0.888   284 h    0.807
   284   1 h    0.870 --   283 o    0.807
   285   1 h    0.906 --   283 o    0.888
   286   8 o    1.848 --   287 h    0.869   288 h    0.843
   287   1 h    0.897 --   286 o    0.869
   288   1 h    0.890 --   286 o    0.843
   289   8 o    1.851 --   290 h    0.838   291 h    0.813
   290   1 h    0.892 --   289 o    0.838
   291   1 h    0.870 --   289 o    0.813
   292   8 o    1.852 --   294 h    0.852   293 h    0.777
   293   1 h    0.864 --   292 o    0.777
   294   1 h    0.895 --   292 o    0.852
   295   8 o    1.847 --   297 h    0.876   296 h    0.819
   296   1 h    0.871 --   295 o    0.819
   297   1 h    0.894 --   295 o    0.876
   298   8 o    1.867 --   300 h    0.831   299 h    0.828
   299   1 h    0.876 --   298 o    0.828
   300   1 h    0.887 --   298 o    0.831
   301   8 o    1.836 --   303 h    0.890   302 h    0.800
   302   1 h    0.880 --   301 o    0.800
   303   1 h    0.900 --   301 o    0.890
   304   8 o    1.808 --   306 h    0.862   305 h    0.860
   305   1 h    0.887 --   304 o    0.860
   306   1 h    0.890 --   304 o    0.862
   307   8 o    1.871 --   309 h    0.836   308 h    0.827
   308   1 h    0.892 --   307 o    0.827
   309   1 h    0.880 --   307 o    0.836
   310   8 o    1.849 --   311 h    0.850   312 h    0.833
   311   1 h    0.901 --   310 o    0.850
   312   1 h    0.883 --   310 o    0.833
   313   8 o    1.838 --   315 h    0.835   314 h    0.823
   314   1 h    0.877 --   313 o    0.823
   315   1 h    0.898 --   313 o    0.835
   316   8 o    1.857 --   318 h    0.858   317 h    0.803
   317   1 h    0.877 --   316 o    0.803
   318   1 h    0.891 --   316 o    0.858
   319   8 o    1.827 --   320 h    0.823   321 h    0.817
   320   1 h    0.878 --   319 o    0.823
   321   1 h    0.884 --   319 o    0.817
   322   8 o    1.849 --   323 h    0.836   324 h    0.820
   323   1 h    0.873 --   322 o    0.836
   324   1 h    0.888 --   322 o    0.820
   325   8 o    1.823 --   327 h    0.874   326 h    0.820
   326   1 h    0.875 --   325 o    0.820
   327   1 h    0.896 --   325 o    0.874
   328   8 o    1.820 --   330 h    0.813   329 h    0.790
   329   1 h    0.873 --   328 o    0.790
   330   1 h    0.882 --   328 o    0.813
   331   8 o    1.857 --   333 h    0.842   332 h    0.835
   332   1 h    0.888 --   331 o    0.835
   333   1 h    0.890 --   331 o    0.842
   334   8 o    1.885 --   336 h    0.824   335 h    0.817
   335   1 h    0.876 --   334 o    0.817
   336   1 h    0.883 --   334 o    0.824
   337   8 o    1.844 --   339 h    0.808   338 h    0.785
   338   1 h    0.872 --   337 o    0.785
   339   1 h    0.881 --   337 o    0.808
   340   8 o    1.847 --   341 h    0.867   342 h    0.811
   341   1 h    0.892 --   340 o    0.867
   342   1 h    0.875 --   340 o    0.811
   343   8 o    1.837 --   344 h    0.859   345 h    0.805
   344   1 h    0.891 --   343 o    0.859
   345   1 h    0.870 --   343 o    0.805
   346   8 o    1.819 --   347 h    0.834   348 h    0.820
   347   1 h    0.885 --   346 o    0.834
   348   1 h    0.889 --   346 o    0.820
   349   8 o    1.879 --   350 h    0.830   351 h    0.812
   350   1 h    0.882 --   349 o    0.830
   351   1 h    0.878 --   349 o    0.812
   352   8 o    1.857 --   354 h    0.872   353 h    0.834
   353   1 h    0.883 --   352 o    0.834
   354   1 h    0.895 --   352 o    0.872
   355   8 o    1.891 --   356 h    0.836   357 h    0.787
   356   1 h    0.891 --   355 o    0.836
   357   1 h    0.870 --   355 o    0.787
   358   8 o    1.831 --   360 h    0.860   359 h    0.804
   359   1 h    0.877 --   358 o    0.804
   360   1 h    0.894 --   358 o    0.860
   361   8 o    1.841 --   362 h    0.871   363 h    0.820
   362   1 h    0.896 --   361 o    0.871
   363   1 h    0.880 --   361 o    0.820
   364   8 o    1.892 --   365 h    0.807   366 h    0.796
[...]
   370   8 o    1.808 --   372 h    0.859   371 h    0.831
   371   1 h    0.884 --   370 o    0.831
   372   1 h    0.890 --   370 o    0.859
   373   8 o    1.862 --   374 h    0.843   375 h    0.829
   374   1 h    0.892 --   373 o    0.843
   375   1 h    0.885 --   373 o    0.829
   376   8 o    1.870 --   378 h    0.827   377 h    0.825
   377   1 h    0.891 --   376 o    0.825
   378   1 h    0.885 --   376 o    0.827
   379   8 o    1.840 --   381 h    0.824   380 h    0.796
   380   1 h    0.877 --   379 o    0.796
   381   1 h    0.877 --   379 o    0.824
   382   8 o    1.881 --   384 h    0.825   383 h    0.812
   383   1 h    0.877 --   382 o    0.812
   384   1 h    0.894 --   382 o    0.825
   385   8 o    1.828 --   387 h    0.859   386 h    0.845
   386   1 h    0.886 --   385 o    0.845
   387   1 h    0.894 --   385 o    0.859
   388   8 o    1.895 --   389 h    0.814   390 h    0.790   713 h    0.101
   389   1 h    0.876 --   388 o    0.814
   390   1 h    0.867 --   388 o    0.790
   391   8 o    1.807 --   393 h    0.892   392 h    0.807
   392   1 h    0.882 --   391 o    0.807
   393   1 h    0.901 --   391 o    0.892
   394   8 o    1.821 --   395 h    0.862   396 h    0.844
   395   1 h    0.885 --   394 o    0.862
   396   1 h    0.887 --   394 o    0.844
   397   8 o    1.845 --   399 h    0.896   398 h    0.795
   398   1 h    0.872 --   397 o    0.795
   399   1 h    0.900 --   397 o    0.896
   400   8 o    1.878 --   402 h    0.839   401 h    0.814
   401   1 h    0.885 --   400 o    0.814
   402   1 h    0.870 --   400 o    0.839
   403   8 o    1.878 --   405 h    0.831   404 h    0.788
   404   1 h    0.870 --   403 o    0.788
   405   1 h    0.889 --   403 o    0.831
   406   8 o    1.837 --   408 h    0.898   407 h    0.791
   407   1 h    0.876 --   406 o    0.791
   408   1 h    0.904 --   406 o    0.898
   409   8 o    1.825 --   410 h    0.869   411 h    0.842
   410   1 h    0.886 --   409 o    0.869
   411   1 h    0.894 --   409 o    0.842
   412   8 o    1.873 --   414 h    0.794   413 h    0.792
   413   1 h    0.873 --   412 o    0.792
   414   1 h    0.871 --   412 o    0.794
   415   8 o    1.845 --   416 h    0.841   417 h    0.804
   416   1 h    0.899 --   415 o    0.841
   417   1 h    0.879 --   415 o    0.804
   418   8 o    1.869 --   420 h    0.844   419 h    0.828
   419   1 h    0.881 --   418 o    0.828
   420   1 h    0.893 --   418 o    0.844
   421   8 o    1.890 --   422 h    0.826   423 h    0.807
   422   1 h    0.879 --   421 o    0.826
   423   1 h    0.877 --   421 o    0.807
   424   8 o    1.801 --   425 h    0.838   426 h    0.834
   425   1 h    0.890 --   424 o    0.838
   426   1 h    0.886 --   424 o    0.834
   427   8 o    1.852 --   429 h    0.854   428 h    0.829
   428   1 h    0.878 --   427 o    0.829
   429   1 h    0.891 --   427 o    0.854
   430   8 o    1.821 --   431 h    0.858   432 h    0.820
   431   1 h    0.890 --   430 o    0.858
   432   1 h    0.879 --   430 o    0.820
   433   8 o    1.883 --   435 h    0.861   434 h    0.797
   434   1 h    0.864 --   433 o    0.797
   435   1 h    0.887 --   433 o    0.861
   436   8 o    1.816 --   438 h    0.852   437 h    0.815
   437   1 h    0.881 --   436 o    0.815
   438   1 h    0.894 --   436 o    0.852
   439   8 o    1.848 --   440 h    0.882   441 h    0.861
   440   1 h    0.894 --   439 o    0.882
   441   1 h    0.886 --   439 o    0.861
   442   8 o    1.821 --   444 h    0.844   443 h    0.835
   443   1 h    0.878 --   442 o    0.835
   444   1 h    0.898 --   442 o    0.844
   445   8 o    1.814 --   447 h    0.851   446 h    0.815
   446   1 h    0.882 --   445 o    0.815
   447   1 h    0.892 --   445 o    0.851
   448   8 o    1.823 --   450 h    0.895   449 h    0.810
   449   1 h    0.882 --   448 o    0.810
   450   1 h    0.901 --   448 o    0.895
   451   8 o    1.806 --   453 h    0.852   452 h    0.829
   452   1 h    0.888 --   451 o    0.829
   453   1 h    0.899 --   451 o    0.852
   454   8 o    1.848 --   455 h    0.841   456 h    0.830
   455   1 h    0.884 --   454 o    0.841
   456   1 h    0.887 --   454 o    0.830
   457   8 o    1.852 --   458 h    0.841   459 h    0.811
   458   1 h    0.878 --   457 o    0.841
   459   1 h    0.881 --   457 o    0.811
   460   8 o    1.870 --   462 h    0.807   461 h    0.805
   461   1 h    0.881 --   460 o    0.805
   462   1 h    0.877 --   460 o    0.807
   463   8 o    1.856 --   464 h    0.828   465 h    0.824
   464   1 h    0.891 --   463 o    0.828
   465   1 h    0.883 --   463 o    0.824
   466   8 o    1.854 --   468 h    0.830   467 h    0.823
   467   1 h    0.885 --   466 o    0.823
   468   1 h    0.888 --   466 o    0.830
   469   8 o    1.841 --   470 h    0.848   471 h    0.807
   470   1 h    0.888 --   469 o    0.848
   471   1 h    0.873 --   469 o    0.807
   472   8 o    1.809 --   474 h    0.878   473 h    0.868
   473   1 h    0.890 --   472 o    0.868
   474   1 h    0.898 --   472 o    0.878
   475   8 o    1.863 --   476 h    0.814   477 h    0.802
   476   1 h    0.883 --   475 o    0.814
   477   1 h    0.883 --   475 o    0.802
   478   8 o    1.871 --   480 h    0.872   479 h    0.767
   479   1 h    0.862 --   478 o    0.767
   480   1 h    0.897 --   478 o    0.872
   481   8 o    1.850 --   483 h    0.857   482 h    0.825
   482   1 h    0.882 --   481 o    0.825
   483   1 h    0.884 --   481 o    0.857
   484   8 o    1.836 --   485 h    0.857   486 h    0.835
   485   1 h    0.895 --   484 o    0.857
   486   1 h    0.888 --   484 o    0.835
   487   8 o    1.823 --   489 h    0.849   488 h    0.821
   488   1 h    0.878 --   487 o    0.821
   489   1 h    0.890 --   487 o    0.849
   490   8 o    1.819 --   491 h    0.862   492 h    0.823
   491   1 h    0.894 --   490 o    0.862
   492   1 h    0.883 --   490 o    0.823
   493   8 o    1.859 --   495 h    0.861   494 h    0.826
   494   1 h    0.874 --   493 o    0.826
   495   1 h    0.891 --   493 o    0.861
   496   8 o    1.833 --   498 h    0.894   497 h    0.828
   497   1 h    0.879 --   496 o    0.828
   498   1 h    0.899 --   496 o    0.894
   499   8 o    1.843 --   501 h    0.868   500 h    0.812
   500   1 h    0.872 --   499 o    0.812
   501   1 h    0.895 --   499 o    0.868
   502   8 o    1.866 --   503 h    0.840   504 h    0.816
   503   1 h    0.893 --   502 o    0.840
   504   1 h    0.887 --   502 o    0.816
   505   8 o    1.812 --   506 h    0.833   507 h    0.828
   506   1 h    0.884 --   505 o    0.833
   507   1 h    0.889 --   505 o    0.828
   508   8 o    1.847 --   510 h    0.816   509 h    0.784
   509   1 h    0.874 --   508 o    0.784
   510   1 h    0.882 --   508 o    0.816
   511   8 o    1.829 --   512 h    0.851   513 h    0.814
   512   1 h    0.891 --   511 o    0.851
   513   1 h    0.888 --   511 o    0.814
   514   8 o    1.877 --   515 h    0.829   516 h    0.787
   515   1 h    0.895 --   514 o    0.829
   516   1 h    0.869 --   514 o    0.787
   517   8 o    1.837 --   519 h    0.876   518 h    0.797
   518   1 h    0.870 --   517 o    0.797
   519   1 h    0.899 --   517 o    0.876
   520   8 o    1.838 --   522 h    0.856   521 h    0.827
   521   1 h    0.880 --   520 o    0.827
   522   1 h    0.885 --   520 o    0.856
   523   8 o    1.853 --   524 h    0.887   525 h    0.817
   524   1 h    0.901 --   523 o    0.887
   525   1 h    0.871 --   523 o    0.817
   526   8 o    1.843 --   527 h    0.845   528 h    0.808
   527   1 h    0.891 --   526 o    0.845
   528   1 h    0.872 --   526 o    0.808
   529   8 o    1.840 --   530 h    0.833   531 h    0.803
   530   1 h    0.895 --   529 o    0.833
   531   1 h    0.873 --   529 o    0.803
   532   8 o    1.879 --   533 h    0.827   534 h    0.826
   533   1 h    0.883 --   532 o    0.827
   534   1 h    0.881 --   532 o    0.826
   535   8 o    1.855 --   536 h    0.861   537 h    0.807
   536   1 h    0.891 --   535 o    0.861
   537   1 h    0.879 --   535 o    0.807
   538   8 o    1.822 --   540 h    0.875   539 h    0.862
   539   1 h    0.888 --   538 o    0.862
   540   1 h    0.892 --   538 o    0.875
   541   8 o    1.826 --   542 h    0.844   543 h    0.835
   542   1 h    0.887 --   541 o    0.844
   543   1 h    0.883 --   541 o    0.835
   544   8 o    1.869 --   545 h    0.826   546 h    0.822
   545   1 h    0.892 --   544 o    0.826
   546   1 h    0.891 --   544 o    0.822
   547   8 o    1.852 --   548 h    0.822   549 h    0.784
   548   1 h    0.886 --   547 o    0.822
   549   1 h    0.866 --   547 o    0.784
   550   8 o    1.815 --   552 h    0.818   551 h    0.815
   551   1 h    0.891 --   550 o    0.815
   552   1 h    0.879 --   550 o    0.818
   553   8 o    1.830 --   554 h    0.886   555 h    0.835
   554   1 h    0.894 --   553 o    0.886
   555   1 h    0.880 --   553 o    0.835
   556   8 o    1.867 --   557 h    0.857   558 h    0.806
   557   1 h    0.897 --   556 o    0.857
   558   1 h    0.889 --   556 o    0.806
   559   8 o    1.859 --   561 h    0.880   560 h    0.803
   560   1 h    0.867 --   559 o    0.803
   561   1 h    0.898 --   559 o    0.880
   562   8 o    1.863 --   564 h    0.811   563 h    0.807
   563   1 h    0.886 --   562 o    0.807
   564   1 h    0.870 --   562 o    0.811
   565   8 o    1.810 --   566 h    0.867   567 h    0.825
   566   1 h    0.896 --   565 o    0.867
   567   1 h    0.877 --   565 o    0.825
   568   8 o    1.861 --   569 h    0.833   570 h    0.777
   569   1 h    0.890 --   568 o    0.833
   570   1 h    0.872 --   568 o    0.777
   571   8 o    1.881 --   573 h    0.859   572 h    0.803
   572   1 h    0.873 --   571 o    0.803
   573   1 h    0.895 --   571 o    0.859
   574   8 o    1.873 --   575 h    0.832   576 h    0.783
   575   1 h    0.881 --   574 o    0.832
   576   1 h    0.872 --   574 o    0.783
   577   8 o    1.821 --   579 h    0.834   578 h    0.829
   578   1 h    0.891 --   577 o    0.829
   579   1 h    0.884 --   577 o    0.834
   580   8 o    1.805 --   581 h    0.857   582 h    0.827
   581   1 h    0.893 --   580 o    0.857
   582   1 h    0.891 --   580 o    0.827
   583   8 o    1.834 --   584 h    0.838   585 h    0.817
   584   1 h    0.889 --   583 o    0.838
   585   1 h    0.884 --   583 o    0.817
   586   8 o    1.847 --   588 h    0.844   587 h    0.812
   587   1 h    0.878 --   586 o    0.812
   588   1 h    0.893 --   586 o    0.844
   589   8 o    1.883 --   590 h    0.823   591 h    0.809
   590   1 h    0.880 --   589 o    0.823
   591   1 h    0.885 --   589 o    0.809
   592   8 o    1.837 --   594 h    0.807   593 h    0.806
   593   1 h    0.888 --   592 o    0.806
   594   1 h    0.892 --   592 o    0.807
   595   8 o    1.839 --   597 h    0.897   596 h    0.820
   596   1 h    0.880 --   595 o    0.820
   597   1 h    0.900 --   595 o    0.897
   598   8 o    1.851 --   600 h    0.886   599 h    0.773
   599   1 h    0.864 --   598 o    0.773
   600   1 h    0.902 --   598 o    0.886
   601   8 o    1.818 --   603 h    0.894   602 h    0.831
   602   1 h    0.883 --   601 o    0.831
   603   1 h    0.901 --   601 o    0.894
   604   8 o    1.821 --   605 h    0.870   606 h    0.826
   605   1 h    0.893 --   604 o    0.870
   606   1 h    0.882 --   604 o    0.826
   607   8 o    1.836 --   609 h    0.853   608 h    0.829
   608   1 h    0.882 --   607 o    0.829
   609   1 h    0.896 --   607 o    0.853
   610   8 o    1.809 --   611 h    0.860   612 h    0.839
   611   1 h    0.890 --   610 o    0.860
   612   1 h    0.885 --   610 o    0.839
   613   8 o    1.828 --   615 h    0.865   614 h    0.851
   614   1 h    0.886 --   613 o    0.851
   615   1 h    0.889 --   613 o    0.865
   616   8 o    1.812 --   617 h    0.880   618 h    0.858
   617   1 h    0.895 --   616 o    0.880
   618   1 h    0.886 --   616 o    0.858
   619   8 o    1.826 --   620 h    0.876   621 h    0.813
   620   1 h    0.894 --   619 o    0.876
   621   1 h    0.876 --   619 o    0.813
   622   8 o    1.845 --   624 h    0.831   623 h    0.822
   623   1 h    0.878 --   622 o    0.822
   624   1 h    0.881 --   622 o    0.831
   625   8 o    1.831 --   626 h    0.857   627 h    0.848
   626   1 h    0.886 --   625 o    0.857
   627   1 h    0.888 --   625 o    0.848
   628   8 o    1.883 --   629 h    0.821   630 h    0.810
   629   1 h    0.884 --   628 o    0.821
   630   1 h    0.876 --   628 o    0.810
   631   8 o    1.880 --   633 h    0.812   632 h    0.796
   632   1 h    0.869 --   631 o    0.796
   633   1 h    0.878 --   631 o    0.812
   634   8 o    1.822 --   636 h    0.853   635 h    0.844
   635   1 h    0.886 --   634 o    0.844
   636   1 h    0.889 --   634 o    0.853
   637   8 o    1.841 --   639 h    0.868   638 h    0.806
   638   1 h    0.881 --   637 o    0.806
   639   1 h    0.893 --   637 o    0.868
   640   8 o    1.850 --   641 h    0.851   642 h    0.814
   641   1 h    0.896 --   640 o    0.851
   642   1 h    0.874 --   640 o    0.814
   643   8 o    1.854 --   645 h    0.836   644 h    0.828
   644   1 h    0.882 --   643 o    0.828
   645   1 h    0.886 --   643 o    0.836
   646   8 o    1.856 --   647 h    0.857   648 h    0.786
   647   1 h    0.897 --   646 o    0.857
   648   1 h    0.870 --   646 o    0.786
   649   8 o    1.838 --   651 h    0.836   650 h    0.806
   650   1 h    0.874 --   649 o    0.806
   651   1 h    0.895 --   649 o    0.836
   652   8 o    1.839 --   654 h    0.850   653 h    0.828
   653   1 h    0.894 --   652 o    0.828
   654   1 h    0.893 --   652 o    0.850
   655   8 o    1.882 --   657 h    0.832   656 h    0.830
   656   1 h    0.881 --   655 o    0.830
   657   1 h    0.868 --   655 o    0.832
   658   8 o    1.864 --   660 h    0.819   659 h    0.817
   659   1 h    0.870 --   658 o    0.817
   660   1 h    0.893 --   658 o    0.819
   661   8 o    1.858 --   662 h    0.854   663 h    0.811
   662   1 h    0.887 --   661 o    0.854
   663   1 h    0.892 --   661 o    0.811
   664   8 o    1.852 --   666 h    0.894   665 h    0.773
   665   1 h    0.871 --   664 o    0.773
   666   1 h    0.900 --   664 o    0.894
   667   8 o    1.832 --   668 h    0.846   669 h    0.839
   668   1 h    0.887 --   667 o    0.846
   669   1 h    0.892 --   667 o    0.839
   670   8 o    1.877 --   672 h    0.850   671 h    0.783
   671   1 h    0.872 --   670 o    0.783
   672   1 h    0.887 --   670 o    0.850
   673   8 o    1.887 --   674 h    0.823   675 h    0.788
   674   1 h    0.884 --   673 o    0.823
   675   1 h    0.872 --   673 o    0.788
   676   8 o    1.834 --   677 h    0.829   678 h    0.803
   677   1 h    0.889 --   676 o    0.829
   678   1 h    0.889 --   676 o    0.803
   679   8 o    1.830 --   680 h    0.859   681 h    0.814
   680   1 h    0.890 --   679 o    0.859
   681   1 h    0.878 --   679 o    0.814
   682   8 o    1.871 --   684 h    0.826   683 h    0.819
   683   1 h    0.889 --   682 o    0.819
   684   1 h    0.877 --   682 o    0.826
   685   8 o    1.868 --   687 h    0.828   686 h    0.808
   686   1 h    0.889 --   685 o    0.808
   687   1 h    0.873 --   685 o    0.828
   688   8 o    1.838 --   689 h    0.827   690 h    0.794
   689   1 h    0.886 --   688 o    0.827
   690   1 h    0.878 --   688 o    0.794
   691   8 o    1.847 --   693 h    0.862   692 h    0.788
   692   1 h    0.868 --   691 o    0.788
   693   1 h    0.893 --   691 o    0.862
   694   8 o    1.804 --   695 h    0.865   696 h    0.818
   695   1 h    0.891 --   694 o    0.865
   696   1 h    0.885 --   694 o    0.818
   697   8 o    1.829 --   698 h    0.858   699 h    0.810
   698   1 h    0.896 --   697 o    0.858
   699   1 h    0.870 --   697 o    0.810
   700   8 o    1.819 --   702 h    0.881   701 h    0.810
   701   1 h    0.877 --   700 o    0.810
   702   1 h    0.904 --   700 o    0.881
   703   8 o    1.854 --   704 h    0.833   705 h    0.828
   704   1 h    0.877 --   703 o    0.833
   705   1 h    0.888 --   703 o    0.828
   706   8 o    1.849 --   707 h    0.830   708 h    0.822
   707   1 h    0.881 --   706 o    0.830
   708   1 h    0.882 --   706 o    0.822
   709   8 o    1.835 --   710 h    0.827   711 h    0.811
   710   1 h    0.882 --   709 o    0.827
   711   1 h    0.880 --   709 o    0.811
   712   8 o    1.828 --   714 h    0.886   713 h    0.759
   713   1 h    0.865 --   712 o    0.759   388 o    0.101
   714   1 h    0.901 --   712 o    0.886
   715   8 o    1.823 --   717 h    0.865   716 h    0.847
   716   1 h    0.883 --   715 o    0.847
   717   1 h    0.892 --   715 o    0.865
   718   8 o    1.824 --   720 h    0.827   719 h    0.788
   719   1 h    0.872 --   718 o    0.788
   720   1 h    0.892 --   718 o    0.827
   721   8 o    1.857 --   722 h    0.899   723 h    0.794
   722   1 h    0.904 --   721 o    0.899
   723   1 h    0.871 --   721 o    0.794
   724   8 o    1.831 --   726 h    0.833   725 h    0.833
   725   1 h    0.885 --   724 o    0.833
   726   1 h    0.889 --   724 o    0.833
   727   8 o    1.805 --   728 h    0.863   729 h    0.833
   728   1 h    0.890 --   727 o    0.863
   729   1 h    0.887 --   727 o    0.833
   730   8 o    1.831 --   731 h    0.829   732 h    0.769
   731   1 h    0.888 --   730 o    0.829
   732   1 h    0.870 --   730 o    0.769
   733   8 o    1.856 --   735 h    0.827   734 h    0.820
   734   1 h    0.886 --   733 o    0.820
   735   1 h    0.890 --   733 o    0.827
   736   8 o    1.858 --   738 h    0.886   737 h    0.846
   737   1 h    0.885 --   736 o    0.846
   738   1 h    0.900 --   736 o    0.886
   739   8 o    1.830 --   740 h    0.852   741 h    0.822
   740   1 h    0.891 --   739 o    0.852
   741   1 h    0.879 --   739 o    0.822
   742   8 o    1.843 --   743 h    0.850   744 h    0.847
   743   1 h    0.885 --   742 o    0.850
   744   1 h    0.883 --   742 o    0.847
   745   8 o    1.854 --   747 h    0.850   746 h    0.825
   746   1 h    0.884 --   745 o    0.825
   747   1 h    0.891 --   745 o    0.850
   748   8 o    1.854 --   750 h    0.823   749 h    0.768
   749   1 h    0.873 --   748 o    0.768
   750   1 h    0.882 --   748 o    0.823
   751   8 o    1.818 --   752 h    0.885   753 h    0.861
   752   1 h    0.900 --   751 o    0.885
   753   1 h    0.889 --   751 o    0.861
   754   8 o    1.788 --   755 h    0.871   756 h    0.855
   755   1 h    0.898 --   754 o    0.871
   756   1 h    0.899 --   754 o    0.855
 ---------------------------------------------------------------------------

Topologies differ in total number of bonds
Writing topology from bond orders to xtbtopo.mol

molecular dipole:
                 x           y           z       tot (Debye)
 q only:        4.597       4.514      -0.539
   full:        5.338       4.471      -0.534      17.749
molecular quadrupole (traceless):
                xx          xy          yy          xz          yz          zz
 q only:      210.197     -35.135    -110.385      31.089     -10.775     -99.812
  q+dip:      270.645     -26.724    -140.988      39.495      -7.619    -129.657
   full:      273.763     -26.483    -142.683      40.008      -6.997    -131.079


           -------------------------------------------------
          | TOTAL ENERGY            -1283.561423684040 Eh   |
          | GRADIENT NORM               0.121681567627 Eh/α |
          | HOMO-LUMO GAP               6.821292758483 eV   |
           -------------------------------------------------

------------------------------------------------------------------------
 * finished run on 2022/11/24 at 12:21:37.637     
------------------------------------------------------------------------
 total:
 * wall-time:     0 d,  0 h,  0 min, 20.953 sec
 *  cpu-time:     0 d,  0 h,  0 min, 33.420 sec
 * ratio c/w:     1.595 speedup
 SCF:
 * wall-time:     0 d,  0 h,  0 min, 19.940 sec
 *  cpu-time:     0 d,  0 h,  0 min, 31.707 sec
 * ratio c/w:     1.590 speedup

