756
 energy: -1283.297935022598 gnorm: 0.023453316528 xtb: 6.5.1 (579679a)
o            6.96883471825214       -6.19805809896211       -2.41936778363812
h            7.45338704779668       -6.42745271727965       -1.62294684412801
h            6.23026313607468       -6.82302505907979       -2.47177524837584
o            0.95871167355369        3.97247466344563        4.09716187187713
h            0.22960380069792        4.51571405294510        4.44159311722213
h            1.48606787742697        4.58862135098103        3.53906900005538
o           -2.76931380637134       -0.16614297088583       -3.16829020725559
h           -2.05023937648488       -0.81843999766773       -3.17741171860923
h           -2.42503720191223        0.64216561942157       -2.75242421833836
o           -5.57026304250741        1.60115591044958        1.53077120637945
h           -5.33504282583063        2.10287084340180        0.72282526423841
h           -6.11654503712468        2.17202617378559        2.09555841558014
o           -3.05080549135498        3.53386668053833        0.69841453530315
h           -3.53712485043596        3.78929972614009        1.50213020473702
h           -2.12423614261949        3.40668234343801        0.97132489638342
o           -4.64114688150781       -4.91963291807076       -1.67650243445903
h           -5.01881843076861       -4.92723895686534       -2.57828955309363
h           -4.31010306962123       -3.99989160560195       -1.53565258812669
o           -1.63112201166934       -4.03571700347784       -0.82679680699224
h           -1.02068824070335       -4.79332018968958       -0.82138023289473
h           -2.39899267672852       -4.27989138762448       -0.29310245280662
o            0.27467758341609       -6.01549281200007       -0.99503486548384
h            0.19754779707191       -6.50243425672334       -1.83746328172577
h            1.20657682665734       -5.74986762554411       -0.92732181896568
o           -1.31747757446813       -2.85996212426101        2.58268135718623
h           -2.24623793080046       -2.74113991708530        2.86880036954132
h           -1.21350095861515       -3.82053050164246        2.44409311624439
o           -2.39606726099977        4.45968371864347       -4.82168379005826
h           -2.84384590745625        4.15051888052686       -5.63425824987022
h           -1.52723993400720        4.77823392608949       -5.12164441202874
o           -4.93547302770146        0.30290817529708       -1.55053954254536
h           -4.92377284318693        1.25514460535142       -1.39734714395843
h           -4.20567092441044        0.08914912172886       -2.15487761207667
o           -4.10170192805629        2.78798426373886       -3.45016480090391
h           -3.54159099712147        3.35097240520654       -4.00016629787626
h           -3.53857843110102        2.55632133673194       -2.68970374515720
o           -3.93000389738575       -2.40335538322370       -1.51127629048819
h           -4.73472908202564       -2.05862987030640       -1.08903184546298
h           -4.00538584059226       -2.18899541031156       -2.45362980035919
o           -5.16516462539115        2.93967183206603       -0.72660254098820
h           -5.59563901195306        3.75236649346648       -0.36142193786847
h           -4.22478443523691        3.08488824529316       -0.52136835422905
o           -2.31391375142166        2.00335342123473       -1.60912877280974
h           -1.39370060969655        2.32242408313242       -1.57914407509151
h           -2.50729269058058        1.76624289233309       -0.68517184583193
o           -0.44775585395844        2.41632217742089       -3.90748166197529
h           -1.29326249071509        2.17405460769781       -4.35791088628575
h           -0.58570873425974        3.25947110629598       -3.43968472537605
o           -0.11910493114986        0.57564808989318        2.30068493584923
h           -0.06723575326214        0.05404385118585        3.12176766967165
h            0.60454069321260        1.22538263481281        2.30765871380219
o           -2.76499505887208       -1.77277631872707        7.78821769573202
h           -2.26878540440887       -2.61144491581773        7.82217192978161
h           -3.50004538147583       -1.90642587592718        7.16804552826971
o           -3.75568382945889       -4.87291949840486        0.92890931341841
h           -4.52233791603082       -4.32082136762702        1.16559102345977
h           -4.13167684007502       -5.70520033848845        0.59824633889637
o           -1.36765199161339        1.90973911462004        6.07409369936317
h           -1.50036667670056        2.39996873643790        5.22898662087011
h           -2.25197986416776        1.65772139780160        6.39001691295314
o           -5.18334548300452       -0.96631475354810        2.01624970943834
h           -5.43065296625999       -1.34680990964720        1.16691173483719
h           -5.26042906535287        0.00109246299879        1.92201881618085
o            3.91029362111464        0.80348421115519        3.08923088709034
h            4.26633902718169        1.39489578718580        3.76767223494624
h            3.42039648646560        0.09332452864164        3.56125263649763
o           -0.50538076251225       -1.71139726162148       -3.14228397546797
h            0.08019998985908       -0.95231540444701       -2.92831418421940
h           -0.25082594202914       -2.41189702673103       -2.53022791105265
o           -0.47938017592467        4.82811882006106       -2.62381768956964
h           -0.67806224869139        5.64140148860738       -3.12948749235545
h            0.49909229369543        4.73784045923707       -2.64062603771024
o           -0.52107791315569       -0.12550193175619        7.86270053782178
h           -0.79209963571131        0.60171279247483        7.29469648571947
h           -1.27048551552793       -0.73875799856045        7.90342368154370
o           -3.40131728543574        1.42391526469343        3.31201828502059
h           -4.32836809442684        1.34260048763764        3.61622323699767
h           -3.37805810849346        1.34704420972499        2.34187259102791
o           -7.49615717482830        0.33726460440981        0.20305835086080
h           -6.87175188525916        0.79469537967023        0.80248377204797
h           -7.77896295969056        0.98804379343225       -0.45112774984588
o            1.96712456909577        2.28181430429983        2.12471303177515
h            1.60063349079779        2.91595164826637        2.75607584259920
h            2.71599159731830        1.80246381287296        2.54902607240904
o           -2.64736856718475       -0.95467749862767       -5.85301962837423
h           -3.10671304796836       -1.17218123304821       -6.68729131347286
h           -1.72504189975558       -1.28159817739697       -5.93527537944251
o            3.41256329609259       -2.00518812666470       -1.93495285178080
h            3.86243738705418       -1.20520324718453       -2.29393844257494
h            3.99785840959066       -2.75952802247913       -2.08857352232813
o           -2.42827236591211       -4.33788568794353       -3.33824440988774
h           -2.20834049891658       -4.16208262805424       -2.39151998592162
h           -1.57991792101973       -4.25464981576624       -3.81539671261896
o           -7.30486724257603        0.29590207874716       -2.71893850484498
h           -6.44993587609376        0.14426975821523       -2.26760977691764
h           -7.17294312221543        1.13694071751775       -3.19935708727282
o            2.46799706622659       -0.98109278667690        4.37780918443970
h            2.02625673021009       -1.44708120774393        3.62829654007728
h            1.81530950778067       -0.35081184125247        4.70485114769780
o            3.91997063141669       -3.98283242628438        1.18212242212595
h            3.46343948127223       -4.06227347261438        2.03647455756212
h            3.95717926476462       -3.02984447119977        0.98916157262865
o            1.56089456528493       -1.98319276600504        2.15388318526926
h            2.32622598107963       -1.73958010810708        1.61510236055557
h            1.38457912874308       -2.92348825686719        1.98112589559715
o            1.07017568191221        1.42536181405917        4.90675793266519
h            0.23651103065730        1.29904045447859        5.37824017562247
h            1.06426238326093        2.36448988182955        4.63216566234125
o           -5.76598194364939        5.22909954775947       -2.67960310779429
h           -5.88595525221840        6.02095423189342       -2.12707341335631
h           -4.91771112554925        4.84828998528991       -2.39588306861682
o           -6.27918943043523        4.91403230159035        0.54258884746008
h           -7.06587721454871        5.32448965840961        0.13931152027486
h           -6.57817846029610        4.55421201417353        1.40257173547376
o            0.38637842725313       -4.88249858881598        4.35141423798839
h            0.60726715875958       -5.21646299453206        5.25165472326701
h           -0.49929212767724       -4.49586048468714        4.43670876557522
o           -5.02857633576328       -5.21309506184431        3.73914597229280
h           -5.60185256327672       -4.82852800582344        4.43446058538358
h           -4.69428877697754       -4.43814061734239        3.26424396915292
o            1.03298195156300       -2.92719667452343       -1.10845212966124
h            1.90949579154269       -2.56200942040447       -1.31022940254070
h            1.12551429287786       -3.61009376726601       -0.41737836517682
o           -0.49230078462553        3.31708227335061        1.45380126232038
h           -0.21709586285865        2.80192961504541        0.67400960526744
h           -0.41650159515845        4.24515650244677        1.16765404956826
o           -0.07886158898339       -3.93648127748466       -7.82701622243266
h            0.47539963559399       -4.68125709118659       -7.57003601947413
h            0.34992956563471       -3.13724480383567       -7.50440764006285
o            2.83678834101091       -4.16591641239876        3.60804331815620
h            1.91293397132353       -4.44677863824093        3.72638103427733
h            3.08528481205659       -3.76695438221281        4.46032470438432
o           -4.29302761410544        4.12897601432599        3.00511318099421
h           -4.36905438455179        4.99389282418132        3.43623742159582
h           -5.19126374336990        3.78251294186965        2.96726692700576
o           -6.95865279409641        3.56386947845456        2.76324766463385
h           -7.17009174538002        4.06471547298781        3.57874051947519
h           -7.81549333830131        3.27479881637398        2.38695619974508
o           -7.09544815020491       -1.73349380227146        3.69020912163325
h           -6.33491211516562       -1.46386101048723        3.13346061038677
h           -7.83946376637754       -1.82974399284155        3.05856775913489
o            0.61299703242800       -7.29736316317201        3.26160619129768
h            0.43303958662389       -6.36182311696870        3.51282380579055
h            1.46383571098940       -7.48687362598996        3.70958015413583
o            6.12209313361040       -5.79653786081416        5.80859561549572
h            6.21454895163223       -4.85396215136380        6.05140951426804
h            5.33018965118087       -6.10176139109628        6.27076538281659
o            0.19995969854833        2.41091426382227       -0.99326202594781
h            0.91618635529884        3.07115213466750       -0.85263888509486
h            0.64656439931390        1.56501072850280       -1.11766005570687
o            5.10428067763967       -4.17572384538841       -2.52589485145512
h            5.32880132630944       -3.48932313737072       -3.18249690813739
h            5.88008967946233       -4.75421910901746       -2.43208228305841
o           -8.44088703607927        6.10637176946883       -0.64083958164479
h           -7.91565918410821        6.86472336961134       -0.92070424527970
h           -8.70471407290194        5.64549342242744       -1.44800599815839
o            6.94066916816499        1.49110222875972        2.57860327926500
h            7.77016681690700        1.41779782156112        2.07420654136127
h            6.41742979780988        0.70340090864065        2.31725328561224
o           -1.21472177470164        3.73446021162799       -7.94032660381981
h           -1.31166230930784        2.89192422169570       -8.40339964125732
h           -2.12356025448239        3.96921696484751       -7.69430669824467
o           -8.84319588315451       -1.46249623231414        1.72037699978826
h           -8.49502646585646       -0.79037059197189        1.10843443066265
h           -8.89884818769103       -2.26704038817079        1.18055650417125
o           -1.73840920431569        3.30744227474517        3.85239038048660
h           -2.50449568794029        2.74540639108910        3.58095380086952
h           -1.06977407954925        3.18300851248968        3.15414138446818
o            2.86136853003081       -5.01776405736653       -1.06453337493551
h            3.63184113444825       -4.95608652318871       -1.64140281941544
h            3.17374955744903       -4.72190243161571       -0.19105763037409
o           -2.94400024436421       -6.89194982578489        3.86730388910291
h           -3.80549150173780       -6.43315975065052        3.82529356350033
h           -2.98092408243837       -7.59890194899604        3.19751853464356
o            1.02492541681034        0.42293258306175       -2.92769677317671
h            1.58290378974297        0.04595479703623       -3.61756012317345
h            0.49161842758913        1.14877791721963       -3.30736087355269
o            5.02855698156506       -1.98954783451552       -7.10892409265510
h            4.24651826662068       -2.55520572463528       -7.18331671805273
h            4.69898393764205       -1.08999499447345       -6.98469333448047
o           -3.77694976338573       -2.63398010102694        3.57563061916349
h           -4.37893409523513       -2.22444536212268        2.93195916768143
h           -3.56380088136088       -1.91248322436559        4.20931236617247
o           -0.88237622493572       -6.79458490681815       -5.31002922235119
h           -0.76490781813387       -5.83170467565160       -5.19220513988224
h           -1.80020917228166       -6.98261379687351       -5.04899528636902
o            1.94456344798910        0.59731274628312       -0.03905192787702
h            1.96629601217284        1.23705912502931        0.68513552233504
h            2.59989077178991       -0.07985304089147        0.18973201529720
o           -1.24812097850303       -9.00021702018652       -1.71244301672443
h           -0.86241211068791       -9.02102046695630       -0.82928552136134
h           -1.84951056040779       -8.23099825185205       -1.70389514991741
o            3.02169081315628       -7.31288278233211        4.26291251679924
h            3.23440156862183       -6.87294898784801        5.11112991080439
h            3.76713082779646       -7.84773917401003        3.98866240074335
o           -4.72990327537345        1.06457461373196       -7.29906604171408
h           -4.86950011802227        0.22643861289156       -7.75202489439011
h           -4.71804461037378        0.83965690209935       -6.33056715576858
o           -4.09678082781280       -2.49999950725765       -4.25489276724371
h           -3.56012479190194       -3.27028971169210       -3.96850666941342
h           -3.48837090215919       -1.91706632164047       -4.75480391776334
o           -2.34440110429327        1.68068325857109       -5.50122144641306
h           -2.04034231100310        1.79698700818091       -6.40880120771020
h           -2.49756578858324        0.72033690036931       -5.41473495553659
o          -12.84564103961926        2.56234455817324        1.90496449886305
h          -13.46374539737301        3.01193166486186        2.47940699206774
h          -12.20688688028073        3.26246325581825        1.58064819995223
o            3.32073909871168       -3.32301391800057        6.07217852854088
h            2.38690013975066       -3.04414780547284        6.21861119665546
h            3.85770660379330       -2.74152644944916        6.64391732729671
o           -3.23068684496662        4.42594093717411        5.95166457082188
h           -2.69098740953819        4.19897067013177        5.17694019139888
h           -2.61602617129291        4.55950241188289        6.67741499848899
o            5.95982019506562       -1.46122587823176       -1.09758091216980
h            6.34575173835975       -0.63070954898472       -0.77160825331230
h            6.37846359152494       -1.61924351647126       -1.96762233374999
o            4.61986498668240        3.86916604893028        2.10474879192765
h            4.60496980706443        3.12464356050483        1.45711588081318
h            4.59780691222922        3.44576458701224        2.99136593786965
o           -4.91309828167709        0.54090439711644       -4.71507041894955
h           -4.66328964675344        1.39706187228494       -4.30561633193764
h           -4.23377775230258       -0.06774234511507       -4.39039051317260
o            4.79553542598412       -7.71415169170346        2.05264682526157
h            5.04782704367753       -6.87565070259730        2.50425457126255
h            5.35601914618444       -7.79035951993356        1.27940780110007
o           -3.62006767764087        6.81346134186726       -4.40955174979479
h           -3.28099564469869        5.89038459020762       -4.46514266553720
h           -4.42126137450851        6.81981992567708       -4.93676254668162
o            4.55607863480022        0.17002192542612       -2.94098372124441
h            3.96067848453982        0.90435953669596       -2.65372538259492
h            5.39744682384049        0.35695215138304       -2.51849197654180
o           -6.82527891327088       -6.35412910548282        2.06497328371791
h           -6.13026670455212       -5.98980250358368        2.65242259331614
h           -7.62447004292431       -5.87489930064436        2.33334272561938
o          -11.39064447060943       -3.38725802004016       -1.14156118148935
h          -10.84167263124124       -3.57018863966814       -1.93303227955887
h          -11.87633233114866       -2.57004137205887       -1.31605390760025
o           -8.67876921160949       -3.33021745493200       -0.24197922844976
h           -9.53009920732521       -3.71934193743060       -0.45919456349702
h           -8.00409880550338       -4.03459314068242       -0.36100861840656
o           -8.57574788056709        5.84138143155382        2.15860213723103
h           -7.85395302083313        6.47428303093517        2.24262386293580
h           -8.94125645265646        5.95972751787409        1.27574711483984
o           -5.99730165398773        7.42148740605621       -0.95214420426261
h           -5.07151694237965        7.64176686751923       -1.18186728744970
h           -6.01558901259106        7.33935872867595        0.00810600654795
o           -3.15481362720560        4.86488870624970       -1.65264862407206
h           -3.03647169148520        4.63187848236795       -0.70951633967293
h           -2.32334590444679        4.66552984334587       -2.09560363697592
o           -0.63421981235917        5.85884124393411        5.29528930721846
h           -0.59746153966929        5.35574204001007        6.13305083949340
h            0.12969297056748        6.44455235049316        5.27583978342285
o            2.40758237613179        5.31001912185210        2.40324796323392
h            3.18604724380804        4.73105480666661        2.29804813369411
h            2.75113424145799        6.20766617037121        2.53804660982730
o            0.71121530111563        2.66950903143080       -6.25681190511129
h            0.21661329880340        2.62305716944068       -5.40562449348196
h            0.12723446069535        3.11618803328910       -6.88886708907130
o            1.34228954626612        0.15069413111924       -7.00038165672502
h            1.06468419802161        1.06758236315287       -6.80705773866130
h            2.28916698381776        0.11540105469347       -6.81365478664914
o            4.58325513057910        1.67016464254677        0.59271752090953
h            4.47556205787055        1.11638046262536        1.37755101009511
h            5.42324142604762        1.42571815282606        0.17094461404024
o            9.07581703677236        3.38342136299630       -4.29966370398990
h            9.64024826400601        3.92779309889089       -3.71953283661292
h            9.67672887142146        2.71881430035633       -4.66819947899797
o           -0.96372889098826        7.10325657578085       -3.98273587699365
h           -0.57645124471875        6.81450444467053       -4.82317007062051
h           -1.90243753019718        7.26251412510506       -4.15941707320141
o           -6.02158329463512       -3.56072523574627        1.63627433439121
h           -6.86246958642047       -3.81055283036812        2.05143934047355
h           -6.25985450512888       -3.09503543575170        0.81669143732983
o           -0.54032857366995       -7.92389817104401        0.79706458375048
h           -0.11927484963424       -7.72834873908639        1.64775927142586
h           -0.37472546383420       -7.15170941048534        0.21626815023531
o           13.69753884898270       -0.32926615345172       -1.82947425686693
h           14.58200784752433       -0.47046505405145       -2.16674346847610
h           13.08586268853211       -0.70997561883073       -2.51620338135403
o            1.03671888421636       -4.44666143755184        1.18457965469817
h            0.16640333836162       -4.82503595364719        1.36669783270194
h            1.65403085514405       -5.19991824446660        1.19411551211329
o            4.34744733725640        6.16083979171554       -2.75659106695172
h            4.63393648587721        5.34323418347041       -3.20999349778603
h            5.13912800770673        6.65157484748626       -2.53230825565962
o           -5.06309108756103       -1.57855775954579        6.15934770675398
h           -5.57846834804613       -1.07582154048822        6.80239351999376
h           -5.55339027457264       -2.39693572641950        5.97653592961438
o           -7.17312209069906       -0.97573420647415       -5.13678546072422
h           -6.77131407427736       -1.65034644158576       -5.71173130168211
h           -6.44090043843242       -0.38316854755100       -4.88048590790289
o           -3.42616762793044        7.49340275408384       -1.75509663756708
h           -3.33192169227415        6.52807864084421       -1.55720759372687
h           -3.52355796579486        7.51780889491987       -2.71899583213944
o           -8.44219568635763        4.65125874207006       -2.95742578111869
h           -7.47641390066021        4.80371800952495       -2.99148831365839
h           -8.64193675462635        4.05607465118922       -3.68491035092487
o            4.98266995482227       -1.90682501089027        4.11885383256494
h            4.02293814006352       -1.86914818018587        4.24420233863514
h            5.33273564814430       -2.55070756165269        4.75858186601255
o           -4.08198421298555       -1.62114135179526       -8.02191398135050
h           -4.75669414548812       -2.07955683616498       -7.46273522192934
h           -3.55915994579157       -2.33321115583169       -8.39664328628416
o            1.57462609651103       -5.98362507485689       -6.39520054927185
h            2.12500672304806       -6.29378062738158       -5.66460542495440
h            0.74398736267478       -6.46679905422937       -6.29876833681852
o            1.95323190128483       -4.21580720366987       -3.53687677765870
h            2.32767283914514       -5.10854030214457       -3.66615691216447
h            1.76582413047194       -4.13017030471473       -2.59254060107150
o           -3.76740389737108        6.13145220444166        0.81256666891263
h           -3.84072937106841        7.06919956484021        1.04687924907338
h           -4.66165113040567        5.75572601530057        0.80911537823244
o           -6.76319318353078        2.67331431927771       -3.79570657234561
h           -5.85176407369036        2.85962237369259       -3.51832424218002
h           -6.75224950004588        2.65352540671372       -4.76954682919533
o          -11.18177277568788        4.26934540590292        0.84576498553250
h          -10.31751907407065        3.88979004461687        1.11538535151773
h          -11.23504804694509        4.11918366673450       -0.10840547134265
o            6.69771902550545        7.15180233067664       -0.70645736905719
h            5.82269934048727        6.85454062145577       -0.39646792091710
h            6.95396414113153        6.52316290020012       -1.41083949870646
o           -7.88203681222786        2.67589290793853       -1.21387635998033
h           -6.92129674366228        2.70473442236272       -1.31009827655278
h           -8.21835525042517        3.37789066480896       -1.80133365907756
o            1.65624217633846        7.26148343630068        4.45542921623846
h            1.14912014028814        7.25330937195942        3.61908474693213
h            2.45235144157824        7.75842094199644        4.23845115296892
o            3.92821052895217        0.16952241877237       -5.79432633171925
h            3.41806470058213       -0.48170047560931       -5.25511395254570
h            3.66368491509403        1.03455835011683       -5.42712876708677
o            0.62811549522522       -5.95372201163107        6.77591463925063
h            0.09091532606531       -6.72894800510790        6.51754078762170
h            0.03580150227832       -5.35888891211790        7.26980833922869
o            5.13495859039363        3.78448921828629       -1.20634002197958
h            5.74058061730553        3.54038547553328       -0.48339903725175
h            4.67390065686901        4.58102136268649       -0.87922411092809
o           -6.31301561329696       -1.90572553619236       -0.46831025525180
h           -6.75426910785850       -1.04300540143291       -0.31516719705964
h           -6.67043480943665       -2.23395491224048       -1.31917865391034
o            6.91066133874929        3.37459801791482        5.43478825937638
h            7.31236960198001        2.54759505404148        5.71827981257465
h            7.38334658409478        3.61226099606527        4.60766095601493
o           -8.26938299269092       -0.48643230167050        5.80774670057408
h           -8.84847845756407        0.24234776551548        5.53861637434326
h           -7.81185775283869       -0.80047951103382        5.00250878478211
o           -4.66143680312579        6.32831682697723        4.59052988010386
h           -4.27070293517691        5.72959538992494        5.25330168961385
h           -3.96703343635032        7.00398926089061        4.44052171352155
o           -8.98667707294250        2.82108087986865        1.20164607311501
h           -9.43371702756750        1.96103367926097        1.10851832155506
h           -8.53506015084200        2.93641915876754        0.34344688573608
o           -3.60418936141395        0.78455906191104        7.11858489005857
h           -4.57060035305318        0.83837678251774        7.19899393379845
h           -3.32249985734842        0.12905557792666        7.76717839968377
o            0.88509362008368       -2.40659499382295        6.47070769686693
h            1.21155643289519       -1.73199418021085        7.09481629796376
h            0.50432997470965       -1.92505662949898        5.70289490670220
o            3.41018458281322       -5.95537446527783        6.54852747064687
h            3.42371015765816       -4.98431579526999        6.39877568794034
h            2.51550561751893       -6.12712861874289        6.87652280331630
o           -0.17412832874504        5.51868833919236       -6.01742244062111
h           -0.35863116242737        5.22578668076703       -6.91521757232664
h            0.78577301049815        5.40782253517800       -5.87169363124175
o            3.15842947417040        2.12346837339087       -1.92634101327999
h            3.88657440751484        2.64234337765105       -1.52087657359728
h            2.74203526440201        1.61043496408838       -1.20108820676641
o            6.92469287084727        2.15646365372946       -3.19816857228340
h            6.18682362900458        2.78139419735053       -3.36364660953063
h            7.73323251623365        2.61240883722850       -3.51190874987558
o            2.53137579754622        7.81656410070208       -3.90117129426082
h            3.25830500660392        7.35742502719995       -3.44652482534164
h            2.27472130775797        7.20845740712033       -4.60758554832164
o            3.17488301374362        5.20425526756441        5.52481392902424
h            2.71572098094362        4.86096875951378        6.30898057367156
h            2.59057613015393        5.86560462020619        5.11061862695198
o            4.40967479798309        2.99400034822528        4.58016163606588
h            5.30613347641262        3.09224754791052        4.96078260195292
h            3.87353736102433        3.73470830720486        4.91934384509776
o            5.63497308820388       -5.78760419054308        0.17076470205693
h            6.14485628849807       -5.03556248671553       -0.20453112072398
h            4.96649191932354       -5.34039321873374        0.71777948920637
o            5.18178714244891       -5.42735507886573        3.33320958825457
h            4.25606250343522       -5.15145476866299        3.47788362633239