 Entering Gaussian System
 *********************************************
 Gaussian 98:
 frequency output generated by the xtb code
 *********************************************
                         Standard orientation:
 --------------------------------------------------------------------
  Center     Atomic     Atomic              Coordinates (Angstroms)
  Number     Number      Type              X           Y           Z
 --------------------------------------------------------------------
    1          8             0        0.735954   -4.460191    0.657685
    2          1             0       -0.007277   -3.829792    0.489433
    3          1             0        0.338996   -5.309842    0.847504
    4          8             0       -3.636371   -0.381111    2.121811
    5          1             0       -4.360345   -0.232400    2.729902
    6          1             0       -2.984260   -0.983701    2.588922
    7          8             0       -0.270907   -0.884093   -2.115351
    8          1             0       -0.323630   -0.188589   -1.422815
    9          1             0       -1.199852   -1.196548   -2.267653
   10          8             0       -2.789166   -1.492514   -2.551349
   11          1             0       -3.164607   -0.607915   -2.745397
   12          1             0       -3.179234   -1.758350   -1.708518
   13          8             0       -1.436241    2.134373   -3.934190
   14          1             0       -0.739389    1.507756   -4.184199
   15          1             0       -1.058432    2.652011   -3.203372
   16          8             0        1.584388   -2.724959   -1.511062
   17          1             0        1.272156   -3.474361   -0.989877
   18          1             0        0.806139   -2.133820   -1.637400
   19          8             0        0.242295   -0.955156    1.819700
   20          1             0        0.640609   -0.095874    2.047212
   21          1             0        0.944824   -1.618945    1.995900
   22          8             0        2.413191    0.831419    0.209840
   23          1             0        2.379563    1.108008    1.140913
   24          1             0        2.737785   -0.092439    0.221443
   25          8             0       -0.070759    3.095877    3.592984
   26          1             0        0.058777    3.981549    3.254096
   27          1             0       -0.705140    2.656585    2.995718
   28          8             0       -1.505814    1.410837    2.022988
   29          1             0       -1.028293    1.267692    1.176235
   30          1             0       -2.345220    0.935816    1.927302
   31          8             0       -3.745558   -2.103200    0.045027
   32          1             0       -3.762998   -1.376931    0.701951
   33          1             0       -4.435852   -2.720891    0.287409
   34          8             0        3.384624   -1.683012    0.096337
   35          1             0        2.713513   -2.080859   -0.519743
   36          1             0        4.208229   -1.647973   -0.392270
   37          8             0       -1.008105   -2.599420    0.051792
   38          1             0       -0.652096   -1.826411    0.519636
   39          1             0       -1.971241   -2.509824    0.053285
   40          8             0        2.139446   -2.765250    2.302150
   41          1             0        1.727260   -3.514120    1.834052
   42          1             0        2.804603   -2.419156    1.685563
   43          8             0       -0.185989    1.102039   -0.319915
   44          1             0       -0.231033    1.919164   -0.847191
   45          1             0        0.772734    0.981831   -0.123683
   46          8             0       -1.825903   -1.849795    3.282536
   47          1             0       -1.635042   -1.388404    4.107360
   48          1             0       -1.068248   -1.610568    2.699746
   49          8             0        3.841213    1.370180   -2.084401
   50          1             0        3.718566    0.496007   -2.498104
   51          1             0        3.401498    1.315678   -1.220376
   52          8             0        1.845029   -0.853654    4.515679
   53          1             0        1.968421   -1.642571    3.972775
   54          1             0        0.889484   -0.714236    4.614062
   55          8             0        1.959267    2.594362   -3.494990
   56          1             0        2.743290    2.252726   -2.998398
   57          1             0        1.603495    1.833465   -3.969915
   58          8             0        1.757816    1.183093    2.776162
   59          1             0        1.243006    1.901156    3.178354
   60          1             0        1.996029    0.560150    3.493912
   61          8             0        0.032568    3.301421   -1.909136
   62          1             0        0.820033    3.062256   -2.483887
   63          1             0        0.101824    4.240567   -1.742577
   64          8             0       -0.727785    0.336991    4.487838
   65          1             0       -0.936549    0.656029    3.586569
   66          1             0       -0.507108    1.126530    4.985910
   67          8             0       -3.686586    0.993006   -3.078917
   68          1             0       -2.859526    1.447001   -3.366973
   69          1             0       -4.305408    1.096193   -3.802148
   70          8             0        0.595674    0.181945   -4.308265
   71          1             0        0.251244   -0.227779   -3.459179
   72          1             0        0.290186   -0.380572   -5.020567
   73          8             0        2.999206   -0.975356   -3.248091
   74          1             0        2.278120   -0.556001   -3.739878
   75          1             0        2.591028   -1.694790   -2.749966
 --------------------------------------------------------------------
     1 basis functions        1 primitive gaussians
     1 alpha electrons        1 beta electrons
 
 Harmonic frequencies (cm**-1), IR intensities (km*mol⁻¹),
 Raman scattering activities (A**4/amu), Raman depolarization ratios,
 reduced masses (AMU), force constants (mDyne/A) and normal coordinates:
                      1                      2                      3
                        a                      a                      a 
 Frequencies --    12.1647                24.3027                26.6975
 Red. masses --    14.2430                14.0245                14.2449
 Frc consts  --     0.0000                 0.0000                 0.0000
 IR Inten    --     0.0923                 1.1178                 0.2717
 Raman Activ --     0.0000                 0.0000                 0.0000
 Depolar     --     0.0000                 0.0000                 0.0000
 Atom AN      X      Y      Z        X      Y      Z        X      Y      Z
   1   8     0.10  -0.08   0.04    -0.10   0.07   0.32     0.04  -0.02  -0.01
   2   1     0.01  -0.03   0.01    -0.01   0.03   0.05    -0.01  -0.03   0.01
   3   1     0.04  -0.03   0.01    -0.05   0.05   0.15     0.04  -0.02  -0.02
   4   8    -0.02  -0.07  -0.16     0.04  -0.31   0.19     0.05  -0.06   0.10
   5   1    -0.01  -0.01  -0.04     0.02  -0.10   0.07     0.03  -0.02   0.04
   6   1    -0.01  -0.01  -0.03     0.03  -0.07   0.03     0.02  -0.02   0.01
   7   8     0.01  -0.01   0.10    -0.07   0.02  -0.14    -0.02   0.10   0.24
   8   1     0.01   0.01   0.01    -0.02  -0.00  -0.03    -0.00   0.04   0.04
   9   1    -0.00   0.00   0.03    -0.02   0.01  -0.04    -0.01   0.03   0.05
  10   8    -0.01   0.07   0.09    -0.11   0.12  -0.10     0.00   0.15   0.09
  11   1     0.01   0.03   0.07    -0.01   0.04  -0.01    -0.00   0.03   0.01
  12   1    -0.00  -0.02   0.01    -0.02   0.03  -0.02    -0.02   0.04   0.02
  13   8     0.00   0.05   0.19     0.11   0.11  -0.05     0.07  -0.08  -0.21
  14   1    -0.01   0.00   0.04     0.02   0.02  -0.02     0.01  -0.03  -0.03
  15   1     0.02   0.02   0.03     0.03   0.02  -0.01     0.02  -0.01  -0.06
  16   8     0.03  -0.01   0.05    -0.17  -0.05  -0.03    -0.03   0.05   0.12
  17   1     0.01  -0.01   0.01    -0.05  -0.01  -0.01    -0.00   0.02   0.03
  18   1     0.00  -0.00   0.02    -0.04  -0.01  -0.01    -0.01   0.02   0.04
  19   8    -0.04  -0.03  -0.12     0.08   0.06   0.02    -0.01  -0.00  -0.16
  20   1    -0.02  -0.00  -0.03     0.01   0.02   0.01    -0.01   0.00  -0.03
  21   1    -0.01   0.00  -0.02     0.03   0.02   0.00     0.00   0.01  -0.04
  22   8     0.08   0.03  -0.04    -0.12  -0.05  -0.04     0.00   0.19   0.01
  23   1     0.01   0.01  -0.01    -0.02   0.00  -0.01    -0.01   0.04   0.01
  24   1     0.02   0.01  -0.01    -0.03  -0.01  -0.01    -0.00   0.04  -0.00
  25   8    -0.12   0.04  -0.13    -0.21  -0.03  -0.06    -0.10  -0.08   0.29
  26   1    -0.03   0.01  -0.04    -0.08  -0.00  -0.02    -0.03  -0.01   0.10
  27   1    -0.03   0.01  -0.03    -0.04  -0.02  -0.01    -0.02  -0.01   0.06
  28   8    -0.06  -0.01  -0.12    -0.11  -0.14  -0.01    -0.00   0.01   0.10
  29   1    -0.00   0.01  -0.03    -0.03  -0.03  -0.01    -0.00   0.03   0.02
  30   1    -0.01  -0.01  -0.04    -0.02  -0.05   0.01     0.01  -0.01   0.02
  31   8    -0.02  -0.25  -0.01     0.05   0.01  -0.06    -0.14   0.07   0.01
  32   1    -0.01  -0.05  -0.02     0.01  -0.03   0.02    -0.02   0.01   0.02
  33   1    -0.01  -0.06   0.01     0.03  -0.02  -0.04    -0.05   0.03  -0.01
  34   8     0.04   0.01   0.02    -0.08  -0.03  -0.11     0.01   0.18  -0.01
  35   1     0.01   0.00   0.01    -0.03  -0.01  -0.01    -0.00   0.03   0.01
  36   1     0.01  -0.00   0.01    -0.03   0.01  -0.05    -0.00   0.05  -0.01
  37   8    -0.01  -0.19  -0.01     0.07   0.14  -0.03    -0.16  -0.18   0.06
  38   1    -0.01  -0.04  -0.01     0.02   0.03  -0.00    -0.03  -0.03  -0.01
  39   1    -0.00  -0.06   0.00     0.02   0.04  -0.02    -0.04  -0.03   0.01
  40   8    -0.01   0.04   0.01     0.10   0.11   0.06     0.04   0.05  -0.08
  41   1     0.01   0.00   0.01     0.01   0.02   0.03     0.01   0.01  -0.02
  42   1     0.00   0.01   0.00     0.02   0.01  -0.00     0.01   0.02  -0.02
  43   8     0.09   0.10  -0.05    -0.12  -0.07  -0.04    -0.00   0.27   0.04
  44   1     0.03   0.03  -0.01    -0.02  -0.01  -0.00     0.00   0.05  -0.01
  45   1     0.02   0.02  -0.01    -0.03  -0.02  -0.01     0.00   0.07   0.01
  46   8    -0.02  -0.00  -0.08     0.23  -0.20   0.05     0.10  -0.14  -0.09
  47   1    -0.01   0.01  -0.02     0.05  -0.05   0.01     0.03  -0.04  -0.02
  48   1    -0.01  -0.00  -0.02     0.05  -0.02   0.01     0.02  -0.02  -0.03
  49   8     0.06  -0.05  -0.08     0.05  -0.15   0.05     0.02  -0.02  -0.04
  50   1     0.01  -0.01  -0.02     0.00  -0.04   0.01     0.00  -0.01   0.01
  51   1     0.02  -0.01  -0.02    -0.00  -0.03   0.00     0.00   0.02  -0.01
  52   8    -0.09   0.06  -0.05     0.10   0.17  -0.01     0.07  -0.07  -0.10
  53   1    -0.02   0.01  -0.01     0.04   0.04   0.00     0.02  -0.01  -0.04
  54   1    -0.02   0.01  -0.02     0.02   0.03   0.00     0.02  -0.03  -0.01
  55   8     0.07  -0.03  -0.08     0.11  -0.03   0.06     0.05  -0.13  -0.17
  56   1     0.02  -0.01  -0.02     0.02  -0.02   0.01     0.01  -0.02  -0.03
  57   1     0.00  -0.01  -0.01     0.02  -0.00   0.01     0.01  -0.04  -0.02
  58   8    -0.12   0.02  -0.10    -0.02   0.14  -0.03    -0.10   0.01   0.01
  59   1    -0.03   0.01  -0.03    -0.02   0.03  -0.01    -0.02  -0.01   0.02
  60   1    -0.03   0.01  -0.02     0.00   0.04  -0.00    -0.01  -0.01  -0.01
  61   8     0.19   0.13  -0.01     0.09  -0.02   0.04     0.04   0.06  -0.25
  62   1     0.04   0.02  -0.01     0.02  -0.01   0.02     0.01  -0.00  -0.05
  63   1     0.06   0.03  -0.01     0.03  -0.01   0.02     0.02   0.02  -0.09
  64   8    -0.10   0.04  -0.11     0.01  -0.05   0.00     0.02  -0.18   0.02
  65   1    -0.02   0.01  -0.03    -0.01  -0.02  -0.00     0.01  -0.03   0.01
  66   1    -0.03   0.01  -0.03    -0.01  -0.00  -0.01    -0.00  -0.05   0.02
  67   8     0.08   0.20   0.60     0.07   0.21  -0.01     0.00   0.10  -0.16
  68   1     0.02   0.03   0.11     0.02   0.04  -0.01     0.01   0.01  -0.05
  69   1    -0.02   0.08   0.19     0.01   0.07   0.00     0.01   0.01  -0.05
  70   8    -0.07  -0.01   0.07     0.05   0.05  -0.08     0.01  -0.20   0.10
  71   1    -0.01  -0.01   0.02     0.00   0.01  -0.03     0.00  -0.02   0.04
  72   1    -0.03   0.00   0.02     0.02   0.02  -0.03    -0.01  -0.07   0.05
  73   8    -0.03  -0.04  -0.03    -0.05  -0.10   0.01     0.03  -0.08   0.09
  74   1    -0.01  -0.01   0.00    -0.00  -0.01  -0.00     0.01  -0.03   0.02
  75   1    -0.00  -0.01  -0.00    -0.03  -0.02  -0.01     0.01  -0.02   0.02
                      4                      5                      6
                        a                      a                      a 
 Frequencies --    34.3345                37.0378                40.3130
 Red. masses --    14.1204                14.2589                14.2178
 Frc consts  --     0.0000                 0.0000                 0.0000
 IR Inten    --     0.4168                 0.7228                 0.6591
 Raman Activ --     0.0000                 0.0000                 0.0000
 Depolar     --     0.0000                 0.0000                 0.0000
 Atom AN      X      Y      Z        X      Y      Z        X      Y      Z
   1   8    -0.00  -0.08   0.41    -0.06   0.16  -0.14     0.10   0.08  -0.26
   2   1     0.02  -0.01   0.06    -0.00   0.06  -0.03     0.02   0.01  -0.04
   3   1    -0.02   0.01   0.18    -0.04   0.05  -0.05     0.04  -0.00  -0.13
   4   8     0.07   0.06  -0.26    -0.01   0.06   0.04    -0.04  -0.12   0.10
   5   1     0.01   0.02  -0.08    -0.00   0.02   0.01    -0.01  -0.03   0.02
   6   1     0.01   0.01  -0.06    -0.01   0.01   0.00    -0.01  -0.02   0.03
   7   8     0.05   0.11   0.02     0.05   0.03  -0.17     0.10   0.08   0.08
   8   1     0.02   0.03   0.01     0.01   0.00  -0.04     0.02   0.02   0.02
   9   1     0.01   0.03  -0.00     0.01  -0.00  -0.03     0.03   0.01   0.02
  10   8     0.09   0.07  -0.12     0.01  -0.01   0.03     0.12   0.04   0.04
  11   1     0.00   0.01  -0.03     0.01   0.01   0.04     0.02   0.00  -0.01
  12   1     0.02   0.00  -0.04     0.02  -0.01   0.01     0.02   0.02   0.01
  13   8    -0.14   0.10   0.02    -0.01  -0.13  -0.21     0.00   0.17   0.08
  14   1    -0.04   0.02  -0.01    -0.01  -0.03  -0.06    -0.01   0.04   0.01
  15   1    -0.03   0.02   0.01     0.01  -0.03  -0.06     0.01   0.02   0.03
  16   8    -0.08   0.01   0.10     0.07   0.10  -0.05     0.16   0.13   0.00
  17   1    -0.03  -0.01   0.00     0.02   0.02  -0.01     0.05   0.03   0.00
  18   1    -0.01   0.01   0.02     0.02   0.02  -0.02     0.04   0.03   0.01
  19   8     0.08   0.00  -0.01     0.03   0.08   0.14    -0.07  -0.01   0.11
  20   1     0.02   0.00   0.01     0.02   0.01   0.04    -0.02   0.00   0.02
  21   1     0.02   0.00   0.02     0.00   0.01   0.02    -0.01   0.00   0.02
  22   8     0.12  -0.00   0.10    -0.04   0.05   0.12     0.10  -0.07   0.05
  23   1     0.03  -0.00   0.03    -0.01   0.01   0.03     0.02  -0.00   0.01
  24   1     0.02  -0.00   0.02    -0.00   0.01   0.03     0.03  -0.01   0.03
  25   8     0.05  -0.07   0.18    -0.05  -0.12   0.20    -0.15   0.05   0.00
  26   1     0.02  -0.01   0.06    -0.01  -0.02   0.07    -0.05   0.01  -0.00
  27   1     0.02  -0.01   0.03     0.00  -0.02   0.03    -0.04   0.00   0.01
  28   8     0.10   0.04   0.01     0.04  -0.01  -0.00    -0.10  -0.04   0.06
  29   1     0.03   0.02   0.01     0.00  -0.00  -0.00    -0.01  -0.01   0.02
  30   1     0.02   0.02  -0.02     0.00   0.01   0.00    -0.02  -0.02   0.01
  31   8     0.17  -0.05  -0.17     0.05   0.01   0.07    -0.01   0.01  -0.00
  32   1     0.04  -0.00  -0.05     0.00   0.01   0.01    -0.01  -0.01   0.02
  33   1     0.05  -0.02  -0.03     0.04  -0.02   0.04    -0.01  -0.00  -0.02
  34   8    -0.02  -0.07   0.09    -0.01   0.07   0.05     0.17  -0.03   0.08
  35   1    -0.01  -0.01   0.03     0.01   0.02   0.00     0.05   0.01   0.00
  36   1    -0.01  -0.03   0.02     0.00   0.02   0.02     0.05  -0.02   0.04
  37   8     0.18  -0.03  -0.05     0.09   0.30  -0.06    -0.00   0.05   0.02
  38   1     0.04  -0.01  -0.01     0.02   0.07   0.01    -0.01   0.01   0.02
  39   1     0.04  -0.01  -0.03     0.02   0.06   0.01    -0.00   0.01   0.00
  40   8     0.05   0.02   0.18    -0.03  -0.01   0.01    -0.03   0.01  -0.02
  41   1     0.01  -0.00   0.06    -0.01   0.01  -0.01     0.00   0.01  -0.02
  42   1     0.01  -0.01   0.04    -0.01   0.00   0.01     0.00   0.01   0.01
  43   8     0.14   0.08   0.03    -0.02  -0.06  -0.04     0.08   0.03   0.13
  44   1     0.04   0.02   0.01    -0.00  -0.02  -0.02     0.03   0.01   0.03
  45   1     0.03   0.02   0.01    -0.01  -0.01   0.00     0.02  -0.00   0.03
  46   8    -0.03  -0.00  -0.19    -0.05  -0.06  -0.03    -0.01  -0.03   0.18
  47   1    -0.02  -0.01  -0.04    -0.02  -0.03   0.01    -0.01   0.01   0.04
  48   1     0.00   0.00  -0.03    -0.01  -0.00   0.01    -0.01  -0.01   0.04
  49   8    -0.17  -0.06  -0.12    -0.13  -0.03   0.01    -0.04  -0.30  -0.15
  50   1    -0.05  -0.02  -0.02    -0.03  -0.01   0.00    -0.03  -0.07  -0.05
  51   1    -0.02  -0.01  -0.02    -0.03  -0.00   0.00    -0.00  -0.07  -0.03
  52   8    -0.03  -0.03   0.11    -0.09  -0.08   0.13    -0.07   0.10   0.03
  53   1     0.00  -0.01   0.03    -0.02  -0.02   0.03    -0.02   0.02   0.02
  54   1    -0.01  -0.01   0.02    -0.02  -0.01   0.02    -0.02   0.02   0.01
  55   8    -0.10   0.01  -0.13    -0.00  -0.09  -0.20     0.02  -0.10  -0.05
  56   1    -0.03  -0.01  -0.03    -0.01  -0.02  -0.03     0.00  -0.04  -0.02
  57   1    -0.03   0.01  -0.03     0.01  -0.02  -0.05    -0.01  -0.01  -0.02
  58   8     0.06  -0.04   0.11     0.08   0.00   0.20    -0.12   0.07  -0.01
  59   1     0.01  -0.01   0.03     0.01  -0.01   0.05    -0.03   0.02  -0.01
  60   1     0.01  -0.01   0.03     0.01  -0.01   0.04    -0.03   0.02   0.00
  61   8    -0.01   0.03  -0.03    -0.02  -0.17  -0.20     0.16  -0.03   0.09
  62   1    -0.01   0.01  -0.02    -0.00  -0.04  -0.05     0.03  -0.02   0.01
  63   1     0.01   0.01   0.00    -0.01  -0.04  -0.05     0.06  -0.01   0.03
  64   8    -0.05  -0.10  -0.00    -0.09  -0.08   0.05    -0.08   0.06   0.09
  65   1     0.00  -0.01   0.00    -0.01  -0.02   0.01    -0.02   0.01   0.02
  66   1    -0.02  -0.03   0.01    -0.03  -0.02   0.01    -0.02   0.02   0.02
  67   8    -0.13  -0.01  -0.11     0.10   0.10   0.39     0.00  -0.05  -0.21
  68   1    -0.04   0.01  -0.01     0.02  -0.00   0.04    -0.00   0.01  -0.02
  69   1    -0.02  -0.01  -0.04    -0.03   0.05   0.15     0.02  -0.03  -0.08
  70   8    -0.19   0.07  -0.09     0.04  -0.10  -0.23    -0.19   0.03  -0.06
  71   1    -0.02   0.02  -0.01     0.01  -0.01  -0.05    -0.02   0.02   0.00
  72   1    -0.07   0.01  -0.01     0.01  -0.04  -0.05    -0.08   0.01   0.00
  73   8    -0.20  -0.05  -0.09     0.05  -0.01  -0.11    -0.10  -0.13  -0.38
  74   1    -0.05  -0.02  -0.02     0.01  -0.01  -0.04    -0.04  -0.03  -0.07
  75   1    -0.05  -0.00  -0.01     0.01   0.00  -0.02    -0.01  -0.01  -0.06
                      7                      8                      9
                        a                      a                      a 
 Frequencies --    43.6858                47.0416                50.5803
 Red. masses --    14.3488                14.3455                14.2439
 Frc consts  --     0.0000                 0.0000                 0.0000
 IR Inten    --     1.9306                 0.1702                 0.9834
 Raman Activ --     0.0000                 0.0000                 0.0000
 Depolar     --     0.0000                 0.0000                 0.0000
 Atom AN      X      Y      Z        X      Y      Z        X      Y      Z
   1   8    -0.00  -0.09  -0.03    -0.32   0.13   0.03    -0.06   0.12  -0.00
   2   1     0.00  -0.02  -0.01    -0.07   0.05   0.00    -0.03   0.02   0.01
   3   1    -0.00  -0.02  -0.01    -0.10   0.04   0.01     0.00   0.01  -0.06
   4   8     0.09  -0.21   0.15     0.09  -0.11   0.11    -0.05   0.09  -0.02
   5   1     0.03  -0.04   0.04     0.05  -0.02   0.06    -0.00   0.03   0.01
   6   1     0.03  -0.04   0.04     0.04  -0.03  -0.00    -0.01   0.01  -0.02
   7   8     0.02   0.02  -0.01     0.06   0.04  -0.01     0.03  -0.22  -0.06
   8   1     0.02   0.01  -0.00     0.02   0.02  -0.01     0.02  -0.06  -0.01
   9   1    -0.00   0.03   0.00     0.02  -0.01   0.02     0.00  -0.03  -0.02
  10   8    -0.06   0.27   0.07     0.10  -0.22   0.10    -0.05   0.12  -0.10
  11   1    -0.01   0.07   0.01     0.01  -0.06   0.01    -0.00   0.03  -0.01
  12   1    -0.01   0.06   0.02     0.01  -0.05   0.02    -0.01   0.03  -0.03
  13   8    -0.02   0.02  -0.21    -0.05  -0.03   0.23    -0.04  -0.00   0.01
  14   1    -0.01  -0.01  -0.04    -0.01   0.01   0.04    -0.01  -0.01   0.01
  15   1    -0.01  -0.00  -0.05    -0.01   0.00   0.05    -0.01  -0.01   0.01
  16   8     0.04   0.06   0.08    -0.02   0.02   0.10     0.17   0.01   0.25
  17   1     0.01   0.01   0.00    -0.02   0.01   0.03     0.05   0.01   0.08
  18   1     0.01   0.01   0.01     0.00   0.01   0.01     0.03  -0.02   0.03
  19   8    -0.01  -0.11   0.03     0.09   0.15  -0.13     0.06  -0.04  -0.03
  20   1     0.01  -0.03   0.00     0.03   0.03  -0.01     0.01  -0.01  -0.01
  21   1    -0.01  -0.03   0.01     0.01   0.02  -0.03     0.01  -0.01   0.00
  22   8     0.14   0.03   0.04     0.13   0.03   0.03     0.15  -0.01  -0.04
  23   1     0.02  -0.01   0.01     0.03   0.01   0.01     0.02   0.01  -0.01
  24   1     0.03   0.00   0.01     0.03   0.01   0.01     0.05   0.00   0.01
  25   8     0.10   0.04  -0.34    -0.00  -0.06  -0.06    -0.16  -0.06   0.06
  26   1     0.04  -0.01  -0.12     0.00  -0.01  -0.01    -0.07  -0.00   0.03
  27   1     0.01  -0.00  -0.07     0.00  -0.01  -0.02    -0.02  -0.02   0.00
  28   8    -0.00  -0.10  -0.10    -0.00  -0.01  -0.12     0.08  -0.11  -0.06
  29   1     0.01  -0.02  -0.02     0.01   0.00  -0.03     0.02  -0.04  -0.01
  30   1     0.01  -0.04  -0.02     0.01  -0.02  -0.03     0.01  -0.01  -0.02
  31   8     0.02  -0.01   0.02    -0.23  -0.04   0.08    -0.17   0.24  -0.14
  32   1     0.01  -0.03   0.03    -0.05  -0.01   0.03    -0.03   0.05  -0.03
  33   1     0.00  -0.01  -0.02    -0.06  -0.01   0.02    -0.07   0.08  -0.06
  34   8    -0.01  -0.06   0.21     0.02  -0.03   0.07     0.22  -0.01   0.19
  35   1    -0.00  -0.00   0.04     0.00  -0.00   0.02     0.05   0.01   0.05
  36   1     0.01  -0.05   0.07     0.01  -0.02   0.02     0.06  -0.02   0.05
  37   8     0.02  -0.07  -0.02    -0.18   0.23  -0.02    -0.19   0.02   0.07
  38   1     0.00  -0.02   0.01    -0.03   0.06  -0.02    -0.03   0.01  -0.00
  39   1     0.00  -0.01  -0.01    -0.04   0.04   0.03    -0.04   0.03   0.01
  40   8    -0.09  -0.16   0.13    -0.11  -0.03  -0.01     0.07  -0.03   0.09
  41   1    -0.02  -0.03   0.02    -0.05   0.00  -0.00     0.01   0.00   0.02
  42   1    -0.02  -0.03   0.04    -0.01  -0.03   0.00     0.02  -0.01   0.03
  43   8     0.15   0.01  -0.02     0.14   0.08  -0.06     0.10  -0.28  -0.03
  44   1     0.03  -0.00  -0.01     0.04   0.02  -0.01     0.01  -0.06   0.00
  45   1     0.04   0.01  -0.00     0.03   0.01  -0.01     0.03  -0.05  -0.01
  46   8     0.14  -0.10   0.22     0.22  -0.16  -0.14    -0.05  -0.02  -0.15
  47   1     0.03   0.00   0.04     0.04  -0.06  -0.02    -0.01  -0.02  -0.03
  48   1     0.02  -0.02   0.04     0.05  -0.01  -0.03    -0.01  -0.01  -0.03
  49   8    -0.06   0.21  -0.04    -0.00   0.07  -0.05     0.01   0.09  -0.09
  50   1    -0.00   0.05  -0.00     0.00   0.02  -0.00     0.01   0.02  -0.02
  51   1     0.00   0.04  -0.00     0.01   0.02  -0.01     0.02   0.02  -0.02
  52   8    -0.15  -0.07   0.13    -0.12  -0.05  -0.02     0.18   0.14  -0.09
  53   1    -0.05  -0.02   0.04    -0.03  -0.01  -0.01     0.05   0.03  -0.01
  54   1    -0.04   0.00   0.02    -0.03  -0.00  -0.02     0.04   0.02  -0.01
  55   8    -0.08   0.06  -0.14     0.04   0.08  -0.10    -0.13  -0.00   0.03
  56   1    -0.02   0.03  -0.03     0.01   0.02  -0.02    -0.02   0.01  -0.00
  57   1    -0.01   0.01  -0.03     0.00   0.02  -0.02    -0.03  -0.00   0.01
  58   8     0.03  -0.15   0.02     0.12   0.02   0.05    -0.04   0.10  -0.11
  59   1     0.01  -0.02  -0.02     0.02  -0.00   0.01    -0.02   0.02  -0.02
  60   1    -0.01  -0.03   0.02     0.01  -0.00   0.01     0.01   0.03  -0.03
  61   8    -0.09  -0.04  -0.12     0.14   0.13   0.01    -0.09  -0.17   0.15
  62   1    -0.02   0.00  -0.03     0.02   0.03  -0.01    -0.02  -0.02   0.02
  63   1    -0.03  -0.01  -0.03     0.04   0.03  -0.00    -0.02  -0.05   0.07
  64   8    -0.06   0.12  -0.01    -0.08  -0.04  -0.11     0.08  -0.13  -0.06
  65   1    -0.01   0.01  -0.01    -0.02  -0.01  -0.03     0.02  -0.03  -0.02
  66   1    -0.01   0.04  -0.02    -0.02  -0.01  -0.03     0.00  -0.03  -0.01
  67   8    -0.09   0.23  -0.09    -0.02  -0.30  -0.03    -0.08   0.15   0.07
  68   1    -0.02   0.04  -0.04    -0.01  -0.05   0.03    -0.02   0.03   0.01
  69   1    -0.02   0.04  -0.03     0.02  -0.08  -0.03    -0.03   0.04   0.02
  70   8    -0.02  -0.01  -0.04     0.00   0.08  -0.01    -0.05  -0.03   0.00
  71   1    -0.00   0.00  -0.01     0.00   0.01  -0.00    -0.01  -0.03  -0.01
  72   1     0.00  -0.01  -0.01    -0.00   0.02  -0.01    -0.01   0.00  -0.01
  73   8     0.01   0.12   0.08    -0.02   0.02   0.06    -0.01   0.03   0.06
  74   1     0.00   0.02   0.01    -0.00   0.01   0.01    -0.01  -0.01   0.02
  75   1     0.01   0.03   0.03    -0.01   0.01   0.02     0.01   0.01   0.03
                     10                     11                     12
                        a                      a                      a 
 Frequencies --    52.0352                55.9194                57.0112
 Red. masses --    14.4203                14.4642                14.3992
 Frc consts  --     0.0000                 0.0000                 0.0000
 IR Inten    --     1.8051                 1.1762                 2.0234
 Raman Activ --     0.0000                 0.0000                 0.0000
 Depolar     --     0.0000                 0.0000                 0.0000
 Atom AN      X      Y      Z        X      Y      Z        X      Y      Z
   1   8    -0.15  -0.14   0.06    -0.08   0.04   0.01    -0.16   0.06  -0.06
   2   1    -0.02  -0.02  -0.01    -0.03   0.01   0.02    -0.02   0.03  -0.02
   3   1    -0.06  -0.02   0.04    -0.01   0.00  -0.02    -0.06   0.03  -0.01
   4   8    -0.05   0.02   0.07    -0.04  -0.13  -0.07    -0.06  -0.19  -0.22
   5   1    -0.02   0.01   0.01    -0.01  -0.05  -0.02    -0.03  -0.06  -0.07
   6   1    -0.02   0.01   0.03     0.00  -0.02  -0.02    -0.01  -0.03  -0.03
   7   8     0.08   0.09  -0.04     0.14  -0.01   0.16     0.04   0.21   0.09
   8   1     0.01   0.02  -0.01     0.01   0.00   0.03     0.01   0.05   0.03
   9   1     0.03  -0.00  -0.00     0.04  -0.02   0.02     0.01   0.06   0.01
  10   8     0.13  -0.14   0.04     0.23  -0.11  -0.11     0.08   0.14  -0.10
  11   1     0.04  -0.03   0.01     0.08  -0.02  -0.02    -0.01   0.02  -0.01
  12   1     0.03  -0.03   0.01     0.04  -0.03  -0.04     0.01  -0.01  -0.04
  13   8     0.04   0.10  -0.13     0.06   0.21  -0.30    -0.09  -0.30   0.12
  14   1     0.01   0.03  -0.03     0.01   0.03  -0.05    -0.02  -0.06   0.02
  15   1     0.01   0.03  -0.03    -0.00   0.05  -0.06    -0.02  -0.07   0.02
  16   8    -0.00   0.05   0.02     0.05  -0.11   0.11    -0.05   0.10  -0.03
  17   1    -0.02  -0.00  -0.03     0.01  -0.01   0.05    -0.02   0.02  -0.02
  18   1     0.01   0.02  -0.00     0.02  -0.02   0.03    -0.00   0.04   0.00
  19   8    -0.12  -0.10   0.02     0.05   0.06  -0.02     0.00   0.06   0.05
  20   1    -0.02  -0.02  -0.02     0.02   0.01   0.01     0.01   0.01   0.01
  21   1    -0.04  -0.03   0.03     0.01   0.01  -0.01    -0.01   0.00   0.01
  22   8    -0.00  -0.01  -0.16    -0.10   0.01  -0.01     0.07  -0.01  -0.03
  23   1    -0.01   0.01  -0.04    -0.00  -0.00   0.00     0.03   0.00  -0.01
  24   1    -0.01  -0.01  -0.02    -0.02   0.00  -0.01     0.01  -0.01  -0.00
  25   8    -0.11  -0.04   0.15     0.18   0.03  -0.19     0.07   0.04  -0.07
  26   1    -0.05   0.00   0.06     0.06  -0.01  -0.08     0.01   0.00  -0.04
  27   1    -0.02  -0.01   0.03     0.02   0.00  -0.02    -0.00   0.00   0.01
  28   8     0.03  -0.06   0.07    -0.10  -0.02   0.09    -0.10  -0.06   0.16
  29   1    -0.00   0.00   0.01    -0.02  -0.00   0.02    -0.01   0.00   0.05
  30   1     0.01  -0.01   0.02    -0.02  -0.01   0.02    -0.02  -0.02   0.02
  31   8     0.07  -0.03   0.09    -0.13   0.03  -0.20    -0.05  -0.16  -0.23
  32   1     0.01  -0.00   0.02    -0.03  -0.00  -0.04    -0.02  -0.05  -0.05
  33   1     0.02  -0.01   0.02    -0.05   0.02  -0.07    -0.01  -0.04  -0.07
  34   8    -0.16  -0.11   0.26     0.04   0.06  -0.01    -0.03  -0.06   0.04
  35   1    -0.03  -0.02   0.04     0.02  -0.00   0.00    -0.01  -0.00   0.00
  36   1    -0.02  -0.07   0.10     0.01   0.03  -0.00    -0.00  -0.03   0.02
  37   8     0.06  -0.00  -0.13    -0.13   0.02   0.11    -0.00   0.18  -0.06
  38   1     0.02  -0.02  -0.01    -0.03   0.01   0.01    -0.01   0.04   0.00
  39   1     0.01  -0.01  -0.01    -0.03   0.01   0.01    -0.00   0.03  -0.02
  40   8    -0.23  -0.18   0.15     0.02   0.02  -0.04    -0.09  -0.05  -0.00
  41   1    -0.06  -0.04   0.03     0.00   0.01  -0.01    -0.03  -0.00  -0.01
  42   1    -0.06  -0.04   0.04     0.01   0.00  -0.01    -0.02  -0.02  -0.00
  43   8    -0.03   0.09  -0.02    -0.11   0.06   0.09     0.03   0.12   0.20
  44   1    -0.01   0.02  -0.01    -0.04   0.01   0.01     0.00   0.03   0.04
  45   1    -0.01   0.02  -0.02    -0.03   0.02   0.02     0.01   0.02   0.03
  46   8    -0.10   0.02   0.14     0.07   0.03  -0.03    -0.00   0.09   0.03
  47   1    -0.00   0.00   0.03     0.01   0.01  -0.01    -0.01   0.03   0.01
  48   1    -0.03  -0.01   0.02     0.02   0.01  -0.00     0.00   0.02   0.01
  49   8     0.02   0.10  -0.11    -0.11  -0.07  -0.01     0.09  -0.04  -0.03
  50   1     0.01   0.02  -0.03    -0.03  -0.02  -0.00     0.03  -0.01  -0.01
  51   1     0.00   0.01  -0.03    -0.02  -0.02  -0.00     0.02  -0.01  -0.01
  52   8     0.25   0.12  -0.17     0.02  -0.08   0.03     0.16   0.06  -0.06
  53   1     0.04   0.01  -0.02     0.00  -0.01  -0.00     0.03   0.01  -0.01
  54   1     0.07   0.02  -0.00     0.01  -0.01   0.00     0.04   0.01   0.00
  55   8     0.01   0.12  -0.07    -0.14   0.00   0.12    -0.04  -0.07   0.10
  56   1     0.00   0.03  -0.02    -0.03  -0.00   0.02    -0.00  -0.01   0.02
  57   1     0.00   0.03  -0.02    -0.03   0.01   0.02    -0.00  -0.02   0.02
  58   8    -0.15   0.04  -0.23     0.15  -0.05   0.05     0.07   0.05  -0.05
  59   1    -0.03   0.01  -0.04     0.04  -0.01   0.00     0.02   0.01  -0.01
  60   1    -0.00   0.01  -0.07     0.03  -0.01   0.02     0.02   0.02  -0.01
  61   8    -0.01   0.07  -0.08    -0.22   0.03   0.01    -0.12  -0.04  -0.02
  62   1    -0.00   0.02  -0.02    -0.04   0.01   0.02    -0.02  -0.02   0.01
  63   1    -0.00   0.02  -0.02    -0.06   0.01   0.00    -0.06   0.00  -0.05
  64   8     0.18  -0.06   0.08     0.06   0.03   0.02     0.14   0.02   0.09
  65   1     0.04  -0.02   0.02    -0.00   0.01   0.01     0.01   0.01   0.03
  66   1     0.04  -0.01   0.01     0.03   0.01   0.00     0.04   0.01   0.02
  67   8     0.23  -0.11   0.07     0.38  -0.02   0.16    -0.29   0.05   0.09
  68   1     0.04  -0.01  -0.00     0.07   0.01  -0.01    -0.06  -0.01   0.02
  69   1     0.03  -0.02   0.04     0.04   0.02   0.09    -0.06   0.01   0.01
  70   8     0.02   0.10  -0.07    -0.14   0.02   0.06     0.18  -0.10   0.01
  71   1     0.01   0.03  -0.01    -0.01   0.01   0.03     0.04   0.00   0.01
  72   1     0.01   0.02  -0.01    -0.05  -0.01   0.03     0.04  -0.04   0.02
  73   8     0.01   0.06  -0.04    -0.11  -0.06  -0.03     0.18  -0.10  -0.01
  74   1     0.00   0.01  -0.01    -0.03  -0.02  -0.00     0.05  -0.02  -0.01
  75   1     0.00   0.02   0.00    -0.02  -0.02  -0.00     0.03  -0.01   0.00
                     13                     14                     15
                        a                      a                      a 
 Frequencies --    59.5653                60.2756                63.7461
 Red. masses --    14.3290                14.4324                14.1968
 Frc consts  --     0.0000                 0.0000                 0.0000
 IR Inten    --     0.4837                 0.1760                 1.0756
 Raman Activ --     0.0000                 0.0000                 0.0000
 Depolar     --     0.0000                 0.0000                 0.0000
 Atom AN      X      Y      Z        X      Y      Z        X      Y      Z
   1   8    -0.08  -0.02   0.13     0.09  -0.10  -0.16    -0.00  -0.13  -0.06
   2   1    -0.01   0.00   0.00     0.02  -0.03  -0.03    -0.00  -0.03  -0.01
   3   1    -0.04   0.02   0.10     0.03  -0.04  -0.07     0.00  -0.03  -0.01
   4   8     0.01   0.09   0.12     0.13   0.03   0.04     0.22  -0.05   0.11
   5   1     0.02   0.03   0.05     0.04  -0.01   0.03     0.05  -0.02   0.02
   6   1     0.01   0.01   0.01     0.05   0.00  -0.02     0.05  -0.02   0.02
   7   8     0.20   0.06   0.04    -0.11  -0.00  -0.04     0.12  -0.06   0.03
   8   1     0.06   0.01   0.02    -0.03   0.00  -0.02     0.01  -0.01   0.00
   9   1     0.05   0.02   0.03    -0.03  -0.00  -0.01     0.03  -0.01  -0.02
  10   8     0.15   0.13   0.24    -0.11  -0.01  -0.02     0.17  -0.01  -0.25
  11   1     0.03   0.03   0.05    -0.03  -0.00  -0.00     0.03  -0.00  -0.05
  12   1     0.03   0.03   0.06    -0.02   0.00   0.00     0.05  -0.00  -0.06
  13   8    -0.05  -0.05  -0.20    -0.06  -0.01  -0.04    -0.03  -0.13   0.19
  14   1    -0.00  -0.01  -0.04    -0.01   0.00  -0.00    -0.01  -0.03   0.04
  15   1    -0.03  -0.02  -0.04    -0.02   0.00  -0.01     0.00  -0.02   0.03
  16   8     0.02  -0.16  -0.13     0.07   0.19   0.07     0.04  -0.18  -0.06
  17   1    -0.01  -0.03  -0.03     0.02   0.03  -0.01     0.01  -0.04  -0.01
  18   1     0.02  -0.02  -0.02     0.01   0.03   0.01     0.02  -0.04  -0.01
  19   8    -0.04   0.03  -0.11     0.17   0.10  -0.22    -0.02  -0.00  -0.05
  20   1    -0.02   0.01  -0.03     0.04   0.02  -0.03    -0.02   0.00  -0.01
  21   1    -0.00   0.02  -0.03     0.02   0.01  -0.03     0.00   0.00  -0.02
  22   8     0.20  -0.14   0.02    -0.15  -0.03  -0.00    -0.11  -0.11   0.03
  23   1     0.04  -0.04   0.01    -0.02   0.02  -0.01    -0.03  -0.02   0.01
  24   1     0.04  -0.04  -0.00    -0.04  -0.01   0.03    -0.02  -0.03   0.01
  25   8    -0.09   0.05   0.09     0.03   0.07   0.05    -0.06   0.12   0.14
  26   1    -0.03   0.02   0.04     0.01   0.02   0.02    -0.01   0.04   0.05
  27   1    -0.02   0.02   0.01     0.01   0.02   0.00    -0.01   0.04   0.02
  28   8    -0.03   0.10  -0.02     0.03   0.12  -0.02     0.03   0.13   0.03
  29   1     0.01   0.01   0.01    -0.00   0.02  -0.01     0.00   0.03   0.00
  30   1    -0.00   0.02  -0.01     0.01   0.03   0.01     0.02   0.01   0.02
  31   8     0.03   0.01   0.18     0.10   0.01   0.06     0.11   0.37  -0.24
  32   1     0.01   0.01   0.04     0.03   0.01   0.01     0.05   0.07  -0.03
  33   1    -0.00   0.01   0.04     0.04  -0.00   0.03    -0.04   0.15  -0.13
  34   8     0.10  -0.19  -0.19    -0.05  -0.01   0.33    -0.02  -0.08  -0.04
  35   1     0.02  -0.05  -0.04     0.00   0.01   0.06     0.00  -0.03  -0.01
  36   1     0.02  -0.05  -0.06     0.00  -0.01   0.11    -0.01  -0.00  -0.01
  37   8     0.03  -0.00  -0.11     0.08  -0.08  -0.06     0.02  -0.09  -0.01
  38   1     0.01   0.00  -0.03     0.03  -0.01  -0.04     0.01  -0.02  -0.00
  39   1     0.01  -0.01   0.01     0.02  -0.01  -0.01     0.01  -0.00  -0.02
  40   8    -0.01   0.09  -0.11    -0.17  -0.17   0.14    -0.08  -0.04  -0.06
  41   1    -0.01   0.02  -0.01    -0.04  -0.03   0.02    -0.02  -0.01  -0.01
  42   1     0.01  -0.00  -0.03    -0.02  -0.05   0.06    -0.01  -0.02  -0.01
  43   8     0.17  -0.01   0.11    -0.14   0.02  -0.07    -0.08   0.02  -0.03
  44   1     0.02  -0.01   0.02    -0.04   0.01  -0.01    -0.01   0.01  -0.01
  45   1     0.05   0.01   0.01    -0.04   0.00  -0.02    -0.02  -0.01   0.00
  46   8     0.03  -0.06  -0.08     0.25  -0.02  -0.23     0.18  -0.05   0.17
  47   1     0.01  -0.02  -0.02     0.06  -0.02  -0.05     0.04   0.02   0.03
  48   1     0.00  -0.00  -0.03     0.05   0.02  -0.06     0.03  -0.01   0.03
  49   8     0.05  -0.03  -0.02     0.08  -0.23   0.11    -0.23   0.07   0.02
  50   1     0.02  -0.00  -0.01     0.01  -0.05   0.01    -0.03   0.01   0.01
  51   1     0.03  -0.02   0.00     0.00  -0.06   0.02    -0.06   0.01   0.00
  52   8    -0.16   0.04  -0.10    -0.07   0.02  -0.06    -0.11   0.02  -0.04
  53   1    -0.03   0.01  -0.03    -0.03  -0.01   0.00    -0.04   0.00  -0.01
  54   1    -0.04   0.01  -0.03    -0.02   0.02  -0.02    -0.02   0.01  -0.00
  55   8    -0.11   0.04   0.26     0.01  -0.10   0.30    -0.08   0.06  -0.16
  56   1    -0.02   0.01   0.05     0.01  -0.03   0.06    -0.03   0.02  -0.02
  57   1    -0.01   0.02   0.04     0.00  -0.02   0.06    -0.02   0.01  -0.03
  58   8    -0.12   0.05  -0.07     0.07   0.11   0.03    -0.12   0.07   0.01
  59   1    -0.03   0.02  -0.02     0.01   0.02   0.01    -0.02   0.02   0.01
  60   1    -0.04   0.01  -0.02     0.01   0.02   0.00    -0.03   0.01  -0.00
  61   8    -0.32  -0.07   0.02    -0.17   0.06  -0.00     0.05   0.05   0.00
  62   1    -0.06  -0.00   0.03    -0.02   0.00   0.03     0.00   0.02  -0.02
  63   1    -0.11  -0.01   0.01    -0.05   0.02  -0.02     0.01   0.01  -0.00
  64   8    -0.16   0.00  -0.06    -0.01   0.04  -0.11    -0.05   0.13   0.04
  65   1    -0.03   0.01  -0.01     0.00   0.02  -0.02    -0.01   0.03   0.01
  66   1    -0.04  -0.01  -0.01    -0.01   0.01  -0.02    -0.01   0.03   0.01
  67   8    -0.00   0.03   0.04    -0.06   0.02   0.02    -0.08  -0.02   0.17
  68   1    -0.01   0.00  -0.02    -0.01   0.00  -0.00    -0.02  -0.01   0.05
  69   1    -0.01  -0.02   0.02    -0.02   0.01   0.01    -0.03   0.02   0.05
  70   8     0.08   0.05  -0.02    -0.03   0.01   0.00     0.06  -0.04   0.02
  71   1     0.03   0.02   0.00    -0.01  -0.00  -0.00     0.03  -0.01   0.01
  72   1     0.02   0.00   0.00    -0.00   0.01  -0.01     0.01  -0.01   0.01
  73   8     0.08  -0.05  -0.07     0.00  -0.06  -0.12     0.07  -0.06   0.04
  74   1     0.02  -0.00  -0.01    -0.01  -0.01  -0.02     0.02  -0.02   0.00
  75   1     0.02  -0.02  -0.03     0.00   0.00  -0.00     0.02  -0.02  -0.00
                     16                     17                     18
                        a                      a                      a 
 Frequencies --    65.7055                70.1282                70.7972
 Red. masses --    14.3293                14.5608                14.4401
 Frc consts  --     0.0000                 0.0000                 0.0000
 IR Inten    --     0.8663                 0.9733                 4.2839
 Raman Activ --     0.0000                 0.0000                 0.0000
 Depolar     --     0.0000                 0.0000                 0.0000
 Atom AN      X      Y      Z        X      Y      Z        X      Y      Z
   1   8    -0.09  -0.04  -0.16     0.02   0.13   0.12     0.01  -0.10  -0.17
   2   1    -0.02  -0.00  -0.02    -0.00   0.02   0.01     0.01  -0.01  -0.01
   3   1    -0.03  -0.02  -0.08     0.02   0.03   0.06    -0.01  -0.03  -0.08
   4   8     0.30  -0.12  -0.26     0.10  -0.04  -0.09    -0.17  -0.01  -0.06
   5   1     0.07   0.00  -0.09     0.02  -0.00  -0.03    -0.04  -0.02  -0.01
   6   1     0.06  -0.02  -0.03     0.02  -0.01  -0.01    -0.02   0.01  -0.02
   7   8    -0.08  -0.08  -0.03    -0.16   0.09  -0.04     0.06  -0.07   0.12
   8   1    -0.00  -0.03  -0.00    -0.05   0.02  -0.01     0.02  -0.01   0.02
   9   1    -0.02  -0.01  -0.00    -0.03   0.00  -0.01     0.01  -0.00   0.03
  10   8    -0.09  -0.06  -0.06    -0.14  -0.08  -0.01     0.00   0.16   0.15
  11   1    -0.01  -0.01  -0.01    -0.02  -0.01   0.00     0.00   0.04   0.03
  12   1    -0.04  -0.03  -0.03    -0.04  -0.02  -0.00    -0.01   0.03   0.03
  13   8    -0.03   0.11  -0.16     0.06  -0.01  -0.09     0.11   0.06  -0.01
  14   1    -0.01   0.02  -0.03     0.02  -0.00  -0.02     0.02   0.00   0.01
  15   1    -0.01   0.02  -0.03     0.01  -0.01  -0.02     0.02   0.01   0.00
  16   8    -0.09  -0.09  -0.03    -0.00   0.28   0.07     0.03  -0.21  -0.09
  17   1    -0.01  -0.02   0.00    -0.01   0.06  -0.00     0.01  -0.05  -0.01
  18   1    -0.03  -0.03  -0.01     0.00   0.07   0.01     0.01  -0.04  -0.00
  19   8     0.01   0.01   0.07    -0.06  -0.04  -0.09     0.16   0.19  -0.01
  20   1     0.00   0.00   0.01    -0.03  -0.01  -0.01     0.05   0.04   0.01
  21   1     0.01   0.00  -0.00    -0.00   0.00  -0.02     0.02   0.03  -0.00
  22   8     0.16   0.07   0.11    -0.10  -0.42   0.03    -0.07  -0.20   0.07
  23   1     0.02   0.01   0.03    -0.02  -0.09   0.00     0.01  -0.03   0.01
  24   1     0.02   0.01   0.02     0.02  -0.09   0.01    -0.02  -0.05   0.02
  25   8    -0.15   0.09   0.26     0.09   0.07   0.09    -0.14  -0.02   0.02
  26   1    -0.05   0.04   0.11     0.03   0.02   0.03    -0.05   0.00   0.02
  27   1    -0.01   0.03   0.03     0.01   0.03   0.02    -0.03  -0.01  -0.00
  28   8     0.17   0.08  -0.06     0.00   0.11   0.07    -0.11  -0.03   0.00
  29   1     0.06   0.02  -0.01    -0.00   0.03   0.01    -0.02  -0.01   0.00
  30   1     0.06  -0.00  -0.03     0.01   0.02   0.02    -0.03   0.01  -0.01
  31   8    -0.10  -0.27  -0.09    -0.16  -0.14   0.00     0.06  -0.18   0.10
  32   1     0.00  -0.06  -0.03    -0.02  -0.03  -0.00    -0.02  -0.04   0.01
  33   1    -0.00  -0.07   0.02    -0.04  -0.03   0.02     0.06  -0.09   0.05
  34   8    -0.09  -0.01  -0.08     0.39  -0.27   0.01    -0.04  -0.20  -0.00
  35   1    -0.03   0.00  -0.01     0.07  -0.03   0.01    -0.00  -0.05  -0.01
  36   1    -0.03  -0.01  -0.03     0.08  -0.06  -0.02    -0.01  -0.04   0.00
  37   8    -0.06   0.04   0.06    -0.13  -0.06  -0.07     0.09   0.04   0.12
  38   1    -0.03   0.01   0.03    -0.04  -0.01  -0.02     0.02   0.02   0.01
  39   1    -0.02  -0.00  -0.01    -0.03  -0.03  -0.02     0.02   0.01   0.03
  40   8    -0.04  -0.07  -0.10     0.06   0.11   0.02    -0.10  -0.09  -0.01
  41   1    -0.02  -0.02  -0.02     0.01   0.03   0.01    -0.03  -0.02  -0.00
  42   1    -0.01  -0.02  -0.03     0.04   0.00   0.02    -0.02  -0.04  -0.00
  43   8     0.17  -0.09  -0.03    -0.08   0.03   0.02    -0.04   0.00   0.04
  44   1     0.03  -0.03  -0.01     0.01   0.01   0.00     0.01   0.00   0.01
  45   1     0.04  -0.01  -0.01    -0.03  -0.04   0.00    -0.02  -0.02   0.02
  46   8     0.13   0.06   0.22     0.05   0.02   0.05     0.03   0.12  -0.21
  47   1     0.02   0.05   0.04     0.01   0.02   0.00     0.00   0.00  -0.04
  48   1     0.04  -0.00   0.05     0.01  -0.01   0.00     0.01   0.05  -0.04
  49   8     0.10   0.01   0.07    -0.19   0.08   0.15    -0.29   0.14   0.07
  50   1     0.01   0.00   0.02    -0.02   0.03   0.01    -0.04   0.03   0.02
  51   1     0.04   0.01   0.02    -0.06  -0.02   0.03    -0.07   0.01   0.02
  52   8     0.00   0.05  -0.04     0.02  -0.02  -0.02     0.09   0.08  -0.06
  53   1    -0.01   0.01  -0.00     0.01   0.00  -0.01     0.01   0.01  -0.01
  54   1     0.00   0.02   0.00     0.01  -0.01   0.00     0.02   0.03  -0.01
  55   8     0.04  -0.05   0.08     0.03   0.08  -0.10    -0.09   0.07  -0.21
  56   1     0.01  -0.01   0.02    -0.01   0.02   0.00    -0.04   0.02  -0.03
  57   1     0.01  -0.01   0.02     0.01   0.02  -0.02    -0.02   0.01  -0.04
  58   8    -0.08   0.14   0.07    -0.08  -0.05  -0.03     0.18   0.22   0.09
  59   1    -0.02   0.03   0.03    -0.00  -0.00  -0.00     0.02   0.04   0.02
  60   1    -0.01   0.03   0.01    -0.02  -0.01  -0.01     0.04   0.05   0.02
  61   8    -0.05  -0.09  -0.02     0.04  -0.03  -0.05     0.11   0.00   0.06
  62   1    -0.01  -0.02   0.00     0.01   0.00  -0.02     0.01   0.01  -0.02
  63   1     0.00  -0.03   0.03     0.00  -0.01  -0.01     0.04  -0.00   0.03
  64   8     0.04   0.17   0.05     0.02   0.05   0.02     0.08   0.00  -0.05
  65   1     0.02   0.03   0.01     0.00   0.02   0.01     0.00  -0.00  -0.01
  66   1     0.00   0.05   0.00     0.02   0.00   0.01     0.01   0.01  -0.02
  67   8     0.07   0.01  -0.03     0.08   0.00  -0.00     0.03   0.12  -0.14
  68   1     0.01   0.01  -0.02     0.02  -0.01  -0.01     0.01   0.03  -0.02
  69   1     0.00   0.00   0.01     0.01   0.01   0.01     0.03   0.00  -0.06
  70   8    -0.11   0.03   0.01     0.06  -0.01  -0.02    -0.01  -0.08   0.09
  71   1    -0.03  -0.00  -0.00    -0.00   0.01  -0.01     0.00  -0.02   0.03
  72   1    -0.02   0.01  -0.00     0.02  -0.01  -0.01    -0.01  -0.02   0.03
  73   8    -0.14   0.08   0.12     0.07   0.11  -0.05     0.02   0.01   0.09
  74   1    -0.03   0.02   0.03     0.01   0.02  -0.01     0.00  -0.00   0.02
  75   1    -0.03   0.01   0.01     0.01   0.04   0.01     0.01  -0.01   0.01
                     19                     20                     21
                        a                      a                      a 
 Frequencies --    74.5457                75.8461                77.7179
 Red. masses --    14.3683                14.2174                14.5138
 Frc consts  --     0.0000                 0.0000                 0.0000
 IR Inten    --     0.9482                 0.3047                 1.4344
 Raman Activ --     0.0000                 0.0000                 0.0000
 Depolar     --     0.0000                 0.0000                 0.0000
 Atom AN      X      Y      Z        X      Y      Z        X      Y      Z
   1   8     0.10   0.07  -0.03    -0.12  -0.15   0.08     0.07  -0.03  -0.04
   2   1     0.02   0.01   0.01    -0.01  -0.03  -0.01     0.02  -0.01  -0.00
   3   1     0.03   0.01  -0.02    -0.05  -0.01   0.09     0.02  -0.01  -0.01
   4   8     0.09  -0.08  -0.03    -0.04   0.00   0.04    -0.11  -0.02   0.09
   5   1     0.02  -0.02  -0.01    -0.01  -0.03   0.02    -0.03  -0.03   0.03
   6   1     0.02  -0.02  -0.01     0.01   0.01  -0.00    -0.02  -0.01   0.00
   7   8    -0.11  -0.06   0.06    -0.08   0.07  -0.03    -0.01   0.06   0.11
   8   1    -0.03  -0.02   0.02    -0.02   0.00   0.01    -0.01   0.01   0.03
   9   1    -0.03  -0.01   0.00    -0.02   0.01  -0.01     0.00   0.01   0.02
  10   8    -0.10  -0.03  -0.07    -0.04  -0.07  -0.03     0.07  -0.06  -0.08
  11   1    -0.01   0.00  -0.01    -0.00  -0.01  -0.01     0.01  -0.02  -0.02
  12   1    -0.03  -0.01  -0.02    -0.01  -0.01  -0.00     0.02  -0.01  -0.02
  13   8     0.14   0.00   0.00     0.15   0.01   0.04    -0.22   0.05  -0.09
  14   1     0.03  -0.01   0.02     0.03   0.00  -0.01    -0.07   0.01  -0.04
  15   1     0.02   0.00   0.01     0.04  -0.03   0.03    -0.03  -0.00  -0.02
  16   8    -0.01  -0.00  -0.08    -0.06   0.16   0.06    -0.02  -0.02  -0.09
  17   1     0.00  -0.00  -0.02    -0.02   0.02  -0.02    -0.00  -0.01  -0.03
  18   1    -0.01  -0.00  -0.01    -0.02   0.04   0.00    -0.00   0.00  -0.01
  19   8    -0.06   0.10   0.07     0.05   0.01  -0.16     0.03   0.08  -0.01
  20   1     0.01   0.02  -0.01     0.01  -0.00  -0.02     0.01   0.02  -0.00
  21   1    -0.02   0.02   0.02     0.01  -0.00  -0.04     0.00   0.01   0.00
  22   8     0.05   0.01  -0.28     0.09   0.18   0.03     0.05  -0.13  -0.05
  23   1     0.03   0.01  -0.07     0.01   0.04   0.01     0.02  -0.03  -0.01
  24   1     0.01   0.00  -0.06     0.03   0.05   0.01     0.01  -0.03  -0.02
  25   8     0.23  -0.23   0.23     0.06   0.21  -0.04     0.04  -0.03  -0.02
  26   1     0.04  -0.03   0.12     0.03   0.04  -0.04    -0.00  -0.01  -0.01
  27   1     0.04  -0.02   0.05    -0.00   0.05   0.01    -0.00  -0.01   0.01
  28   8    -0.05   0.11   0.05    -0.10   0.08   0.19    -0.13   0.01   0.09
  29   1    -0.00   0.02   0.02    -0.01  -0.01   0.06    -0.03   0.00   0.03
  30   1    -0.00   0.01   0.01    -0.03   0.02   0.04    -0.03   0.00   0.02
  31   8    -0.01  -0.05  -0.05     0.10  -0.01   0.04     0.06   0.17  -0.08
  32   1     0.00  -0.01  -0.01     0.02  -0.00   0.01     0.00   0.03  -0.01
  33   1     0.02  -0.03   0.01     0.04  -0.01   0.02    -0.00   0.05  -0.05
  34   8    -0.09  -0.06   0.03    -0.00   0.15  -0.00     0.02  -0.17  -0.03
  35   1    -0.02  -0.01   0.00    -0.01   0.04   0.01     0.00  -0.03  -0.01
  36   1    -0.01  -0.05   0.03    -0.01   0.03  -0.01     0.01  -0.05  -0.00
  37   8    -0.00   0.01   0.11     0.07  -0.04  -0.15     0.04  -0.02   0.07
  38   1    -0.01   0.01   0.02     0.02  -0.01  -0.04     0.02  -0.00   0.01
  39   1    -0.00   0.00   0.00     0.02  -0.01  -0.03     0.01   0.01   0.01
  40   8    -0.10   0.09   0.11    -0.05  -0.07  -0.13    -0.04   0.02   0.02
  41   1    -0.01   0.02   0.02    -0.02  -0.01  -0.03    -0.01   0.00   0.01
  42   1    -0.02   0.03   0.03    -0.01  -0.02  -0.03    -0.00  -0.00   0.01
  43   8    -0.04  -0.05   0.06    -0.02  -0.20   0.27    -0.01   0.02   0.14
  44   1    -0.02  -0.01   0.02    -0.01  -0.05   0.06     0.01  -0.01   0.01
  45   1    -0.00  -0.01  -0.01    -0.00  -0.04   0.06    -0.00  -0.01   0.02
  46   8     0.00  -0.14   0.03     0.11   0.08  -0.12     0.01  -0.03  -0.10
  47   1    -0.02  -0.05   0.02     0.03   0.02  -0.03    -0.00  -0.03  -0.02
  48   1     0.00  -0.01   0.02     0.02   0.03  -0.04     0.00   0.01  -0.02
  49   8     0.09   0.12  -0.26    -0.02   0.11  -0.09     0.29   0.12   0.17
  50   1     0.04   0.03  -0.06    -0.01   0.02  -0.01     0.06   0.04   0.03
  51   1     0.03   0.02  -0.06     0.00   0.04  -0.02     0.05   0.02   0.03
  52   8    -0.25   0.22   0.06    -0.09  -0.11  -0.15    -0.04   0.11  -0.01
  53   1    -0.07   0.04   0.04    -0.03  -0.02  -0.04    -0.01   0.02   0.01
  54   1    -0.06   0.08  -0.01    -0.02  -0.03  -0.03    -0.01   0.03  -0.01
  55   8    -0.12   0.05  -0.03    -0.11  -0.10  -0.11     0.25  -0.16  -0.06
  56   1    -0.01   0.02  -0.03    -0.02  -0.01  -0.04     0.06  -0.02  -0.00
  57   1    -0.03   0.01   0.00    -0.02  -0.03  -0.03     0.06  -0.05  -0.00
  58   8     0.22  -0.01  -0.19    -0.12   0.02   0.00     0.08   0.06  -0.06
  59   1     0.05  -0.01  -0.04    -0.02   0.01   0.01     0.01   0.01  -0.02
  60   1     0.03  -0.01  -0.04    -0.03  -0.00  -0.00     0.01   0.02  -0.01
  61   8    -0.02  -0.01   0.14     0.13  -0.31   0.27     0.11  -0.25  -0.20
  62   1    -0.01   0.00   0.03     0.01  -0.06   0.03     0.03  -0.07  -0.04
  63   1    -0.00  -0.00   0.05     0.05  -0.09   0.10     0.04  -0.07  -0.04
  64   8    -0.24  -0.02   0.04    -0.03   0.05   0.05    -0.06  -0.04   0.02
  65   1    -0.05  -0.01   0.01    -0.02   0.04   0.02    -0.02  -0.01   0.01
  66   1    -0.03  -0.00  -0.00     0.00  -0.00   0.03    -0.01  -0.01   0.01
  67   8     0.11   0.06  -0.03     0.15  -0.00  -0.01    -0.08  -0.09   0.09
  68   1     0.03   0.01  -0.01     0.04  -0.00   0.00    -0.03  -0.01   0.01
  69   1     0.03   0.03  -0.00     0.03   0.02   0.01    -0.04  -0.01   0.05
  70   8     0.05  -0.10   0.11    -0.01  -0.13  -0.11    -0.24   0.07   0.03
  71   1     0.00  -0.02   0.02    -0.01  -0.01  -0.02    -0.04   0.03   0.02
  72   1     0.01  -0.02   0.02    -0.02  -0.04  -0.02    -0.05  -0.01   0.02
  73   8     0.10  -0.01  -0.05    -0.01   0.05   0.04    -0.15   0.33   0.11
  74   1     0.02  -0.00  -0.00     0.00  -0.00  -0.01    -0.05   0.07   0.03
  75   1     0.03  -0.00  -0.01    -0.01   0.02   0.02    -0.02   0.06   0.01
                     22                     23                     24
                        a                      a                      a 
 Frequencies --    80.7610                85.1062                88.0454
 Red. masses --    14.3546                14.3149                14.4832
 Frc consts  --     0.0000                 0.0000                 0.0000
 IR Inten    --     0.5187                 0.5641                 2.4373
 Raman Activ --     0.0000                 0.0000                 0.0000
 Depolar     --     0.0000                 0.0000                 0.0000
 Atom AN      X      Y      Z        X      Y      Z        X      Y      Z
   1   8     0.16   0.10  -0.11    -0.10  -0.20  -0.04    -0.03   0.16   0.01
   2   1     0.02   0.01   0.00    -0.01  -0.03  -0.00     0.00   0.05  -0.02
   3   1     0.06   0.00  -0.08    -0.05  -0.03   0.02    -0.02   0.05   0.02
   4   8     0.01   0.08   0.01    -0.06   0.03   0.08     0.13   0.02  -0.04
   5   1     0.02   0.03   0.02    -0.02   0.02   0.01     0.03   0.02  -0.02
   6   1     0.01   0.01  -0.02    -0.02   0.00   0.02     0.02  -0.01  -0.00
   7   8    -0.16   0.14   0.04    -0.19   0.07   0.06     0.10  -0.05   0.04
   8   1    -0.03   0.03   0.01    -0.05   0.03   0.00     0.02   0.00  -0.01
   9   1    -0.04   0.02   0.01    -0.04   0.01   0.00     0.02  -0.01   0.02
  10   8    -0.06  -0.16  -0.05    -0.11  -0.12  -0.18     0.07   0.08   0.04
  11   1    -0.01  -0.04  -0.02    -0.02  -0.03  -0.04     0.02   0.02   0.01
  12   1    -0.02  -0.03  -0.01    -0.02  -0.02  -0.04     0.00   0.02   0.00
  13   8     0.10  -0.05  -0.03     0.07  -0.03  -0.01     0.09   0.03   0.12
  14   1     0.03  -0.01  -0.00     0.02  -0.01   0.01     0.01  -0.00   0.03
  15   1     0.02  -0.01  -0.00     0.01   0.01  -0.01     0.03   0.01   0.03
  16   8    -0.20   0.07  -0.25    -0.09   0.19   0.18     0.12  -0.10  -0.11
  17   1    -0.05   0.02  -0.06    -0.02   0.03   0.02     0.03  -0.02  -0.02
  18   1    -0.04   0.03  -0.04    -0.03   0.04   0.05     0.03  -0.02  -0.01
  19   8     0.16  -0.12  -0.01    -0.00   0.04   0.19    -0.12  -0.02   0.01
  20   1     0.03  -0.02   0.01     0.01   0.01   0.02    -0.04  -0.00  -0.00
  21   1     0.04  -0.02   0.02     0.00   0.01   0.02    -0.02   0.00   0.01
  22   8     0.16  -0.02   0.11     0.13  -0.08   0.02    -0.09  -0.04  -0.00
  23   1     0.03  -0.01   0.03     0.03  -0.01   0.00    -0.03  -0.02   0.00
  24   1     0.01  -0.02   0.02     0.05  -0.01   0.01    -0.02  -0.01  -0.01
  25   8    -0.12   0.16  -0.15    -0.12  -0.08  -0.06     0.08   0.07  -0.04
  26   1    -0.03   0.02  -0.09    -0.04  -0.02  -0.01     0.03   0.01  -0.03
  27   1    -0.02  -0.00  -0.02    -0.02  -0.03  -0.02     0.01   0.01  -0.00
  28   8     0.14  -0.16   0.06    -0.03  -0.04  -0.12     0.06   0.07  -0.02
  29   1     0.04  -0.02   0.01    -0.00  -0.00  -0.03     0.01   0.03  -0.01
  30   1     0.03  -0.02  -0.00    -0.01  -0.01  -0.03     0.02   0.01  -0.00
  31   8    -0.10   0.15  -0.03     0.24   0.14  -0.01     0.02  -0.05   0.01
  32   1    -0.02   0.04  -0.01     0.03   0.03  -0.00     0.01  -0.01  -0.00
  33   1    -0.03   0.05  -0.01     0.13  -0.02   0.03     0.01  -0.01   0.02
  34   8    -0.23  -0.17  -0.05     0.28  -0.04  -0.08    -0.05  -0.03   0.03
  35   1    -0.07  -0.02  -0.02     0.04   0.01   0.00     0.01  -0.02  -0.01
  36   1    -0.06  -0.06  -0.01     0.05  -0.01  -0.05    -0.00  -0.00   0.03
  37   8    -0.08  -0.04   0.05     0.17   0.09   0.11     0.03   0.13  -0.17
  38   1     0.00  -0.01   0.00     0.05   0.01   0.05    -0.00   0.03  -0.02
  39   1    -0.02   0.01   0.02     0.05   0.05  -0.00     0.01   0.01  -0.03
  40   8     0.16  -0.10   0.19    -0.01  -0.06  -0.23    -0.04   0.08   0.06
  41   1     0.03  -0.02   0.04    -0.00  -0.02  -0.06    -0.01   0.02   0.02
  42   1     0.02  -0.02   0.03     0.01  -0.02  -0.05    -0.01   0.02   0.01
  43   8     0.17   0.09   0.08     0.13   0.15  -0.04    -0.04   0.07  -0.06
  44   1     0.04   0.03   0.03     0.03   0.05   0.00    -0.01   0.03   0.00
  45   1     0.04   0.02   0.01     0.03   0.02  -0.02    -0.01   0.02  -0.01
  46   8     0.03  -0.03  -0.18    -0.12  -0.06   0.09    -0.04  -0.14   0.03
  47   1     0.01  -0.02  -0.04    -0.03  -0.02   0.03    -0.01  -0.04   0.01
  48   1     0.02  -0.01  -0.03    -0.02  -0.01   0.03    -0.01  -0.03   0.01
  49   8    -0.07   0.04  -0.02     0.01   0.02  -0.01     0.06   0.13   0.17
  50   1    -0.01   0.01  -0.00     0.00   0.00   0.00     0.02   0.03   0.04
  51   1     0.01   0.00   0.01     0.02   0.00   0.00     0.01   0.02   0.04
  52   8     0.02   0.15   0.17    -0.04  -0.03  -0.12     0.10   0.01  -0.00
  53   1     0.02   0.03   0.06    -0.01  -0.01  -0.03     0.03   0.01  -0.01
  54   1     0.00   0.02   0.04    -0.01  -0.00  -0.04     0.02  -0.01   0.00
  55   8    -0.11  -0.01   0.01    -0.14  -0.11   0.09    -0.24  -0.43   0.08
  56   1    -0.03   0.00   0.00    -0.03  -0.01   0.02    -0.04  -0.07   0.02
  57   1    -0.02  -0.01   0.00    -0.03  -0.04   0.03    -0.05  -0.13   0.05
  58   8    -0.13   0.04   0.04     0.11   0.10  -0.00    -0.10  -0.05  -0.05
  59   1    -0.03   0.02  -0.01     0.01   0.01  -0.01    -0.01  -0.00  -0.01
  60   1    -0.03   0.03   0.03     0.02   0.02  -0.00    -0.01  -0.01  -0.01
  61   8    -0.05   0.08   0.04    -0.09   0.23  -0.01     0.04   0.20   0.12
  62   1    -0.01   0.02   0.01    -0.02   0.03   0.01    -0.01  -0.01   0.03
  63   1    -0.02   0.03  -0.01    -0.02   0.06  -0.04     0.05   0.05  -0.01
  64   8    -0.04  -0.09   0.08    -0.04  -0.04  -0.09     0.03  -0.09  -0.07
  65   1     0.01  -0.02   0.01    -0.01  -0.02  -0.03     0.01  -0.01  -0.02
  66   1    -0.04  -0.02   0.03    -0.01  -0.00  -0.03     0.00  -0.03  -0.01
  67   8     0.16  -0.08   0.05     0.09  -0.02   0.02     0.04   0.05  -0.06
  68   1     0.04  -0.02   0.00     0.03  -0.01   0.00     0.01   0.02   0.01
  69   1     0.02   0.01   0.03     0.01   0.03   0.03     0.03  -0.00  -0.04
  70   8     0.04  -0.10  -0.00    -0.03  -0.13   0.05    -0.22  -0.29  -0.17
  71   1    -0.00  -0.00   0.00    -0.02  -0.02   0.01    -0.03  -0.06  -0.02
  72   1     0.01  -0.03   0.01    -0.01  -0.04   0.02    -0.09  -0.07  -0.03
  73   8     0.05   0.00  -0.05    -0.04  -0.02   0.13    -0.02   0.23   0.06
  74   1     0.02   0.00  -0.02    -0.00  -0.01   0.02    -0.01   0.01  -0.01
  75   1     0.00   0.00  -0.02    -0.02   0.01   0.05     0.01   0.03  -0.00
                     25                     26                     27
                        a                      a                      a 
 Frequencies --    91.2292                95.0409               102.7615
 Red. masses --    13.9714                14.5231                14.1296
 Frc consts  --     0.0000                 0.0000                 0.0000
 IR Inten    --     2.3826                 0.4208                 0.9333
 Raman Activ --     0.0000                 0.0000                 0.0000
 Depolar     --     0.0000                 0.0000                 0.0000
 Atom AN      X      Y      Z        X      Y      Z        X      Y      Z
   1   8    -0.10   0.02  -0.13     0.11   0.04   0.01     0.02   0.08  -0.09
   2   1    -0.02   0.02  -0.01     0.02   0.00   0.01    -0.00   0.02   0.01
   3   1    -0.03  -0.01  -0.11     0.04   0.00   0.00     0.02  -0.01  -0.14
   4   8     0.21   0.10  -0.09     0.09  -0.02   0.02    -0.06  -0.01   0.01
   5   1     0.05   0.05  -0.03     0.02   0.01  -0.00    -0.01  -0.02   0.01
   6   1     0.02  -0.01  -0.02     0.01  -0.02   0.01     0.00   0.01  -0.00
   7   8     0.03  -0.00   0.06    -0.05   0.05   0.06     0.09   0.17  -0.06
   8   1    -0.00  -0.00   0.02    -0.01   0.00   0.02     0.01   0.04  -0.01
   9   1     0.01  -0.00   0.01    -0.01   0.01   0.01     0.02   0.03  -0.01
  10   8     0.01   0.04   0.01    -0.01  -0.03  -0.02     0.11   0.03   0.07
  11   1    -0.00   0.01   0.01    -0.00  -0.01  -0.01     0.02   0.00   0.01
  12   1    -0.01  -0.00  -0.01    -0.00  -0.01  -0.01     0.03   0.00   0.02
  13   8    -0.05   0.04  -0.04     0.00  -0.02  -0.03    -0.02   0.03   0.03
  14   1    -0.01   0.01  -0.00     0.00  -0.00  -0.00    -0.00   0.02  -0.01
  15   1    -0.01   0.01  -0.01    -0.00  -0.01  -0.00     0.00   0.00   0.01
  16   8     0.01  -0.07   0.15    -0.06   0.06  -0.09    -0.12   0.01   0.11
  17   1     0.01  -0.01   0.05    -0.02   0.01  -0.03    -0.03   0.02   0.05
  18   1    -0.00  -0.02   0.04    -0.01   0.02  -0.02    -0.02   0.01   0.02
  19   8     0.02  -0.13   0.18    -0.14   0.04   0.12     0.22  -0.28   0.05
  20   1    -0.00  -0.02   0.02    -0.03   0.01   0.02     0.04  -0.06  -0.00
  21   1     0.02  -0.02   0.03    -0.03   0.01   0.03     0.06  -0.06   0.02
  22   8    -0.12  -0.03  -0.07     0.08   0.05   0.14    -0.07  -0.04  -0.12
  23   1    -0.03   0.00  -0.02     0.01   0.01   0.04    -0.00  -0.01  -0.03
  24   1    -0.02  -0.00  -0.01     0.01   0.01   0.03    -0.01  -0.01  -0.03
  25   8     0.16   0.29  -0.16     0.03   0.06  -0.04    -0.03  -0.14   0.16
  26   1     0.05   0.04  -0.11     0.02   0.02   0.00    -0.01  -0.01   0.11
  27   1     0.02   0.04   0.01    -0.01   0.04  -0.01    -0.02   0.02   0.01
  28   8     0.13   0.06   0.16    -0.24   0.35  -0.17    -0.23   0.19  -0.09
  29   1     0.03   0.02   0.03    -0.04   0.06  -0.02    -0.04   0.03  -0.01
  30   1     0.03   0.02   0.03    -0.04   0.04  -0.03    -0.05   0.03  -0.02
  31   8     0.07  -0.09   0.06    -0.01   0.05  -0.03    -0.03  -0.01   0.03
  32   1     0.02  -0.00  -0.01     0.01   0.01  -0.00    -0.01  -0.00   0.01
  33   1     0.09  -0.07   0.10    -0.00   0.02  -0.01    -0.01  -0.00  -0.01
  34   8     0.05   0.05  -0.00    -0.16  -0.02   0.06    -0.00  -0.01  -0.03
  35   1     0.01   0.00   0.01    -0.04   0.01   0.00    -0.02  -0.01   0.01
  36   1     0.00   0.03  -0.01    -0.03  -0.03   0.03    -0.02   0.01  -0.03
  37   8     0.06   0.16  -0.02    -0.02  -0.03   0.11    -0.01   0.06  -0.05
  38   1     0.02   0.02   0.02    -0.01  -0.00   0.02     0.01  -0.00   0.00
  39   1     0.01   0.04  -0.00    -0.00  -0.01   0.01    -0.00   0.02   0.01
  40   8     0.11  -0.12  -0.04    -0.06   0.07   0.08     0.36  -0.24   0.10
  41   1     0.02  -0.02  -0.01    -0.01   0.01   0.02     0.08  -0.05   0.02
  42   1     0.02  -0.02  -0.02    -0.03   0.02   0.01     0.07  -0.05   0.01
  43   8    -0.11   0.01   0.07     0.08  -0.05   0.11    -0.08   0.06   0.08
  44   1    -0.02  -0.00   0.00     0.02  -0.02   0.01    -0.02   0.02   0.02
  45   1    -0.03  -0.00   0.01     0.02  -0.01   0.04    -0.02   0.01   0.01
  46   8    -0.11  -0.31  -0.10    -0.10  -0.25   0.08     0.03   0.12   0.04
  47   1    -0.04  -0.10  -0.01    -0.02  -0.06   0.02     0.01   0.07  -0.01
  48   1    -0.01  -0.07   0.00    -0.03  -0.06   0.02     0.02  -0.01   0.01
  49   8    -0.06  -0.05  -0.01    -0.09  -0.03   0.02     0.03   0.02  -0.03
  50   1    -0.02  -0.01   0.00    -0.02  -0.01   0.00     0.01  -0.00   0.01
  51   1    -0.03  -0.00  -0.01    -0.01  -0.01   0.01     0.00   0.01  -0.01
  52   8    -0.03   0.15  -0.06     0.25  -0.11  -0.08    -0.07   0.03   0.03
  53   1     0.02   0.03   0.01     0.08  -0.01  -0.04     0.00  -0.01   0.04
  54   1    -0.01   0.01  -0.03     0.06  -0.05  -0.05    -0.02   0.01  -0.02
  55   8     0.09   0.12  -0.07     0.03   0.08  -0.01    -0.07  -0.09  -0.00
  56   1     0.01   0.02  -0.01    -0.00   0.01   0.00    -0.01  -0.02  -0.01
  57   1     0.01   0.03  -0.02     0.01   0.02  -0.01    -0.02  -0.03  -0.00
  58   8    -0.14   0.09  -0.12     0.03   0.02   0.08    -0.03  -0.08  -0.11
  59   1    -0.01   0.04  -0.03     0.00   0.00   0.02    -0.02  -0.03  -0.03
  60   1    -0.02   0.04  -0.02     0.02   0.00   0.01     0.00  -0.01  -0.02
  61   8     0.03  -0.08  -0.05     0.00  -0.17   0.05     0.01  -0.00   0.05
  62   1     0.01  -0.01  -0.01     0.00  -0.02   0.00    -0.00  -0.01   0.01
  63   1    -0.00  -0.02  -0.01     0.01  -0.05   0.06     0.02  -0.00   0.01
  64   8    -0.18  -0.25  -0.00     0.13  -0.09  -0.49    -0.03   0.19  -0.23
  65   1    -0.01  -0.03   0.00    -0.01  -0.01  -0.11    -0.03   0.04  -0.05
  66   1    -0.06  -0.08   0.04     0.04  -0.03  -0.11     0.01   0.05  -0.07
  67   8    -0.05   0.02  -0.02     0.03  -0.02   0.02    -0.00  -0.02   0.00
  68   1    -0.01   0.01  -0.01     0.00  -0.01  -0.00    -0.00   0.00   0.00
  69   1    -0.01  -0.01  -0.01    -0.00   0.01   0.02     0.00  -0.02  -0.00
  70   8     0.02   0.11   0.13     0.04   0.02   0.07     0.03   0.03  -0.16
  71   1     0.01   0.02   0.03     0.01   0.01   0.02     0.01   0.02  -0.03
  72   1     0.02   0.02   0.03     0.01   0.00   0.02     0.00  -0.00  -0.03
  73   8    -0.06  -0.12   0.15     0.04  -0.02  -0.09    -0.06  -0.07   0.24
  74   1    -0.01  -0.02   0.04     0.01   0.00  -0.01     0.00  -0.02   0.03
  75   1    -0.02  -0.03   0.03     0.01  -0.00  -0.02    -0.04  -0.01   0.06
                     28                     29                     30
                        a                      a                      a 
 Frequencies --   105.2540               107.5013               118.0632
 Red. masses --    13.7588                13.8878                14.1092
 Frc consts  --     0.0000                 0.0000                 0.0000
 IR Inten    --     6.7452                 5.5364                 1.4496
 Raman Activ --     0.0000                 0.0000                 0.0000
 Depolar     --     0.0000                 0.0000                 0.0000
 Atom AN      X      Y      Z        X      Y      Z        X      Y      Z
   1   8    -0.12  -0.22   0.19     0.14  -0.18  -0.10    -0.16  -0.16  -0.06
   2   1    -0.01  -0.04   0.03     0.01  -0.07   0.02    -0.03  -0.03  -0.02
   3   1    -0.06  -0.01   0.20     0.08  -0.08  -0.11    -0.05  -0.04  -0.04
   4   8     0.08   0.04  -0.10     0.02  -0.01  -0.02     0.00  -0.00   0.01
   5   1     0.02   0.03  -0.02     0.00   0.00  -0.01    -0.00  -0.01   0.00
   6   1     0.01  -0.00  -0.02    -0.01  -0.01  -0.00     0.00  -0.00  -0.01
   7   8     0.05   0.02   0.01     0.12   0.19  -0.26     0.00  -0.02   0.04
   8   1     0.01   0.01   0.00     0.04   0.04  -0.06     0.00  -0.00   0.01
   9   1     0.01   0.00   0.01     0.03   0.04  -0.04    -0.00  -0.00   0.01
  10   8     0.07   0.07   0.17     0.12   0.05   0.12    -0.00   0.03  -0.00
  11   1     0.01   0.01   0.03     0.02   0.00   0.03     0.00   0.01   0.00
  12   1     0.01   0.02   0.04     0.04   0.01   0.04    -0.01   0.01  -0.00
  13   8     0.05  -0.06   0.03     0.00   0.01   0.04     0.20  -0.31   0.05
  14   1     0.01  -0.01   0.00     0.00   0.03  -0.03     0.05  -0.08   0.01
  15   1     0.02  -0.01   0.00     0.01  -0.01   0.02     0.05  -0.08   0.01
  16   8     0.06   0.12  -0.10    -0.18   0.08   0.13     0.02  -0.04   0.08
  17   1    -0.02   0.02  -0.06    -0.05   0.03   0.04     0.01  -0.01   0.02
  18   1     0.03   0.05  -0.03    -0.03   0.03   0.01    -0.00  -0.02   0.02
  19   8     0.15  -0.13   0.22    -0.14   0.12  -0.00    -0.01  -0.04  -0.04
  20   1     0.04  -0.03   0.03    -0.02   0.03  -0.01    -0.00  -0.01   0.00
  21   1     0.04  -0.04   0.03    -0.04   0.03  -0.01    -0.01  -0.02  -0.00
  22   8    -0.14   0.02  -0.03    -0.01  -0.02   0.03     0.00   0.02   0.01
  23   1    -0.02   0.02  -0.01     0.00  -0.00   0.01    -0.00  -0.00   0.00
  24   1    -0.03   0.01   0.00     0.00  -0.00   0.01     0.00   0.01  -0.01
  25   8    -0.04   0.04  -0.01     0.12  -0.01  -0.03     0.02  -0.04   0.04
  26   1    -0.03   0.01  -0.00     0.02  -0.01  -0.02     0.01  -0.01   0.03
  27   1     0.00  -0.00  -0.01     0.03  -0.01   0.00    -0.00   0.01   0.01
  28   8     0.05  -0.02  -0.02     0.08  -0.05   0.03    -0.07   0.08  -0.01
  29   1     0.01  -0.00  -0.01     0.01  -0.01   0.00    -0.01   0.01   0.00
  30   1     0.01  -0.00  -0.01     0.02  -0.01   0.01    -0.01   0.01  -0.00
  31   8    -0.19   0.02  -0.05    -0.08  -0.03  -0.01     0.01   0.00  -0.00
  32   1    -0.03   0.00  -0.01    -0.00  -0.01  -0.00     0.00   0.00  -0.00
  33   1    -0.12   0.07  -0.07    -0.10   0.06  -0.07     0.01  -0.01   0.01
  34   8    -0.02   0.09  -0.02     0.00   0.01  -0.04     0.09   0.06  -0.08
  35   1     0.01   0.02  -0.01    -0.02   0.01   0.01     0.02   0.01  -0.01
  36   1     0.00   0.03   0.00    -0.01   0.00  -0.03     0.01   0.03  -0.03
  37   8    -0.08  -0.08   0.26    -0.06  -0.24   0.14     0.00  -0.03  -0.14
  38   1    -0.01  -0.02   0.06    -0.03  -0.04   0.01     0.01  -0.02  -0.02
  39   1    -0.02  -0.02   0.05    -0.02  -0.07   0.03     0.00  -0.00  -0.03
  40   8     0.12  -0.26  -0.06    -0.15   0.16  -0.08    -0.06  -0.01  -0.09
  41   1     0.01  -0.05  -0.03    -0.01   0.02  -0.00    -0.01  -0.01  -0.02
  42   1     0.02  -0.06  -0.02    -0.03   0.03  -0.02    -0.01  -0.01  -0.02
  43   8    -0.09  -0.00  -0.02     0.03  -0.04  -0.02    -0.01  -0.00   0.04
  44   1    -0.02   0.00  -0.00     0.01   0.00   0.01    -0.00  -0.00   0.01
  45   1    -0.02   0.00   0.00     0.01  -0.01   0.00    -0.00   0.00   0.01
  46   8    -0.07  -0.05   0.05    -0.07  -0.11   0.00     0.02  -0.04  -0.08
  47   1    -0.04  -0.00   0.01    -0.02  -0.05   0.01     0.01  -0.02  -0.01
  48   1     0.00  -0.03   0.03    -0.02  -0.01   0.00     0.00  -0.01  -0.02
  49   8     0.04   0.05   0.08    -0.08  -0.02   0.08     0.00  -0.03  -0.02
  50   1     0.01   0.02  -0.01    -0.02  -0.01   0.03    -0.04   0.00  -0.02
  51   1    -0.01  -0.01   0.01    -0.02   0.01   0.02     0.00  -0.00  -0.00
  52   8    -0.10   0.04  -0.13     0.02   0.20   0.03     0.11   0.27   0.44
  53   1    -0.01  -0.01  -0.01    -0.00   0.05   0.01     0.02   0.06   0.12
  54   1    -0.03   0.01  -0.05     0.01   0.06   0.00     0.03   0.09   0.08
  55   8     0.04  -0.01   0.03    -0.05  -0.07   0.04     0.16   0.25   0.09
  56   1     0.01   0.00   0.01    -0.02  -0.02   0.01     0.03   0.04   0.02
  57   1     0.02  -0.00   0.00    -0.00  -0.01  -0.01     0.05   0.09  -0.02
  58   8     0.16   0.18   0.01     0.17   0.12  -0.01    -0.06  -0.09   0.01
  59   1     0.02   0.03   0.00     0.04   0.03  -0.00    -0.01  -0.01  -0.01
  60   1     0.02   0.04  -0.00     0.03   0.02  -0.00     0.01   0.01   0.02
  61   8     0.03  -0.00   0.02     0.01  -0.01   0.07    -0.03   0.01   0.02
  62   1     0.01  -0.00   0.01    -0.00  -0.01   0.01     0.01   0.03   0.02
  63   1     0.00   0.00   0.00     0.01  -0.00   0.01    -0.09   0.02  -0.06
  64   8    -0.11  -0.01  -0.05    -0.01  -0.10   0.04     0.11   0.02  -0.11
  65   1    -0.01  -0.00  -0.02     0.01  -0.03   0.01     0.01  -0.01  -0.03
  66   1    -0.02  -0.00  -0.01    -0.01  -0.02   0.01    -0.00   0.02  -0.04
  67   8    -0.00   0.01  -0.02    -0.00  -0.03   0.01     0.05   0.03  -0.01
  68   1     0.00  -0.00   0.00    -0.00  -0.00   0.01     0.03  -0.02  -0.00
  69   1     0.01  -0.02  -0.02     0.01  -0.02  -0.01     0.03   0.01  -0.01
  70   8    -0.02  -0.08  -0.08     0.08   0.06  -0.41    -0.10  -0.15  -0.05
  71   1     0.00  -0.01  -0.01     0.02   0.03  -0.10    -0.02  -0.03  -0.00
  72   1    -0.02  -0.02  -0.01     0.02   0.01  -0.10    -0.03  -0.05   0.00
  73   8     0.10   0.22  -0.34    -0.08  -0.08   0.23    -0.29   0.19  -0.12
  74   1     0.01   0.05  -0.08     0.01  -0.03   0.00    -0.09   0.04  -0.02
  75   1     0.04   0.05  -0.08    -0.06  -0.00   0.05    -0.06   0.04  -0.02
                     31                     32                     33
                        a                      a                      a 
 Frequencies --   119.2850               132.4521               136.0000
 Red. masses --    13.8873                13.8068                11.5255
 Frc consts  --     0.0000                 0.0000                 0.0000
 IR Inten    --     3.1311                 5.5594                 5.0848
 Raman Activ --     0.0000                 0.0000                 0.0000
 Depolar     --     0.0000                 0.0000                 0.0000
 Atom AN      X      Y      Z        X      Y      Z        X      Y      Z
   1   8     0.17   0.18  -0.00    -0.04  -0.11   0.00     0.07  -0.03  -0.05
   2   1     0.02   0.03   0.03    -0.01  -0.02   0.05     0.03   0.02  -0.01
   3   1     0.07   0.02  -0.08    -0.00  -0.04  -0.05    -0.01   0.01   0.01
   4   8    -0.04  -0.04  -0.00     0.00  -0.01   0.00     0.26   0.07  -0.21
   5   1    -0.01  -0.02  -0.00     0.00  -0.03   0.01     0.06   0.03  -0.06
   6   1    -0.01  -0.00   0.00     0.02  -0.00  -0.02     0.05   0.01  -0.04
   7   8     0.03  -0.01  -0.05     0.04  -0.05  -0.15    -0.05   0.04   0.04
   8   1     0.01   0.00  -0.02     0.01  -0.01  -0.04    -0.01   0.01   0.01
   9   1     0.00   0.00  -0.01     0.01  -0.01  -0.04    -0.02   0.00   0.03
  10   8     0.02   0.05  -0.00     0.01   0.01  -0.08    -0.01   0.02   0.35
  11   1     0.00   0.01   0.00    -0.00   0.00  -0.01    -0.00   0.00   0.07
  12   1     0.01   0.01   0.00     0.00  -0.01  -0.03     0.03   0.03   0.12
  13   8     0.19  -0.29   0.06    -0.03   0.08   0.03     0.03  -0.04  -0.03
  14   1     0.05  -0.07   0.01    -0.01   0.03  -0.01     0.01  -0.01   0.00
  15   1     0.05  -0.07   0.01     0.00   0.01   0.01    -0.00  -0.00  -0.01
  16   8    -0.04  -0.09   0.07    -0.01  -0.07   0.05    -0.05   0.11   0.02
  17   1     0.00  -0.01   0.05    -0.02   0.00   0.04    -0.01   0.01  -0.02
  18   1    -0.01  -0.03   0.02     0.01  -0.01  -0.01    -0.02   0.02   0.02
  19   8     0.01   0.05   0.02     0.06   0.14   0.08     0.00   0.13   0.07
  20   1    -0.00   0.02  -0.00     0.02   0.03   0.05     0.01   0.03   0.03
  21   1     0.01   0.02   0.00     0.01   0.03   0.01    -0.00   0.02   0.01
  22   8     0.04  -0.02  -0.01     0.04  -0.03  -0.09    -0.08  -0.07  -0.13
  23   1     0.01   0.00  -0.00    -0.00  -0.02  -0.02    -0.01  -0.02  -0.03
  24   1     0.00  -0.01   0.00     0.01  -0.01  -0.03    -0.01  -0.01  -0.04
  25   8     0.02   0.06   0.00    -0.05   0.15   0.01    -0.20  -0.15  -0.15
  26   1     0.02   0.00  -0.02     0.02   0.02  -0.03    -0.06  -0.04  -0.05
  27   1     0.00   0.01   0.01    -0.03   0.04   0.02    -0.05  -0.05  -0.03
  28   8    -0.01  -0.01   0.04    -0.16   0.20   0.07    -0.04   0.02  -0.06
  29   1     0.00  -0.00   0.01    -0.04   0.03   0.03    -0.01   0.01  -0.01
  30   1    -0.00  -0.00   0.01    -0.03   0.04   0.02    -0.00  -0.01  -0.01
  31   8     0.04  -0.01  -0.02     0.01  -0.05   0.03     0.02   0.10  -0.08
  32   1     0.00  -0.00  -0.00    -0.01  -0.00  -0.00     0.04   0.02  -0.01
  33   1     0.02  -0.01  -0.01     0.12  -0.10   0.11    -0.27   0.24  -0.25
  34   8    -0.08  -0.08   0.09     0.06  -0.10  -0.02     0.02  -0.04   0.00
  35   1    -0.02  -0.02   0.02     0.01  -0.02  -0.00    -0.00  -0.00   0.01
  36   1    -0.01  -0.04   0.03     0.02  -0.06   0.00     0.00  -0.02  -0.00
  37   8     0.02   0.06   0.12    -0.07  -0.01   0.44     0.25   0.16   0.03
  38   1     0.00   0.02   0.02    -0.00   0.01   0.07     0.04   0.04   0.03
  39   1     0.01   0.01   0.02    -0.02   0.03   0.07     0.06  -0.02   0.04
  40   8     0.08   0.04   0.13    -0.03  -0.02  -0.01    -0.09   0.04  -0.04
  41   1     0.02   0.01   0.04    -0.01  -0.01   0.01    -0.02   0.01  -0.01
  42   1     0.01   0.01   0.02    -0.01  -0.01  -0.01    -0.01   0.01  -0.00
  43   8     0.03  -0.00  -0.00    -0.09  -0.02  -0.05    -0.10  -0.02  -0.00
  44   1     0.00   0.00   0.01    -0.02   0.00  -0.00    -0.02  -0.00  -0.00
  45   1     0.01   0.00  -0.00    -0.02  -0.01  -0.01    -0.03  -0.01  -0.01
  46   8    -0.00   0.04   0.05     0.07  -0.01  -0.14     0.08   0.04  -0.05
  47   1    -0.01   0.02   0.01     0.01  -0.03  -0.02    -0.00  -0.01   0.00
  48   1    -0.00   0.01   0.01     0.02   0.02  -0.02     0.03   0.03   0.01
  49   8    -0.00  -0.04  -0.03     0.23   0.09  -0.18     0.06  -0.01  -0.13
  50   1    -0.04  -0.00  -0.01     0.06   0.02  -0.05     0.01  -0.00  -0.03
  51   1     0.01  -0.00  -0.00     0.06   0.02  -0.05     0.01   0.00  -0.03
  52   8    -0.08  -0.26  -0.42     0.15  -0.18   0.19     0.08  -0.14   0.07
  53   1    -0.01  -0.06  -0.12     0.04  -0.03   0.02     0.01  -0.03   0.00
  54   1    -0.02  -0.09  -0.08     0.04  -0.07   0.06     0.02  -0.04   0.03
  55   8     0.14   0.25   0.09    -0.04  -0.03  -0.03    -0.03   0.01  -0.01
  56   1     0.03   0.04   0.02     0.01   0.01  -0.03     0.00   0.00  -0.02
  57   1     0.05   0.09  -0.02    -0.01  -0.01  -0.00    -0.01   0.00   0.00
  58   8    -0.01   0.05  -0.03    -0.28  -0.15   0.09    -0.13  -0.14  -0.01
  59   1     0.00   0.01   0.01    -0.06  -0.02   0.02    -0.05  -0.04  -0.02
  60   1    -0.02  -0.02  -0.03    -0.04  -0.01   0.03    -0.02  -0.02   0.01
  61   8    -0.04   0.08  -0.01    -0.02   0.14  -0.04     0.00  -0.08   0.06
  62   1     0.01   0.04   0.02    -0.01   0.02  -0.00    -0.00  -0.01   0.01
  63   1    -0.10   0.04  -0.08    -0.04   0.05  -0.08     0.02  -0.03   0.06
  64   8    -0.11  -0.02   0.10    -0.02  -0.05   0.10    -0.01  -0.02   0.10
  65   1    -0.02   0.02   0.03    -0.01   0.01   0.03    -0.00  -0.01   0.03
  66   1     0.01  -0.02   0.04    -0.02  -0.02   0.05    -0.00  -0.00   0.02
  67   8     0.05   0.04  -0.02    -0.04   0.04  -0.01     0.05  -0.04   0.00
  68   1     0.03  -0.02   0.00    -0.01   0.01   0.00     0.01  -0.01   0.00
  69   1     0.03   0.01  -0.02    -0.01   0.02   0.00     0.03  -0.06  -0.02
  70   8    -0.09  -0.12  -0.16     0.06   0.02  -0.19    -0.01   0.01   0.11
  71   1    -0.01  -0.02  -0.03     0.01  -0.00  -0.05    -0.01   0.00   0.03
  72   1    -0.02  -0.04  -0.03     0.01   0.02  -0.06     0.02  -0.00   0.03
  73   8    -0.34   0.13   0.02     0.11   0.04  -0.09    -0.08  -0.01   0.11
  74   1    -0.09   0.02  -0.00     0.03   0.00  -0.03    -0.02   0.00   0.03
  75   1    -0.08   0.03   0.01     0.02   0.02  -0.02    -0.02   0.00   0.04
                     34                     35                     36
                        a                      a                      a 
 Frequencies --   138.3750               149.3923               159.5381
 Red. masses --    11.0715                14.2057                14.0738
 Frc consts  --     0.0000                 0.0000                 0.0000
 IR Inten    --     4.5366                14.1145                10.3188
 Raman Activ --     0.0000                 0.0000                 0.0000
 Depolar     --     0.0000                 0.0000                 0.0000
 Atom AN      X      Y      Z        X      Y      Z        X      Y      Z
   1   8    -0.04   0.08   0.01     0.06   0.07   0.01    -0.02   0.03  -0.02
   2   1    -0.03   0.00   0.03     0.01   0.01   0.00     0.00   0.03   0.03
   3   1     0.02  -0.00  -0.05     0.02   0.02   0.02    -0.02   0.01  -0.01
   4   8     0.26   0.18  -0.06    -0.05  -0.02   0.01    -0.20  -0.20   0.01
   5   1     0.09   0.13  -0.01    -0.02  -0.00  -0.00    -0.08  -0.13  -0.01
   6   1     0.04   0.03   0.00    -0.02  -0.01   0.01    -0.02  -0.02  -0.01
   7   8     0.10   0.16   0.12     0.01   0.05   0.01    -0.01  -0.01   0.02
   8   1     0.01   0.04   0.03    -0.01   0.01   0.00     0.01  -0.00   0.00
   9   1     0.03   0.04   0.01     0.01   0.01  -0.00    -0.01   0.00   0.01
  10   8     0.19   0.08  -0.15     0.05   0.02   0.01     0.06   0.04   0.12
  11   1     0.03   0.01  -0.03     0.01   0.00   0.00     0.01   0.01   0.03
  12   1     0.01  -0.01  -0.07     0.01   0.00   0.00     0.03   0.02   0.04
  13   8     0.01  -0.08  -0.01     0.01  -0.04  -0.01     0.00  -0.03  -0.03
  14   1     0.00  -0.02  -0.00     0.01  -0.01  -0.00     0.01  -0.01   0.01
  15   1    -0.00  -0.02  -0.00     0.00  -0.01  -0.01    -0.01   0.00  -0.01
  16   8    -0.09   0.09   0.05    -0.03  -0.00   0.01    -0.07   0.11   0.04
  17   1    -0.04   0.04   0.03    -0.00  -0.00   0.00    -0.02   0.03   0.01
  18   1    -0.01   0.05   0.01    -0.01   0.00   0.01    -0.01   0.03   0.00
  19   8    -0.03   0.03  -0.09    -0.04  -0.00  -0.00     0.02   0.05  -0.01
  20   1    -0.01   0.01  -0.02    -0.01  -0.00   0.00     0.01   0.02  -0.00
[...]
  70   8     0.00  -0.00  -0.00    -0.00  -0.01  -0.01     0.00   0.00   0.00
  71   1    -0.00  -0.00   0.01    -0.01  -0.01   0.03    -0.00  -0.00   0.00
  72   1     0.00   0.00   0.00     0.02   0.03   0.03    -0.00  -0.00  -0.00
  73   8     0.09   0.11  -0.07    -0.03  -0.01   0.00     0.00   0.00  -0.00
  74   1    -0.08   0.07  -0.07     0.09  -0.06   0.07    -0.00   0.00  -0.00
  75   1    -0.27  -0.52   0.37     0.05   0.10  -0.07    -0.00  -0.00   0.00
                    211                    212                    213
                        a                      a                      a 
 Frequencies --  3651.2774              3663.8846              3673.6948
 Red. masses --     1.8209                 1.8344                 1.8341
 Frc consts  --     0.0000                 0.0000                 0.0000
 IR Inten    --    20.3040                17.1189                 8.3900
 Raman Activ --     0.0000                 0.0000                 0.0000
 Depolar     --     0.0000                 0.0000                 0.0000
 Atom AN      X      Y      Z        X      Y      Z        X      Y      Z
   1   8     0.00   0.00  -0.00     0.00   0.00  -0.00    -0.00  -0.00   0.00
   2   1     0.00   0.00  -0.00     0.00   0.00  -0.00    -0.00   0.00  -0.00
   3   1    -0.00  -0.00   0.00    -0.01  -0.02   0.00     0.00   0.01  -0.00
   4   8     0.00  -0.00  -0.00     0.00  -0.00  -0.00    -0.02   0.00   0.02
   5   1    -0.00   0.00   0.00    -0.01   0.00   0.01     0.10  -0.02  -0.08
   6   1    -0.00   0.00  -0.00     0.00  -0.00  -0.00    -0.00   0.00   0.00
   7   8    -0.00  -0.00  -0.00    -0.00   0.00  -0.00     0.00   0.00   0.00
   8   1     0.00   0.00   0.00     0.00  -0.00  -0.00    -0.00  -0.00  -0.00
   9   1     0.00   0.00   0.00     0.00   0.00   0.00    -0.00   0.00   0.00
  10   8    -0.00   0.00   0.00    -0.00   0.00   0.00    -0.00  -0.00   0.01
  11   1     0.00  -0.00   0.00     0.00  -0.00   0.00     0.00  -0.00   0.00
  12   1     0.00   0.00  -0.00     0.00   0.00  -0.00     0.01   0.01  -0.03
  13   8     0.00   0.00   0.00    -0.00   0.00  -0.00    -0.00   0.00   0.00
  14   1     0.00  -0.00   0.00     0.00  -0.00  -0.00     0.00  -0.00  -0.00
  15   1    -0.00  -0.00  -0.00     0.00  -0.00   0.00     0.00   0.00   0.00
  16   8    -0.00  -0.00   0.00    -0.00  -0.00  -0.00     0.00  -0.00   0.00
  17   1     0.00   0.00  -0.00    -0.00  -0.00   0.00     0.00   0.00  -0.00
  18   1     0.00  -0.00   0.00     0.00   0.00  -0.00    -0.00   0.00  -0.00
  19   8    -0.00  -0.00  -0.00     0.00  -0.00  -0.00    -0.00  -0.00   0.00
  20   1     0.00   0.00   0.00     0.00   0.00   0.00     0.00   0.00  -0.00
  21   1    -0.00   0.00  -0.00    -0.00   0.00  -0.00     0.00  -0.00   0.00
  22   8     0.00  -0.00  -0.00    -0.00   0.01  -0.00     0.00  -0.00   0.00
  23   1    -0.00   0.00   0.00     0.00   0.00   0.00    -0.00  -0.00  -0.00
  24   1    -0.00   0.00   0.00     0.01  -0.03  -0.00    -0.00   0.00  -0.00
  25   8     0.00   0.01  -0.00    -0.00  -0.00   0.00     0.00   0.00  -0.00
  26   1    -0.01  -0.05   0.02     0.00   0.00  -0.00    -0.00  -0.01   0.00
  27   1     0.00  -0.00   0.00     0.00  -0.00   0.00     0.00   0.00  -0.00
  28   8     0.00   0.00  -0.00    -0.00  -0.00   0.00    -0.00  -0.00   0.00
  29   1     0.00  -0.00   0.00     0.00  -0.00  -0.00     0.00  -0.00  -0.00
  30   1    -0.00  -0.00   0.00     0.00   0.00   0.00    -0.00   0.00   0.00
  31   8     0.00   0.00  -0.00     0.00   0.00  -0.00     0.17   0.15  -0.06
  32   1     0.00   0.00   0.00     0.00   0.00  -0.00     0.02   0.03   0.01
  33   1    -0.00  -0.00   0.00    -0.00  -0.00   0.00    -0.69  -0.63   0.23
  34   8    -0.00  -0.00   0.00     0.20   0.01  -0.12    -0.00  -0.00   0.00
  35   1    -0.00   0.00   0.00     0.04   0.01   0.00    -0.00  -0.00  -0.00
  36   1     0.00   0.00  -0.00    -0.84  -0.04   0.48     0.00   0.00  -0.00
  37   8    -0.00  -0.00  -0.00    -0.00   0.00   0.00    -0.01   0.00   0.00
  38   1     0.00   0.00   0.00    -0.00  -0.00  -0.00    -0.00  -0.00  -0.00
  39   1     0.00  -0.00  -0.00     0.00  -0.00   0.00     0.04  -0.00  -0.00
  40   8     0.00  -0.00  -0.00    -0.00  -0.00   0.00    -0.00  -0.00   0.00
  41   1     0.00   0.00   0.00    -0.00  -0.00  -0.00     0.00   0.00   0.00
  42   1    -0.00  -0.00   0.00     0.02   0.01  -0.02     0.00   0.00  -0.00
  43   8    -0.00   0.00  -0.00    -0.00   0.00  -0.00     0.00   0.00   0.00
  44   1     0.00  -0.00   0.00     0.00  -0.00   0.00     0.00  -0.00  -0.00
  45   1    -0.00  -0.00   0.00     0.00  -0.00   0.00    -0.00   0.00  -0.00
  46   8    -0.00  -0.01  -0.01     0.00   0.00   0.00    -0.00  -0.00   0.00
  47   1     0.01   0.03   0.05     0.00  -0.00  -0.00    -0.00  -0.00  -0.00
  48   1     0.01   0.00  -0.01     0.00   0.00  -0.00     0.00   0.00  -0.00
  49   8     0.00   0.00  -0.00     0.00   0.00  -0.00    -0.00   0.00   0.00
  50   1    -0.00  -0.00   0.00    -0.00  -0.00   0.00     0.00  -0.00  -0.00
  51   1    -0.00  -0.00   0.00    -0.00  -0.00   0.00     0.00   0.00  -0.00
  52   8     0.01  -0.00  -0.00     0.00  -0.00  -0.00    -0.00   0.00   0.00
  53   1     0.00  -0.00  -0.00    -0.00   0.00   0.00     0.00  -0.00  -0.00
  54   1    -0.03   0.01   0.00     0.00  -0.00  -0.00     0.00   0.00   0.00
  55   8    -0.00   0.00  -0.00     0.00   0.00  -0.00     0.00   0.00   0.00
  56   1     0.00  -0.00   0.00    -0.00  -0.00   0.00     0.00  -0.00   0.00
  57   1    -0.00  -0.00  -0.00     0.00   0.00   0.00    -0.00  -0.00  -0.00
  58   8    -0.00   0.00   0.00    -0.00   0.00   0.00     0.00  -0.00  -0.00
  59   1     0.00  -0.01  -0.00     0.00  -0.00  -0.00    -0.00   0.00   0.00
  60   1    -0.00   0.00  -0.00     0.00   0.00  -0.00     0.00  -0.00   0.00
  61   8    -0.00  -0.00  -0.00    -0.00  -0.00  -0.00     0.00   0.00   0.00
  62   1     0.00  -0.00  -0.00     0.00  -0.00   0.00    -0.00   0.00   0.00
  63   1     0.00   0.00   0.00     0.00   0.00   0.00    -0.00  -0.00  -0.00
  64   8     0.05   0.19   0.12     0.00   0.00   0.00    -0.00  -0.00  -0.00
  65   1     0.02   0.01   0.05     0.00   0.00   0.00    -0.00   0.00  -0.00
  66   1    -0.22  -0.78  -0.53    -0.00  -0.00  -0.00     0.00   0.00   0.00
  67   8     0.00  -0.00   0.00     0.00  -0.00   0.00    -0.00   0.00  -0.00
  68   1     0.00  -0.00   0.00     0.00   0.00   0.00    -0.00  -0.00  -0.00
  69   1    -0.00   0.00  -0.00    -0.00   0.00  -0.00     0.02  -0.00   0.02
  70   8     0.00   0.00   0.00     0.00   0.00   0.00    -0.00  -0.00  -0.00
  71   1    -0.00  -0.00   0.00     0.00  -0.00   0.00    -0.00  -0.00  -0.00
  72   1    -0.00  -0.00  -0.00    -0.00  -0.00  -0.00     0.01   0.01   0.01
  73   8    -0.00   0.00  -0.00     0.00   0.00  -0.00     0.00  -0.00   0.00
  74   1     0.00  -0.00   0.00    -0.00   0.00   0.00    -0.00   0.00  -0.00
  75   1    -0.00  -0.00   0.00     0.00  -0.00   0.00     0.00   0.00  -0.00
                    214                    215                    216
                        a                      a                      a 
 Frequencies --  3675.0555              3679.4702              3680.3604
 Red. masses --     1.8376                 1.8392                 1.8455
 Frc consts  --     0.0000                 0.0000                 0.0000
 IR Inten    --    10.2922                 9.5065                11.7537
 Raman Activ --     0.0000                 0.0000                 0.0000
 Depolar     --     0.0000                 0.0000                 0.0000
 Atom AN      X      Y      Z        X      Y      Z        X      Y      Z
   1   8    -0.00  -0.00   0.00     0.00   0.00  -0.00     0.00   0.00  -0.00
   2   1     0.00  -0.00   0.00     0.00   0.00  -0.00     0.00  -0.00   0.00
   3   1     0.00   0.00  -0.00    -0.00  -0.01   0.00    -0.00  -0.01   0.00
   4   8    -0.00   0.00   0.00     0.01  -0.00  -0.01    -0.18   0.04   0.15
   5   1     0.01  -0.00  -0.01    -0.03   0.01   0.03     0.74  -0.16  -0.60
   6   1    -0.00   0.00   0.00     0.00  -0.00  -0.00    -0.03   0.01   0.01
   7   8     0.00   0.00  -0.00     0.00   0.00   0.00     0.00  -0.00  -0.00
   8   1     0.00  -0.00  -0.00     0.00   0.00   0.00     0.00   0.00   0.00
   9   1    -0.00  -0.00   0.00    -0.00  -0.00  -0.00    -0.00  -0.00  -0.00
  10   8     0.00  -0.00   0.00     0.00  -0.00   0.00     0.00   0.00  -0.00
  11   1    -0.00   0.00  -0.00    -0.01   0.02  -0.01    -0.00   0.00  -0.00
  12   1     0.00   0.00  -0.00    -0.00  -0.00   0.00    -0.00  -0.00   0.00
  13   8     0.01  -0.01  -0.00     0.00   0.00  -0.00     0.00   0.00  -0.00
  14   1    -0.02   0.03   0.01     0.00  -0.00  -0.00     0.00  -0.00  -0.00
  15   1     0.00  -0.00  -0.00     0.00   0.00   0.00    -0.00   0.00   0.00
  16   8    -0.00   0.00  -0.00    -0.00  -0.00   0.00    -0.00   0.00  -0.00
  17   1    -0.00  -0.00   0.00     0.00   0.00  -0.00    -0.00  -0.00   0.00
  18   1     0.00  -0.00   0.00     0.00  -0.00   0.00     0.00  -0.00  -0.00
  19   8    -0.00  -0.00  -0.00     0.00  -0.00  -0.00     0.00  -0.00  -0.00
  20   1     0.00   0.00   0.00    -0.00  -0.00   0.00     0.00   0.00   0.00
  21   1     0.00  -0.00   0.00    -0.00   0.00  -0.00    -0.00   0.00  -0.00
  22   8     0.00  -0.00  -0.00    -0.00   0.00   0.00    -0.00   0.00  -0.00
  23   1    -0.00   0.00   0.00     0.00  -0.00  -0.00    -0.00   0.00   0.00
  24   1    -0.00   0.00   0.00     0.00  -0.00  -0.00     0.00  -0.00  -0.00
  25   8    -0.00  -0.00   0.00     0.00   0.00  -0.00    -0.00  -0.00   0.00
  26   1     0.00   0.00  -0.00    -0.00  -0.00   0.00     0.00   0.01  -0.00
  27   1     0.00   0.00   0.00     0.00   0.00   0.00    -0.00  -0.00   0.00
  28   8     0.00   0.00  -0.00    -0.00  -0.00  -0.00     0.01   0.00   0.00
  29   1     0.00   0.00   0.00    -0.00   0.00   0.00     0.00   0.00  -0.00
  30   1    -0.00  -0.00  -0.00     0.00   0.00   0.00    -0.02  -0.01  -0.00
  31   8     0.00   0.00  -0.00    -0.00  -0.00   0.00    -0.02  -0.02   0.01
  32   1     0.00   0.00   0.00    -0.00  -0.00  -0.00    -0.00   0.01   0.01
  33   1    -0.01  -0.01   0.00     0.01   0.01  -0.00     0.10   0.09  -0.03
  34   8    -0.00  -0.00   0.00     0.00   0.00  -0.00     0.00   0.00  -0.00
  35   1     0.00   0.00   0.00     0.00  -0.00  -0.00     0.00   0.00   0.00
  36   1     0.00   0.00  -0.00    -0.00  -0.00   0.00    -0.01  -0.00   0.00
  37   8    -0.00   0.00  -0.00     0.00  -0.00  -0.00     0.00  -0.00  -0.00
  38   1    -0.00  -0.00   0.00     0.00   0.00   0.00     0.00   0.00   0.00
  39   1     0.00  -0.00   0.00    -0.00   0.00   0.00    -0.01  -0.00  -0.00
  40   8     0.00   0.00  -0.00    -0.00  -0.00  -0.00     0.00  -0.00  -0.00
  41   1    -0.00  -0.00   0.00     0.00   0.00   0.00    -0.00   0.00   0.00
  42   1    -0.00  -0.00   0.00     0.00  -0.00  -0.00    -0.00  -0.00   0.00
  43   8    -0.00  -0.00  -0.00    -0.00  -0.00   0.00     0.00   0.00  -0.00
  44   1     0.00   0.00  -0.00     0.00   0.00  -0.00    -0.00  -0.00   0.00
  45   1    -0.00   0.00  -0.00     0.00   0.00   0.00    -0.00   0.00  -0.00
  46   8     0.00  -0.00  -0.00     0.00   0.00   0.00     0.00   0.00   0.00
  47   1     0.00   0.00   0.00    -0.00  -0.00  -0.00    -0.00  -0.00  -0.01
  48   1    -0.00  -0.00   0.00    -0.00  -0.00   0.00    -0.00   0.00   0.00
  49   8    -0.00  -0.00  -0.00    -0.00   0.00   0.00     0.00  -0.00  -0.00
  50   1     0.00   0.00   0.00    -0.00  -0.00  -0.00    -0.00  -0.00   0.00
  51   1     0.00   0.00  -0.00     0.00   0.00  -0.00    -0.00  -0.00   0.00
  52   8     0.00  -0.00  -0.00    -0.00  -0.00  -0.00     0.00  -0.00  -0.00
  53   1    -0.00   0.00   0.00    -0.00   0.00   0.00    -0.00   0.00   0.00
  54   1    -0.00   0.00   0.00     0.00  -0.00  -0.00    -0.00   0.00   0.00
  55   8    -0.00  -0.01  -0.00     0.00   0.00   0.00     0.00   0.00   0.00
  56   1    -0.00   0.00  -0.00    -0.00   0.00  -0.00    -0.00  -0.00   0.00
  57   1     0.01   0.03   0.02    -0.00  -0.00  -0.00    -0.00  -0.00  -0.00
  58   8     0.00  -0.00  -0.00     0.00  -0.00   0.00     0.00  -0.00   0.00
  59   1    -0.00   0.00   0.00    -0.00   0.00   0.00    -0.00   0.00   0.00
  60   1     0.00  -0.00   0.00    -0.00   0.00  -0.00    -0.00   0.00  -0.00
  61   8     0.00   0.01   0.00    -0.00  -0.00  -0.00    -0.00  -0.00  -0.00
  62   1     0.00  -0.00  -0.00     0.00  -0.00  -0.00    -0.00  -0.00   0.00
  63   1    -0.00  -0.02  -0.00     0.00   0.01   0.00     0.00   0.00   0.00
  64   8    -0.00  -0.00  -0.00     0.00   0.00   0.00     0.00   0.00   0.00
  65   1     0.00  -0.00   0.00     0.00   0.00   0.00    -0.00  -0.00   0.00
  66   1     0.00   0.00   0.00    -0.00  -0.00  -0.00    -0.00  -0.01  -0.00
  67   8    -0.01   0.00  -0.01    -0.15   0.02  -0.18    -0.01   0.00  -0.01
  68   1    -0.00  -0.00  -0.00    -0.03  -0.01  -0.01    -0.00  -0.00  -0.00
  69   1     0.02  -0.00   0.02     0.64  -0.09   0.72     0.03  -0.00   0.03
  70   8     0.07   0.14   0.18    -0.00  -0.00  -0.01    -0.00  -0.00  -0.00
  71   1    -0.00   0.00   0.04     0.00   0.00  -0.00     0.00   0.00  -0.00
  72   1    -0.30  -0.56  -0.73     0.01   0.02   0.02     0.00   0.00   0.01
  73   8    -0.01   0.00  -0.00     0.00  -0.00   0.00     0.00   0.00  -0.00
  74   1     0.03  -0.01   0.02    -0.00   0.00  -0.00    -0.00   0.00  -0.00
  75   1    -0.00  -0.00   0.00     0.00   0.00  -0.00    -0.00  -0.00   0.00
                    217                    218                    219
                        a                      a                      a 
 Frequencies --  3683.4996              3686.5864              3692.5379
 Red. masses --     1.8413                 1.8433                 1.8422
 Frc consts  --     0.0000                 0.0000                 0.0000
 IR Inten    --    11.0858                 8.7234                 8.0949
 Raman Activ --     0.0000                 0.0000                 0.0000
 Depolar     --     0.0000                 0.0000                 0.0000
 Atom AN      X      Y      Z        X      Y      Z        X      Y      Z
   1   8    -0.00  -0.00   0.00    -0.10  -0.21   0.05     0.00   0.00  -0.00
   2   1     0.00  -0.00   0.00     0.00  -0.03   0.01    -0.00   0.00  -0.00
   3   1     0.01   0.02  -0.00     0.38   0.87  -0.19    -0.01  -0.01   0.00
   4   8     0.00  -0.00  -0.00    -0.00   0.00   0.00     0.00  -0.00  -0.00
   5   1    -0.00   0.00   0.00     0.01  -0.00  -0.00    -0.00   0.00   0.00
   6   1     0.00  -0.00   0.00     0.00  -0.00   0.00     0.00  -0.00   0.00
   7   8     0.00   0.00   0.00     0.00  -0.00   0.00    -0.00  -0.00  -0.00
   8   1     0.00  -0.00  -0.00    -0.00   0.00  -0.00     0.00   0.00  -0.00
   9   1    -0.00  -0.00  -0.00    -0.00  -0.00  -0.00     0.00   0.00   0.00
  10   8    -0.00  -0.00   0.00    -0.00   0.00  -0.00    -0.00   0.00  -0.00
  11   1    -0.00   0.00  -0.00     0.00  -0.00   0.00     0.00  -0.00   0.00
  12   1     0.00   0.00  -0.00    -0.00  -0.00   0.00     0.00  -0.00  -0.00
  13   8    -0.00  -0.00  -0.00     0.00   0.00   0.00     0.00   0.00   0.00
  14   1    -0.00   0.00  -0.00     0.00  -0.00  -0.00    -0.00   0.00   0.00
  15   1     0.00   0.00   0.00    -0.00  -0.00  -0.00    -0.01  -0.02  -0.02
  16   8     0.00   0.00  -0.00     0.00   0.01  -0.00     0.00  -0.00  -0.00
  17   1    -0.00  -0.00   0.00    -0.01  -0.03   0.02    -0.00  -0.00   0.00
  18   1    -0.00   0.00  -0.00    -0.00   0.00  -0.00    -0.00   0.00  -0.00
  19   8     0.00   0.00  -0.00     0.00   0.00   0.00     0.00   0.00   0.00
  20   1    -0.00  -0.00   0.00    -0.00  -0.00  -0.00    -0.00  -0.00  -0.00
  21   1     0.00  -0.00   0.00    -0.00   0.00   0.00     0.00  -0.00  -0.00
  22   8    -0.00   0.00   0.00    -0.00   0.00  -0.00     0.00   0.00  -0.00
  23   1     0.00  -0.00  -0.00     0.00   0.00   0.00    -0.00   0.00   0.00
  24   1     0.00  -0.00   0.00     0.00  -0.00  -0.00     0.00  -0.00  -0.00
  25   8    -0.03  -0.22   0.08     0.00   0.00  -0.00    -0.00  -0.00   0.00
  26   1     0.14   0.90  -0.33    -0.00  -0.02   0.01     0.00   0.02  -0.01
  27   1    -0.01  -0.03   0.00     0.00   0.00  -0.00    -0.00  -0.00   0.00
  28   8     0.00   0.00   0.00     0.00   0.00  -0.00    -0.00   0.00   0.00
  29   1     0.00  -0.00  -0.00    -0.00  -0.00   0.00     0.00  -0.00  -0.00
  30   1    -0.00  -0.00  -0.00    -0.00  -0.00   0.00    -0.00  -0.00  -0.00
  31   8     0.00   0.00  -0.00    -0.00  -0.00   0.00     0.00   0.00  -0.00
  32   1     0.00  -0.00  -0.00    -0.00  -0.00   0.00     0.00  -0.00  -0.00
  33   1    -0.00  -0.00   0.00     0.01   0.00  -0.00    -0.00  -0.00   0.00
  34   8    -0.00   0.00   0.00     0.00   0.00  -0.00    -0.00   0.00   0.00
  35   1    -0.00  -0.00  -0.00     0.00   0.00   0.00    -0.00  -0.00  -0.00
  36   1     0.00   0.00  -0.00    -0.02  -0.00   0.01     0.00   0.00  -0.00
  37   8    -0.00   0.00  -0.00    -0.00   0.00  -0.00    -0.00   0.00   0.00
  38   1    -0.00  -0.00   0.00     0.00   0.00   0.00    -0.00  -0.00  -0.00
  39   1     0.00  -0.00   0.00     0.01  -0.00   0.00     0.00  -0.00  -0.00
  40   8     0.00   0.00   0.00     0.00   0.00   0.00    -0.00  -0.00  -0.00
  41   1    -0.00  -0.00  -0.00    -0.01  -0.02  -0.01     0.00   0.00   0.00
  42   1    -0.00  -0.00   0.00     0.00   0.00  -0.00    -0.00  -0.00   0.00
  43   8    -0.00  -0.00   0.00     0.00   0.00  -0.00     0.00   0.00  -0.00
  44   1    -0.00   0.00  -0.00     0.00  -0.00   0.00     0.00  -0.02   0.01
  45   1     0.00  -0.00   0.00    -0.00   0.00  -0.00    -0.00   0.00  -0.00
  46   8    -0.00  -0.00  -0.00     0.00   0.00   0.00    -0.00  -0.00  -0.00
  47   1     0.00   0.00   0.00    -0.00  -0.00  -0.00     0.00   0.00   0.00
  48   1     0.00  -0.00   0.00    -0.00  -0.00   0.00     0.00  -0.00  -0.00
  49   8    -0.00  -0.00   0.00    -0.00   0.00   0.00    -0.00   0.00   0.00
  50   1     0.00   0.00   0.00    -0.00  -0.00  -0.00    -0.00  -0.00  -0.00
  51   1     0.00   0.00  -0.00     0.00  -0.00  -0.00     0.00  -0.00  -0.00
  52   8     0.00   0.00   0.00     0.00  -0.00  -0.00     0.00   0.00  -0.00
  53   1     0.00  -0.00  -0.00    -0.00   0.00   0.00     0.00  -0.00  -0.00
  54   1    -0.00   0.00   0.00    -0.00  -0.00  -0.00    -0.00   0.00   0.00
  55   8    -0.00  -0.00  -0.00    -0.00   0.00   0.00    -0.00  -0.00  -0.00
  56   1    -0.00   0.00  -0.00     0.00  -0.00   0.00     0.00  -0.00  -0.00
  57   1     0.00   0.00   0.00    -0.00  -0.00  -0.00     0.00   0.00   0.00
  58   8    -0.00   0.00   0.00    -0.00   0.00  -0.00    -0.00   0.00  -0.00
  59   1     0.01  -0.02  -0.01    -0.00   0.00  -0.00     0.00  -0.00  -0.00
  60   1    -0.00   0.00  -0.00     0.00  -0.00   0.00     0.00  -0.00   0.00
  61   8     0.00   0.00   0.00    -0.00  -0.00  -0.00    -0.02  -0.23  -0.04
  62   1    -0.00   0.00   0.00     0.00  -0.00  -0.00     0.01  -0.03  -0.01
  63   1    -0.00  -0.02  -0.00     0.00   0.02   0.00     0.05   0.95   0.18
  64   8     0.00   0.01   0.01     0.00   0.00   0.00    -0.00   0.00  -0.00
  65   1     0.00  -0.00   0.01    -0.00  -0.00   0.00     0.00  -0.00   0.00
  66   1    -0.01  -0.04  -0.03    -0.00  -0.00  -0.00    -0.00   0.00  -0.00
  67   8    -0.00   0.00  -0.00    -0.00   0.00  -0.00     0.00  -0.00   0.00
  68   1     0.00   0.00  -0.00    -0.00  -0.00  -0.00     0.00   0.00  -0.00
  69   1     0.00  -0.00   0.00     0.00  -0.00   0.00    -0.01   0.00  -0.01
  70   8    -0.00  -0.00  -0.00    -0.00  -0.00  -0.00     0.00   0.00   0.00
  71   1     0.00   0.00  -0.00    -0.00  -0.00  -0.00    -0.00   0.00   0.00
  72   1     0.00   0.00   0.00     0.00   0.00   0.00    -0.01  -0.01  -0.02
  73   8    -0.00  -0.00   0.00    -0.00  -0.00   0.00    -0.00   0.00  -0.00
  74   1    -0.00   0.00  -0.00     0.00  -0.00   0.00     0.00  -0.00   0.00
  75   1     0.00   0.00  -0.00     0.00   0.00  -0.00    -0.00  -0.00   0.00
