75
 energy: -127.116987491928 gnorm: 0.051079012395 xtb: 6.5.1 (579679a)
o            0.83709462043698       -4.78379068957399       -0.08184423080676
h           -0.13403872666410       -4.63263982289728        0.06871212512505
h            0.94131765076714       -5.72899244498114       -0.19029369064537
o           -4.32268885265356       -1.23762636827691        1.88461679925091
h           -5.18518268363416       -1.34964641288392        2.28522174238364
h           -3.68251985904663       -1.19668835977500        2.63860555859781
o           -0.43971753670437       -1.36808687727290       -2.14305626847352
h           -0.62575362164425       -0.96582246009357       -1.27294756159978
h           -1.31154396811856       -1.73321398449728       -2.45516434491685
o           -2.84723008374226       -2.08318310822828       -2.82222925496212
h           -3.22978409065012       -1.22459513168545       -3.09059714996323
h           -3.23773651221227       -2.29740412985347       -1.96018754163967
o           -1.63856314777885        2.00863389224478       -4.03451388468969
h           -0.85391264937670        1.43837604885150       -4.06862903752431
h           -1.42800757481353        2.69411896414756       -3.37886309141886
o            1.80761487869471       -2.76013934582221       -1.66615851441881
h            1.52000223027870       -3.57005369418071       -1.20997382714242
h            0.97683184827260       -2.27407904571788       -1.85422522917060
o           -0.84218439066437       -2.48501517524779        2.28013026775636
h           -0.91832616900058       -1.77197228780153        1.62019878148267
h            0.10368708138030       -2.72853419325440        2.30253563667748
o            4.44318809017389        0.71542004042546        0.64993954100026
h            4.05528115176278        1.09250450684047        1.45046439903006
h            4.04644297918296       -0.16440539534712        0.56224775863614
o            1.14861287573508        3.35299810541893        4.13267328118279
h            1.55199227081071        4.21954570392287        4.07330645189078
h            0.34773617893809        3.38020122649465        3.57423565719272
o           -1.13867830775700        3.24264770045648        2.60649751447677
h           -0.78559012321544        3.57751000888919        1.73350506177024
h           -1.89017362963505        3.79590384282737        2.82066549150693
o           -3.80571853181661       -2.76678431520608       -0.28783611839533
h           -3.92191970033573       -2.16231424378690        0.47760842408912
h           -4.60433422442346       -3.29389500380233       -0.33688442144486
o            3.43260481653281       -1.88608160071496        0.24090595324941
h            2.85099702229291       -2.11375035839243       -0.52609644879026
h            4.28720960124539       -2.27771964667977        0.05388482960061
o           -1.68163013428323       -4.37202072807690        0.54690660595941
h           -1.48900888555434       -3.80192525206850        1.31867329545731
h           -2.35411192719237       -3.88292487655363        0.04746834249594
o            1.76864494601053       -3.16476383778269        1.98770122738683
h            1.52202611199107       -3.87784813052467        1.37402472322201
h            2.43742343706295       -2.64525637248098        1.50236394911524
o           -0.06867317842847        4.14926232974362        0.41182316959200
h           -0.46418005453472        4.14820075514196       -0.47478189785105
h            0.65979182278619        3.48521828885170        0.34225296054681
o           -2.58533025794057       -1.18482844887521        3.89933259503148
h           -2.04702895438246       -0.38982028713339        4.02796427769704
h           -1.97191499005151       -1.83414078523371        3.51338409683866
o            3.85683643527387        1.63481614142658       -1.87681655817473
h            3.77390026146853        0.79176149504284       -2.35419490238489
h            4.21413471632484        1.39448451612389       -1.00173982436170
o            1.71262367150798       -0.84284327210373        3.78225877539296
h            1.77897219075236       -1.71267820810281        3.37405870506482
h            0.77594168961045       -0.61042276676663        3.81803712547350
o            1.70908377333604        2.70804465715574       -3.19091704215612
h            2.53082648649714        2.47236264922167       -2.72160910239732
h            1.40819925305128        1.89321699395281       -3.61004962547005
o            2.74383495203489        1.50418203924652        2.79436384894696
h            2.30407063663499        2.14908284691450        3.37265076019527
h            2.51703596607702        0.63137490982279        3.16472738368593
o           -0.49079222936566        3.90407732299136       -2.32630373657239
h            0.37225370316362        3.47996723973896       -2.56206280969919
h           -0.48631923178052        4.75226362349876       -2.77195659292593
o           -0.63583687410912        0.84552821415428        3.99697235757276
h           -0.87924423822617        1.60526061196846        3.44447602583172
h           -0.10375959717358        1.21228020802810        4.70818719268806
o           -3.71684468506184        0.39653091781091       -3.53326507769431
h           -2.97499923568829        1.01946256281711       -3.71474881285666
h           -4.33344010985602        0.50226167270172       -4.25740236911046
o            0.50749999821568        0.18371515475542       -4.02278387397797
h            0.12455520304419       -0.37550819206171       -3.29066535870165
h            0.34229975664221       -0.29399538682389       -4.83714408282416
o            3.08987330113076       -0.70137929802829       -3.18447834865367
h            2.27616925472359       -0.34824558579100       -3.57229794007261
h            2.83231341082615       -1.51381305755276       -2.73293603244614
75
 energy: -127.121699389273 gnorm: 0.026408255588 xtb: 6.5.1 (579679a)
o            0.83515398835669       -4.78658512942167       -0.08866360056309
h           -0.13625435147573       -4.65081596851823        0.06468494038443
h            0.95346327180567       -5.73091612937000       -0.19086422800187
o           -4.31539377830819       -1.24325667448995        1.87680907716719
h           -5.17945203045493       -1.34114004799966        2.27808291949510
h           -3.67914697149418       -1.18452773190794        2.63194092778887
o           -0.45244172435149       -1.36277928446486       -2.11527841372131
h           -0.65083751563360       -0.92327405870019       -1.27922736786932
h           -1.32581808040358       -1.71892649552314       -2.44833877930606
o           -2.83403436340514       -2.07463755584127       -2.81174639840157
h           -3.22937572121445       -1.22467583431774       -3.09287703280838
h           -3.25309556325404       -2.30293032639981       -1.96593121109465
o           -1.64313211305359        2.00207139026948       -4.02176448567607
h           -0.84955163441331        1.44550302330672       -4.07747226042261
h           -1.42209754847564        2.70008315384647       -3.38271019550775
o            1.81214453951078       -2.77102097472916       -1.67169561371276
h            1.52448421079806       -3.57892033968730       -1.21190888570182
h            0.98679751382071       -2.28391483680918       -1.86490655349048
o           -0.82705832571564       -2.47709913460182        2.26329421538985
h           -0.89180400499586       -1.73874112578392        1.64465304835469
h            0.12198364242683       -2.71973874836556        2.29818228238320
o            4.45116156034492        0.71350395369493        0.65467945041926
h            4.01535230451547        1.12327484658372        1.41764068661753
h            4.03444413887971       -0.15607389083124        0.56346468309701
o            1.13410710468686        3.36226121046602        4.16199607247382
h            1.55808586969138        4.21676035081421        4.06606046297793
h            0.35282861375210        3.37328563795669        3.57628107731142
o           -1.15144933765785        3.23627500144848        2.61382355756574
h           -0.79704897545340        3.57357306219205        1.74780029824504
h           -1.89975848667573        3.79281770531335        2.83112643945785
o           -3.79545690656436       -2.76352327767432       -0.28212802574553
h           -3.93327141998028       -2.14936569563280        0.47307319162315
h           -4.59442424587242       -3.28931578924464       -0.34501203490580
o            3.42921194197618       -1.89772934106173        0.25085501830597
h            2.85638665433616       -2.11382996740497       -0.52335400371831
h            4.29030338507964       -2.27284447245870        0.05938001001915
o           -1.68060122627192       -4.36964599786973        0.54065084347724
h           -1.50433934928126       -3.81332426651548        1.32533220111507
h           -2.37447201950169       -3.89675632668877        0.05402698091734
o            1.75122133993837       -3.16045683968199        1.98013777958744
h            1.53572123306283       -3.88353407032115        1.36634851717419
h            2.42124360161068       -2.62932411160105        1.50695585864146
o           -0.05950505133769        4.11007513333079        0.39801032265405
h           -0.42934259845605        4.11534795130286       -0.50223090165049
h            0.71903074401455        3.52699494250022        0.33561497890905
o           -2.58839028759584       -1.18457523286254        3.89800620725684
h           -2.05166982649059       -0.39042272858924        4.04398215539980
h           -1.96640792008230       -1.83626548685079        3.53289820447370
o            3.84865381657652        1.63677405634755       -1.88917050382503
h            3.77989626013307        0.77896215730584       -2.34070368309151
h            4.16086414732480        1.42629208524066       -0.98731130434860
o            1.70991365380211       -0.85685541085819        3.80698962736012
h            1.77417925226267       -1.71532958648817        3.37517160535409
h            0.77917294415351       -0.59504026740521        3.80165306535624
o            1.70646089217050        2.70457085456265       -3.17744256578595
h            2.51927846388958        2.47395459553455       -2.68625524749901
h            1.42165316579842        1.88739520147940       -3.60236317307741
o            2.75342171286060        1.49724757916207        2.78662911642168
h            2.29659797885569        2.14747762696584        3.34307936761324
h            2.51308311797311        0.63169567055517        3.15951187184558
o           -0.48786151283240        3.89813462514544       -2.31953344947178
h            0.37476613327863        3.47834653147716       -2.56896251120530
h           -0.49230200816900        4.74612938888482       -2.76651133652674
o           -0.66518269743580        0.83677645996140        4.00496954365419
h           -0.86324264224264        1.58309596440200        3.41513640768423
h           -0.09245965078941        1.20550070244912        4.68507774157746
o           -3.71740944869020        0.38716150522491       -3.52507176357902
h           -2.97625226690545        1.01482933239695       -3.69070664914212
h           -4.32782167460560        0.50225530173433       -4.25361812110407
o            0.50259340758210        0.18315539536578       -4.03294350958986
h            0.13718505519672       -0.37656260490544       -3.29798901546670
h            0.34491047101408       -0.30192067514575       -4.84465797804793
o            3.09813218646627       -0.71604624598468       -3.20551089987851
h            2.28115633979242       -0.33982923592751       -3.56424145237007
h            2.83532392895657       -1.51674386859027       -2.73697951048189
75
 energy: -127.124253539092 gnorm: 0.009071846377 xtb: 6.5.1 (579679a)
o            0.83561644190287       -4.79183822814030       -0.09452106580207
h           -0.13456630904091       -4.65654486488069        0.06105465126449
h            0.95651376503707       -5.73641652347110       -0.19186451921524
o           -4.30431580134825       -1.23800539355939        1.86292969036735
h           -5.16848014921275       -1.33115159717164        2.26535935410833
h           -3.67040169244632       -1.17241712250983        2.61886714393893
o           -0.46817481641984       -1.34300592059392       -2.08324071060331
h           -0.67647276215995       -0.86402563737753       -1.28131077744133
h           -1.34336424377267       -1.70495104426905       -2.42531002172488
o           -2.82068954024293       -2.06555299645017       -2.80613418670510
h           -3.22191346392718       -1.21767870392111       -3.08938914179238
h           -3.25333981783117       -2.30380780748513       -1.96933032030392
o           -1.64611092979494        1.99791625484835       -4.00641047826972
h           -0.84809576340676        1.44940526151413       -4.08547700822257
h           -1.41593638846241        2.69548005456944       -3.37053108612490
o            1.81156838662247       -2.78120976429517       -1.68181773661822
h            1.53360359885159       -3.58875848942847       -1.21447708082484
h            0.98638564798442       -2.29571207038603       -1.86143036938297
o           -0.80377051879703       -2.45359728571115        2.25282573542500
h           -0.86132949548504       -1.70263832256672        1.66192445198168
h            0.14432263921951       -2.71752698927856        2.27861959654478
o            4.41594994654160        0.73683282718924        0.64530386764957
h            3.97124809912894        1.14717932727931        1.40194072658410
h            4.04157889162108       -0.15362000438776        0.58290737116767
o            1.13457684993338        3.36124594119695        4.17092799052523
h            1.56289694547364        4.21232399390190        4.06920110625168
h            0.33699128655805        3.37986873659117        3.61244529287567
o           -1.15269410961497        3.23072558050800        2.61485905824520
h           -0.80141470271434        3.55589688182309        1.75045564609868
h           -1.90612518028283        3.78333108034113        2.82560583552399
o           -3.79212494656842       -2.75746939114476       -0.28443353371209
h           -3.93054377098374       -2.14954593187134        0.47733682198538
h           -4.58961678977486       -3.28561122491333       -0.34791116502581
o            3.42366263251962       -1.90082843080316        0.25605337502132
h            2.86142449318867       -2.11991084735443       -0.52209213688164
h            4.29117012275574       -2.26473078430766        0.07113990133003
o           -1.68541593698709       -4.37259311824064        0.53891128872944
h           -1.50351153912982       -3.82249119496996        1.32446902919862
h           -2.38700213778221       -3.90139008868167        0.06114730094092
o            1.73999364445770       -3.15485349189064        1.97638918599835
h            1.53689770963611       -3.88151133291916        1.36301663698579
h            2.40089324427279       -2.61135018036305        1.50241098825743
o           -0.02588741670780        4.07166141882286        0.37483390892410
h           -0.37869887553405        4.06722598952619       -0.53604063471612
h            0.77707758180956        3.54455776253619        0.33548354561356
o           -2.59111683908890       -1.17972279248015        3.89916166647365
h           -2.04919622595520       -0.38956246932172        4.05469769918125
h           -1.96870842189830       -1.84086803624883        3.55559678266884
o            3.80925489279176        1.63925809599753       -1.88653520926999
h            3.79476689422243        0.78124723709933       -2.34407300981973
h            4.10886045320971        1.44687880844021       -0.97709642590579
o            1.70537067448160       -0.86238233614705        3.81707468089787
h            1.77214612692546       -1.71966808050276        3.38494497330237
h            0.77824252612611       -0.58973690183593        3.79703149082720
o            1.69633607436345        2.69962028323159       -3.15006402901693
h            2.50627963807672        2.47165452646727       -2.64712758158886
h            1.43347697169599        1.88596403715009       -3.59595708732076
o            2.72116059470596        1.48778515671114        2.74088679181518
h            2.30115882897114        2.14578621111203        3.31190031673357
h            2.52354875256304        0.63262864797059        3.15907653577300
o           -0.48577684730071        3.89450766092261       -2.30931417287298
h            0.37468702828111        3.47216251057646       -2.57082602768095
h           -0.49542544431567        4.74098232923060       -2.75990303093593
o           -0.65242416296180        0.81807135400842        3.97677191692279
h           -0.88746797646163        1.56219184944700        3.40402900330762
h           -0.10265920309193        1.19963368067753        4.66651461048885
o           -3.71987704068442        0.37933272860778       -3.51145005557843
h           -2.97570490859180        1.00654040101418       -3.66287199111225
h           -4.31941462383445        0.50103400679556       -4.24857028728176
o            0.50344345898959        0.17905815553704       -4.04302163128848
h            0.13704821143757       -0.37553141261871       -3.31256423627922
h            0.35285660586443       -0.30797019663849       -4.85517971428654
o            3.10553455040286       -0.72703384553735       -3.21121002464105
h            2.29370735238578       -0.34294612234534       -3.57006541082121
h            2.83972253675550       -1.52945520492806       -2.74862598210088
75
 energy: -127.125694493210 gnorm: 0.014066149667 xtb: 6.5.1 (579679a)
o            0.83804726736564       -4.80002139545897       -0.09559427925449
h           -0.13045081788042       -4.65430251976732        0.05760205948368
h            0.95157008559719       -5.74510498606150       -0.19490432967950
o           -4.29042103304697       -1.22500940417077        1.84856488102328
h           -5.15408221319439       -1.32025105807441        2.25154992879527
h           -3.65601979663698       -1.16777064151816        2.60407274089423
o           -0.47618224272160       -1.31555216259290       -2.05554380638245
h           -0.69494948604017       -0.78569150798807       -1.28581597911889
h           -1.35315808007705       -1.68866751594496       -2.39526145148913
o           -2.81323946916954       -2.06118276605282       -2.80493894449093
h           -3.21120985069046       -1.20822252501841       -3.08014740098767
h           -3.23865548697387       -2.30003736307466       -1.96601184527629
o           -1.64653059258577        1.99332354885770       -3.99384856751421
h           -0.84940267668245        1.44626196021685       -4.08224731074924
h           -1.41553074520714        2.68287604868336       -3.35048818878346
o            1.80728242274401       -2.78662873783930       -1.68838409867890
h            1.53604832494385       -3.59587195585222       -1.21953765369417
h            0.98095630718384       -2.29717308398075       -1.84437330880830
o           -0.78420903468395       -2.42892750777926        2.24375265153626
h           -0.83816750624718       -1.65235349370421        1.68535552689771
h            0.16399031389521       -2.70588822857795        2.25341949657252
o            4.38239513484345        0.76045742401234        0.63895721555151
h            3.91088943659583        1.17415413363861        1.37969249756874
h            4.02672299807262       -0.13794228454409        0.58389357076979
o            1.13167363824885        3.36109213513622        4.18605140959409
h            1.56595426860158        4.20762650781648        4.07225910346429
h            0.33198105317123        3.37799149224740        3.63173643011096
o           -1.15360105420983        3.22543519373547        2.62090456298117
h           -0.79982734741052        3.50977657481653        1.74708619300096
h           -1.91415252018434        3.77946758654540        2.80396090959137
o           -3.79210029080440       -2.75836584675276       -0.28919854366287
h           -3.92164528502946       -2.14938333092248        0.47512031051911
h           -4.59292936370736       -3.28172935583834       -0.34751934209133
o            3.42123986655156       -1.90003515574513        0.25910067825482
h            2.86197480591655       -2.12178200107624       -0.51900509487017
h            4.29069988067579       -2.26082945918448        0.07845654412848
o           -1.69058731573468       -4.37531983253085        0.54318109646200
h           -1.49186642156812       -3.81935630231401        1.31785977954314
h           -2.38513417066359       -3.89643277866246        0.06387663854370
o            1.74363345793307       -3.15977617576592        1.97739886642996
h            1.53476933727783       -3.87986849855662        1.36005664177291
h            2.38334372295593       -2.59835417637709        1.49308464893733
o           -0.00084502391559        4.02977430352404        0.35954454281257
h           -0.32474407392824        3.99990414217290       -0.56596220143630
h            0.85892656574210        3.58008188636090        0.34936766805920
o           -2.59470536154103       -1.18352993811670        3.90552599160224
h           -2.05052409369061       -0.39374718553622        4.05425138086667
h           -1.97590322392871       -1.84887589763342        3.56819992936283
o            3.78396179213861        1.64466202048906       -1.88244146808827
h            3.78747223142350        0.79017152155422       -2.34340853878732
h            4.05826639980923        1.45316327515560       -0.96483422967753
o            1.70286104864498       -0.86551089962426        3.83335699202443
h            1.76918860407672       -1.72144637870711        3.39953318321823
h            0.77998103723986       -0.57832138239065        3.78764763733581
o            1.68839400054108        2.69712290611001       -3.12818763246694
h            2.48671000224213        2.45806466108620       -2.60465080748296
h            1.43289684980284        1.88784679950215       -3.58460976355538
o            2.69808983795367        1.48259586695456        2.71258222227656
h            2.28509970040960        2.13670563144538        3.29106369232969
h            2.51287912530852        0.62671313536873        3.13235874735212
o           -0.48680672788817        3.88639501859856       -2.30812567361485
h            0.37504976110256        3.45969376127216       -2.56794852432898
h           -0.48957749525664        4.73800916333304       -2.74861109240076
o           -0.65803432551780        0.80337745364791        3.96373301199191
h           -0.88540529189845        1.53631534232670        3.37171605031464
h           -0.10133391371514        1.19645974104803        4.64265091175576
o           -3.72356300967204        0.37676855776730       -3.49405109540542
h           -2.97394999036914        0.99823707943981       -3.63927753892136
h           -4.31092170938372        0.49778095444097       -4.24122881800871
o            0.50619513425197        0.17031950634713       -4.05563135823141
h            0.13942588658251       -0.37390420708478       -3.32173216356679
h            0.35681598815283       -0.32358155561292       -4.86391109806125
o            3.11568801391346       -0.74053431052636       -3.21909329315249
h            2.30815445493168       -0.34673811964932       -3.57515943117615
h            2.84334359216010       -1.54223679734256       -2.75891338107491
75
 energy: -127.126604982316 gnorm: 0.019700856626 xtb: 6.5.1 (579679a)
o            0.84197654204726       -4.80812227009892       -0.09525632235647
h           -0.12542064477320       -4.65680421914215        0.05553266634530
h            0.95078449567854       -5.75327186213805       -0.19877805998496
o           -4.27205516108955       -1.20726158450828        1.83283576085240
h           -5.13749964511724       -1.30470680131315        2.23154719271838
h           -3.64030601996295       -1.16541178547940        2.59110298121189
o           -0.47804332823100       -1.27733738667755       -2.02666064718809
h           -0.71127543853669       -0.70121513143654       -1.28897337912860
h           -1.35336377747081       -1.66174684265696       -2.36575683457210
o           -2.80146562824281       -2.05650458391381       -2.80029927655795
h           -3.20315364011587       -1.20160826386213       -3.06811223643443
h           -3.22377102444305       -2.30258530154257       -1.96194036878940
o           -1.64775175258590        1.98313299885879       -3.97731371236102
h           -0.84941783027715        1.44090460180521       -4.07591002189522
h           -1.41485007321788        2.67239088909652       -3.33377505097756
o            1.79912778365340       -2.78581959015675       -1.68933336454207
h            1.52914687757143       -3.60022440527537       -1.22926295945906
h            0.97332406395067       -2.28774804714691       -1.82247769144598
o           -0.76889730406339       -2.39917047079522        2.23152877967297
h           -0.81729866026124       -1.59006688484894        1.71111431482239
h            0.17971005018753       -2.68098008925877        2.22823576950254
o            4.33814041800369        0.78860251880233        0.63074711942586
h            3.84616509187365        1.19458765015446        1.36300132683968
h            4.00235217250432       -0.11726096422836        0.57699218723358
o            1.12672793549854        3.35659240818148        4.19748466531419
h            1.56287151971919        4.20109016251159        4.08130338441702
h            0.32468278103467        3.37512424517834        3.64639000704324
o           -1.15049153581412        3.21684872357162        2.61350362900953
h           -0.78083099887712        3.47689001119733        1.74046872218397
h           -1.91789390015466        3.77161179539182        2.76869996643964
o           -3.78962991860130       -2.76285721451536       -0.29374304299831
h           -3.91263991932080       -2.14244053922034        0.46396153334521
h           -4.59686454008859       -3.27666997114711       -0.34780187184290
o            3.41710619331824       -1.89270309675335        0.25951079031553
h            2.86263760320898       -2.11997423279439       -0.52000577964320
h            4.28806839900631       -2.25379915601108        0.08801912675343
o           -1.68889522864902       -4.37096865699822        0.55166597456533
h           -1.48161283957912       -3.80242943040221        1.31338174942011
h           -2.38041806885365       -3.89300445270297        0.06691646031638
o            1.74753942286778       -3.16410867450499        1.97196271605070
h            1.54056227333701       -3.88772940374599        1.35804001311539
h            2.38215144234589       -2.60098431633245        1.48399633222814
o            0.06289547992228        3.98860235674342        0.35228624745885
h           -0.25767255157998        3.96573667514093       -0.57448938167154
h            0.90157783679708        3.54407219196085        0.34968528709533
o           -2.59691724789690       -1.19086924769682        3.91011391356848
h           -2.04977397540508       -0.40191842002207        4.05141228485054
h           -1.98102862997527       -1.86057372187716        3.57928368468103
o            3.75984669167858        1.64981727234133       -1.87629891020546
h            3.77508760831597        0.79832690085256       -2.33813964724665
h            4.00796068362444        1.45690329322409       -0.95012047875832
o            1.70277993924772       -0.86407291316214        3.83805931021202
h            1.76689334837237       -1.72640597238275        3.41809583677810
h            0.78264836489022       -0.57543685523527        3.79093306175170
o            1.67627746767156        2.69119683194591       -3.10644329121708
h            2.47027645784466        2.43802256918273       -2.57758999119785
h            1.42501175958227        1.89027823269507       -3.57840434300483
o            2.65378103225553        1.47955483656665        2.67756760727024
h            2.25981062066084        2.13196167485002        3.27223468050862
h            2.49252274013080        0.62230865451899        3.10629145026231
o           -0.48881075749667        3.87102245731588       -2.29766776590476
h            0.37572958214353        3.44476623023073       -2.56092653498980
h           -0.48981925137700        4.73010093362445       -2.72354406517098
o           -0.65695072232386        0.78961995731672        3.93984205705583
h           -0.88214008859386        1.51601717677806        3.33694297386609
h           -0.10521881794954        1.19135659825098        4.61814183783254
o           -3.72814588687837        0.37597173150124       -3.47076782207045
h           -2.97432709849626        0.99139719732533       -3.61618829435840
h           -4.30444449744439        0.48991781189019       -4.22746340256953
o            0.51133319331957        0.16095956781269       -4.06782152524573
h            0.14905942710237       -0.37029104923665       -3.32287425136239
h            0.35877727377205       -0.34514819736521       -4.86803848322985
o            3.12579588943177       -0.75221587620673       -3.22260340018491
h            2.32430117868650       -0.35463003199333       -3.58572769126239
h            2.84586006962332       -1.55624263232529       -2.77039541374685
75
 energy: -127.127614090391 gnorm: 0.015669937441 xtb: 6.5.1 (579679a)
o            0.84497690084015       -4.81484051363828       -0.09635095146466
h           -0.12111978255582       -4.66166786051234        0.05743354421419
h            0.95087496410125       -5.76017033573781       -0.20247052913418
o           -4.25186456033184       -1.18594652850703        1.81717325149046