3
 energy: -5.070544447046 gnorm: 0.000000919225 xtb: 6.5.1 (579679a)
O           -8.00064844296966        4.69707991013351       -0.00379442788943
H           -7.60174976112640        4.53221351286053        0.85281976745013
H           -8.75065179590393        4.10485657700595       -0.08659213956070
