      -----------------------------------------------------------      
     |                   =====================                   |     
     |                           x T B                           |     
     |                   =====================                   |     
     |                         S. Grimme                         |     
     |          Mulliken Center for Theoretical Chemistry        |     
     |                    University of Bonn                     |     
      -----------------------------------------------------------      

   * xtb version 6.5.1 (579679a) compiled by 'ehlert@majestix' on 2022-07-11

   xtb is free software: you can redistribute it and/or modify it under
   the terms of the GNU Lesser General Public License as published by
   the Free Software Foundation, either version 3 of the License, or
   (at your option) any later version.
   
   xtb is distributed in the hope that it will be useful,
   but WITHOUT ANY WARRANTY; without even the implied warranty of
   MERCHANTABILITY or FITNESS FOR A PARTICULAR PURPOSE.  See the
   GNU Lesser General Public License for more details.
   
   Cite this work as:
   * C. Bannwarth, E. Caldeweyher, S. Ehlert, A. Hansen, P. Pracht,
     J. Seibert, S. Spicher, S. Grimme, WIREs Comput. Mol. Sci., 2020, 11,
     e01493. DOI: 10.1002/wcms.1493
   
   for GFN2-xTB:
   * C. Bannwarth, S. Ehlert and S. Grimme., J. Chem. Theory Comput., 2019,
     15, 1652-1671. DOI: 10.1021/acs.jctc.8b01176
   for GFN1-xTB:
   * S. Grimme, C. Bannwarth, P. Shushkov, J. Chem. Theory Comput., 2017,
     13, 1989-2009. DOI: 10.1021/acs.jctc.7b00118
   for GFN0-xTB:
   * P. Pracht, E. Caldeweyher, S. Ehlert, S. Grimme, ChemRxiv, 2019, preprint.
     DOI: 10.26434/chemrxiv.8326202.v1
   for GFN-FF:
   * S. Spicher and S. Grimme, Angew. Chem. Int. Ed., 2020, 59, 15665-15673.
     DOI: 10.1002/anie.202004239
   
   for ALPB and GBSA implicit solvation:
   * S. Ehlert, M. Stahn, S. Spicher, S. Grimme, J. Chem. Theory Comput.,
     2021, 17, 4250-4261. DOI: 10.1021/acs.jctc.1c00471
   
   for DFT-D4:
   * E. Caldeweyher, C. Bannwarth and S. Grimme, J. Chem. Phys., 2017,
     147, 034112. DOI: 10.1063/1.4993215
   * E. Caldeweyher, S. Ehlert, A. Hansen, H. Neugebauer, S. Spicher,
     C. Bannwarth and S. Grimme, J. Chem. Phys., 2019, 150, 154122.
     DOI: 10.1063/1.5090222
   * E. Caldeweyher, J.-M. Mewes, S. Ehlert and S. Grimme, Phys. Chem. Chem. Phys.
     2020, 22, 8499-8512. DOI: 10.1039/D0CP00502A
   
   for sTDA-xTB:
   * S. Grimme and C. Bannwarth, J. Chem. Phys., 2016, 145, 054103.
     DOI: 10.1063/1.4959605
   
   in the mass-spec context:
   * V. Asgeirsson, C. Bauer and S. Grimme, Chem. Sci., 2017, 8, 4879.
     DOI: 10.1039/c7sc00601b
   * J. Koopman and S. Grimme, ACS Omega 2019, 4, 12, 15120-15133.
     DOI: 10.1021/acsomega.9b02011
   
   for metadynamics refer to:
   * S. Grimme, J. Chem. Theory Comput., 2019, 155, 2847-2862
     DOI: 10.1021/acs.jctc.9b00143
   
   for SPH calculations refer to:
   * S. Spicher and S. Grimme, J. Chem. Theory Comput., 2021, 17, 1701-1714
     DOI: 10.1021/acs.jctc.0c01306
   
   with help from (in alphabetical order)
   P. Atkinson, C. Bannwarth, F. Bohle, G. Brandenburg, E. Caldeweyher
   M. Checinski, S. Dohm, S. Ehlert, S. Ehrlich, I. Gerasimov, C. Hölzer
   A. Katbashev, J. Koopman, C. Lavigne, S. Lehtola, F. März, M. Müller,
   F. Musil, H. Neugebauer, J. Pisarek, C. Plett, P. Pracht, F. Pultar,
   J. Seibert, P. Shushkov, S. Spicher, M. Stahn, M. Steiner, T. Strunk,
   J. Stückrath, T. Rose, and J. Unsleber
   
 * started run on 2022/11/17 at 06:48:47.984     

           -------------------------------------------------
          |                Calculation Setup                |
           -------------------------------------------------

          program call               : xtb solvent_cluster.coord --gfn2 --input xcontrol --opt 1
          hostname                   : cn0363
          coordinate file            : solvent_cluster.coord
          omp threads                :                     2

   ID    Z sym.   atoms
    1    8 o      1, 4, 7, 10, 13, 16, 19, 22, 25, 28, 31, 34, 37, 40, 43,
                  46, 49, 52, 55, 58, 61, 64, 67, 70, 73, 76, 79, 82, 85, 88,
                  91, 94, 97, 100, 103, 106, 109, 112, 115, 118, 121, 124,
                  127, 130, 133, 136, 139, 142, 145, 148, 151, 154, 157, 160,
                  163, 166, 169, 172, 175, 178, 181, 184, 187, 190, 193, 196,
                  199, 202, 205, 208, 211, 214, 217, 220, 223, 226, 229, 232,
                  235, 238, 241, 244, 247, 250, 253, 256, 259, 262, 265, 268,
                  271, 274, 277, 280, 283, 286, 289, 292, 295, 298, 301, 304,
                  307, 310, 313, 316, 319, 322, 325, 328, 331, 334, 337, 340,
                  343, 346, 349, 352, 355, 358, 361, 364, 367, 370, 373, 376,
                  379, 382, 385, 388, 391, 394, 397, 400, 403, 406, 409, 412,
                  415, 418, 421, 424, 427, 430, 433, 436, 439, 442, 445, 448,
                  451, 454, 457, 460, 463, 466, 469, 472, 475, 478, 481, 484,
                  487, 490, 493, 496, 499, 502, 505, 508, 511, 514, 517, 520,
                  523, 526, 529
    2    1 h      2, 3, 5, 6, 8, 9, 11, 12, 14, 15, 17, 18, 20, 21, 23, 24,
                  26, 27, 29, 30, 32, 33, 35, 36, 38, 39, 41, 42, 44, 45, 47,
                  48, 50, 51, 53, 54, 56, 57, 59, 60, 62, 63, 65, 66, 68, 69,
                  71, 72, 74, 75, 77, 78, 80, 81, 83, 84, 86, 87, 89, 90, 92,
                  93, 95, 96, 98, 99, 101, 102, 104, 105, 107, 108, 110, 111,
                  113, 114, 116, 117, 119, 120, 122, 123, 125, 126, 128, 129,
                  131, 132, 134, 135, 137, 138, 140, 141, 143, 144, 146, 147,
                  149, 150, 152, 153, 155, 156, 158, 159, 161, 162, 164, 165,
                  167, 168, 170, 171, 173, 174, 176, 177, 179, 180, 182, 183,
                  185, 186, 188, 189, 191, 192, 194, 195, 197, 198, 200, 201,
                  203, 204, 206, 207, 209, 210, 212, 213, 215, 216, 218, 219,
                  221, 222, 224, 225, 227, 228, 230, 231, 233, 234, 236, 237,
                  239, 240, 242, 243, 245, 246, 248, 249, 251, 252, 254, 255,
                  257, 258, 260, 261, 263, 264, 266, 267, 269, 270, 272, 273,
                  275, 276, 278, 279, 281, 282, 284, 285, 287, 288, 290, 291,
                  293, 294, 296, 297, 299, 300, 302, 303, 305, 306, 308, 309,
                  311, 312, 314, 315, 317, 318, 320, 321, 323, 324, 326, 327,
                  329, 330, 332, 333, 335, 336, 338, 339, 341, 342, 344, 345,
                  347, 348, 350, 351, 353, 354, 356, 357, 359, 360, 362, 363,
                  365, 366, 368, 369, 371, 372, 374, 375, 377, 378, 380, 381,
                  383, 384, 386, 387, 389, 390, 392, 393, 395, 396, 398, 399,
                  401, 402, 404, 405, 407, 408, 410, 411, 413, 414, 416, 417,
                  419, 420, 422, 423, 425, 426, 428, 429, 431, 432, 434, 435,
                  437, 438, 440, 441, 443, 444, 446, 447, 449, 450, 452, 453,
                  455, 456, 458, 459, 461, 462, 464, 465, 467, 468, 470, 471,
                  473, 474, 476, 477, 479, 480, 482, 483, 485, 486, 488, 489,
                  491, 492, 494, 495, 497, 498, 500, 501, 503, 504, 506, 507,
                  509, 510, 512, 513, 515, 516, 518, 519, 521, 522, 524, 525,
                  527, 528, 530, 531

molecular fragmentation (1/2 indicates fragments):
111222222222222222222222222222222222222222222222222222222222222222222222
222222222222222222222222222222222222222222222222222222222222222222222222
222222222222222222222222222222222222222222222222222222222222222222222222
222222222222222222222222222222222222222222222222222222222222222222222222
222222222222222222222222222222222222222222222222222222222222222222222222
222222222222222222222222222222222222222222222222222222222222222222222222
222222222222222222222222222222222222222222222222222222222222222222222222
222222222222222222222222222
# atoms in fragment 1/2:     3   528
 fragment masses (1/2) :       18.02     3170.69
CMA distance (Bohr)    :   5.925
constraining FC (au)   :  0.0500

           -------------------------------------------------
          |                 G F N 2 - x T B                 |
           -------------------------------------------------

        Reference                      10.1021/acs.jctc.8b01176
      * Hamiltonian:
        H0-scaling (s, p, d)           1.850000    2.230000    2.230000
        zeta-weighting                 0.500000
      * Dispersion:
        s8                             2.700000
        a1                             0.520000
        a2                             5.000000
        s9                             5.000000
      * Repulsion:
        kExp                           1.500000    1.000000
        rExp                           1.000000
      * Coulomb:
        alpha                          2.000000
        third order                    shell-resolved
        anisotropic                    true
        a3                             3.000000
        a5                             4.000000
        cn-shift                       1.200000
        cn-exp                         4.000000
        max-rad                        5.000000


          ...................................................
          :                      SETUP                      :
          :.................................................:
          :  # basis functions                1062          :
          :  # atomic orbitals                1062          :
          :  # shells                          708          :
          :  # electrons                      1416          :
          :  max. iterations                   250          :
          :  Hamiltonian                  GFN2-xTB          :
          :  restarted?                      false          :
          :  GBSA solvation                  false          :
          :  PC potential                    false          :
          :  electronic temp.          300.0000000     K    :
          :  accuracy                    1.0000000          :
          :  -> integral cutoff          0.2500000E+02      :
          :  -> integral neglect         0.1000000E-07      :
          :  -> SCF convergence          0.1000000E-05 Eh   :
          :  -> wf. convergence          0.1000000E-03 e    :
          :  Broyden damping             0.4000000          :
          ...................................................

 iter      E             dE          RMSdq      gap      omega  full diag
   1   -906.5390058 -0.906539E+03  0.406E+00    8.37       0.0  T
   2   -906.5965363 -0.575305E-01  0.241E+00    7.39       1.0  T
   3   -906.6192532 -0.227169E-01  0.214E-01    5.84       1.0  T
   4   -906.6232313 -0.397808E-02  0.466E-02    6.24       1.0  T
   5   -906.6232993 -0.679924E-04  0.312E-02    6.19       1.0  T
   6   -906.6233284 -0.290829E-04  0.433E-03    6.23       1.0  T
   7   -906.6233302 -0.178500E-05  0.757E-04    6.22       5.7  T
   8   -906.6233302 -0.211068E-07  0.388E-04    6.22      11.2  T
   9   -906.6233302 -0.102805E-07  0.652E-05    6.22      66.6  T

   *** convergence criteria satisfied after 9 iterations ***

         #    Occupation            Energy/Eh            Energy/eV
      -------------------------------------------------------------
         1        2.0000           -0.7072005             -19.2439
       ...           ...                  ...                  ...
       702        2.0000           -0.3523830              -9.5888
       703        2.0000           -0.3488648              -9.4931
       704        2.0000           -0.3475264              -9.4567
       705        2.0000           -0.3385557              -9.2126
       706        2.0000           -0.3304558              -8.9922
       707        2.0000           -0.3268989              -8.8954
       708        2.0000           -0.3121015              -8.4927 (HOMO)
       709                         -0.0833537              -2.2682 (LUMO)
       710                         -0.0694093              -1.8887
       711                         -0.0535837              -1.4581
       712                         -0.0492998              -1.3415
       713                         -0.0444990              -1.2109
       ...                                ...                  ...
      1062                          0.5985844              16.2883
      -------------------------------------------------------------
                  HL-Gap            0.2287478 Eh            6.2245 eV
             Fermi-level           -0.1977276 Eh           -5.3804 eV

 SCC (total)                   0 d,  0 h,  0 min,  8.257 sec
 SCC setup                      ...        0 min,  0.031 sec (  0.381%)
 Dispersion                     ...        0 min,  0.087 sec (  1.050%)
 classical contributions        ...        0 min,  0.012 sec (  0.139%)
 integral evaluation            ...        0 min,  0.603 sec (  7.307%)
 iterations                     ...        0 min,  2.746 sec ( 33.249%)
 molecular gradient             ...        0 min,  4.752 sec ( 57.550%)
 printout                       ...        0 min,  0.027 sec (  0.322%)

         :::::::::::::::::::::::::::::::::::::::::::::::::::::
         ::                     SUMMARY                     ::
         :::::::::::::::::::::::::::::::::::::::::::::::::::::
         :: total energy            -901.162546971986 Eh    ::
         :: gradient norm              0.115317005026 Eh/a0 ::
         :: HOMO-LUMO gap              6.224544881432 eV    ::
         ::.................................................::
         :: SCC energy              -906.623330208162 Eh    ::
         :: -> isotropic ES            5.107722507658 Eh    ::
         :: -> anisotropic ES         -1.114019360941 Eh    ::
         :: -> anisotropic XC         -0.092905128724 Eh    ::
         :: -> dispersion             -0.529284492473 Eh    ::
         :: repulsion energy           5.366375378634 Eh    ::
         :: add. restraining           0.000000000000 Eh    ::
         :: total charge               0.000000000000 e     ::
         :::::::::::::::::::::::::::::::::::::::::::::::::::::

      ----------------------------------------------------------- 
     |                       L-ANC optimizer                     |
      ----------------------------------------------------------- 
          low memory version by Sebastian Ehlert

          ...................................................
          :                      SETUP                      :
          :.................................................:
          :   energy convergence        0.1000000E-05 Eh    :
          :   grad. convergence         0.8000000E-03 Eh/a0 :
          :   optimization log               true           :
          :   writing optlog all                1     steps :
          :   Hessian reset                    20     steps :
          :   maximium step len.        1.0000000     a0    :
          :   LBFGS images                     20           :
          ...................................................
 * calculating model hessian...
Using Lindh-Hessian (1995)
 Shifting diagonal of input Hessian by   1.000028806411478E-002
 Lowest  eigenvalues of input Hessian
    0.010000    0.010000   -0.000000   -0.000000   -0.000000   -0.000000
   -0.000000   -0.000000   -0.000000   -0.000000   -0.000000   -0.000000
   -0.000000   -0.000000   -0.000000   -0.000000   -0.000000   -0.000000
 Highest eigenvalues
    0.334239    0.373018    1.256253    1.337992    1.426984    1.512268
 

........................................................................
.............................. CYCLE    1 ..............................
........................................................................
   1   -906.6273491 -0.906627E+03  0.335E-02    6.28       0.0  T
   2   -906.6274305 -0.814204E-04  0.194E-02    6.34       1.0  T
   3   -906.6274462 -0.156476E-04  0.625E-03    6.37       1.0  T
   4   -906.6274474 -0.120060E-05  0.113E-03    6.36       3.8  T
   5   -906.6274474 -0.330938E-07  0.196E-04    6.36      22.1  T
   6   -906.6274474 -0.138380E-08  0.772E-05    6.36      56.2  T
     SCC iter.                  ...        0 min,  1.553 sec
     gradient                   ...        0 min,  4.757 sec
 * total energy  :  -901.1717498 Eh     change       -0.9202859E-02 Eh
   gradient norm :     0.0268248 Eh/a0  converged?    E=F G=F D=F
   step length   :     0.4044862 a0

........................................................................
.............................. CYCLE    2 ..............................
........................................................................
   1   -906.6280614 -0.906628E+03  0.296E-02    6.33       0.0  T
   2   -906.6280955 -0.340903E-04  0.177E-02    6.35       1.0  T
   3   -906.6281026 -0.712292E-05  0.396E-03    6.35       1.1  T
   4   -906.6281034 -0.781988E-06  0.796E-04    6.34       5.5  T
   5   -906.6281034 -0.183311E-07  0.135E-04    6.34      32.1  T
     SCC iter.                  ...        0 min,  1.293 sec
     gradient                   ...        0 min,  4.757 sec
 * total energy  :  -901.1761785 Eh     change       -0.4428660E-02 Eh
   gradient norm :     0.0234749 Eh/a0  converged?    E=F G=F D=F
   step length   :     0.6729445 a0

........................................................................
.............................. CYCLE    3 ..............................
........................................................................
   1   -906.6322614 -0.906632E+03  0.163E-02    6.32       0.0  T
   2   -906.6322688 -0.746076E-05  0.962E-03    6.33       1.0  T
   3   -906.6322703 -0.147273E-05  0.193E-03    6.34       2.2  T
   4   -906.6322705 -0.203682E-06  0.330E-04    6.33      13.1  T
   5   -906.6322705 -0.158605E-08  0.503E-05    6.33      86.2  T
     SCC iter.                  ...        0 min,  1.275 sec
     gradient                   ...        0 min,  4.763 sec
 * total energy  :  -901.1769313 Eh     change       -0.7528110E-03 Eh
   gradient norm :     0.0126423 Eh/a0  converged?    E=F G=F D=F
   step length   :     0.2825753 a0

........................................................................
.............................. CYCLE    4 ..............................
........................................................................
   1   -906.6323753 -0.906632E+03  0.102E-02    6.33       0.0  T
   2   -906.6323761 -0.774709E-06  0.625E-03    6.33       1.0  T
   3   -906.6323765 -0.423376E-06  0.593E-04    6.34       7.3  T
   4   -906.6323766 -0.174296E-07  0.199E-04    6.33      21.8  T
     SCC iter.                  ...        0 min,  1.020 sec
     gradient                   ...        0 min,  4.760 sec
 * total energy  :  -901.1775265 Eh     change       -0.5951512E-03 Eh
   gradient norm :     0.0082194 Eh/a0  converged?    E=F G=F D=F
   step length   :     0.2342447 a0

........................................................................
.............................. CYCLE    5 ..............................
........................................................................
   1   -906.6295722 -0.906630E+03  0.318E-02    6.30       0.0  T
   2   -906.6295816 -0.933637E-05  0.193E-02    6.31       1.0  T
   3   -906.6295853 -0.369431E-05  0.203E-03    6.32       2.1  T
   4   -906.6295856 -0.307406E-06  0.659E-04    6.32       6.6  T
   5   -906.6295856 -0.127526E-07  0.757E-05    6.32      57.4  T
     SCC iter.                  ...        0 min,  1.249 sec
     gradient                   ...        0 min,  4.773 sec
 * total energy  :  -901.1789183 Eh     change       -0.1391885E-02 Eh
   gradient norm :     0.0280804 Eh/a0  converged?    E=F G=F D=F
   step length   :     0.8759351 a0

........................................................................
.............................. CYCLE    6 ..............................
........................................................................
   1   -906.6316508 -0.906632E+03  0.221E-02    6.30       0.0  T
   2   -906.6316587 -0.785246E-05  0.133E-02    6.32       1.0  T
   3   -906.6316605 -0.186222E-05  0.177E-03    6.34       2.4  T
   4   -906.6316608 -0.269824E-06  0.433E-04    6.33      10.0  T
   5   -906.6316608 -0.569423E-08  0.792E-05    6.33      54.8  T
     SCC iter.                  ...        0 min,  1.227 sec
     gradient                   ...        0 min,  4.770 sec
 * total energy  :  -901.1804690 Eh     change       -0.1550632E-02 Eh
   gradient norm :     0.0311444 Eh/a0  converged?    E=F G=F D=F
   step length   :     0.9110393 a0

........................................................................
.............................. CYCLE    7 ..............................
........................................................................
   1   -906.6425148 -0.906643E+03  0.218E-02    6.37       0.0  T
   2   -906.6425254 -0.106013E-04  0.127E-02    6.38       1.0  T
   3   -906.6425276 -0.214146E-05  0.210E-03    6.38       2.1  T
   4   -906.6425278 -0.278510E-06  0.417E-04    6.39      10.4  T
   5   -906.6425279 -0.425734E-08  0.794E-05    6.39      54.6  T
     SCC iter.                  ...        0 min,  1.218 sec
     gradient                   ...        0 min,  4.773 sec
 * total energy  :  -901.1816001 Eh     change       -0.1131093E-02 Eh
   gradient norm :     0.0229837 Eh/a0  converged?    E=F G=F D=F
   step length   :     0.9429392 a0

........................................................................
.............................. CYCLE    8 ..............................
........................................................................
   1   -906.6283914 -0.906628E+03  0.338E-02    6.30       0.0  T
   2   -906.6284170 -0.255760E-04  0.203E-02    6.24       1.0  T
   3   -906.6284239 -0.691733E-05  0.324E-03    6.19       1.3  T
   4   -906.6284246 -0.723067E-06  0.854E-04    6.20       5.1  T
   5   -906.6284246 -0.220259E-07  0.161E-04    6.20      26.9  T
     SCC iter.                  ...        0 min,  1.250 sec
     gradient                   ...        0 min,  4.787 sec
 * total energy  :  -901.1790149 Eh     change        0.2585153E-02 Eh
   gradient norm :     0.0468662 Eh/a0  converged?    E=F G=F D=F
   step length   :     1.1346730 a0

........................................................................
.............................. CYCLE    9 ..............................
........................................................................
   1   -906.6382125 -0.906638E+03  0.303E-02    6.25       0.0  T
   2   -906.6382434 -0.308313E-04  0.179E-02    6.31       1.0  T
   3   -906.6382496 -0.626308E-05  0.365E-03    6.35       1.2  T
   4   -906.6382504 -0.757557E-06  0.742E-04    6.34       5.9  T
   5   -906.6382504 -0.149392E-07  0.136E-04    6.34      32.0  T
     SCC iter.                  ...        0 min,  1.239 sec
     gradient                   ...        0 min,  4.814 sec
 * total energy  :  -901.1819113 Eh     change       -0.2896370E-02 Eh
   gradient norm :     0.0071390 Eh/a0  converged?    E=F G=F D=F
   step length   :     1.0760209 a0

........................................................................
.............................. CYCLE   10 ..............................
........................................................................
   1   -906.6398149 -0.906640E+03  0.614E-03    6.35       0.0  T
   2   -906.6398152 -0.295190E-06  0.367E-03    6.35       1.2  T
   3   -906.6398154 -0.140232E-06  0.371E-04    6.35      11.7  T
   4   -906.6398154 -0.769182E-08  0.128E-04    6.35      34.0  T
     SCC iter.                  ...        0 min,  0.982 sec
     gradient                   ...        0 min,  4.819 sec
 * total energy  :  -901.1819974 Eh     change       -0.8615930E-04 Eh
   gradient norm :     0.0091489 Eh/a0  converged?    E=F G=F D=F
   step length   :     0.1605605 a0

........................................................................
.............................. CYCLE   11 ..............................
........................................................................
   1   -906.6401246 -0.906640E+03  0.325E-03    6.35       0.0  T
   2   -906.6401248 -0.163162E-06  0.196E-03    6.35       2.2  T
   3   -906.6401248 -0.555882E-07  0.260E-04    6.34      16.7  T
   4   -906.6401248 -0.486204E-08  0.787E-05    6.35      55.2  T
     SCC iter.                  ...        0 min,  0.998 sec
     gradient                   ...        0 min,  4.813 sec
 * total energy  :  -901.1820517 Eh     change       -0.5429610E-04 Eh
   gradient norm :     0.0058043 Eh/a0  converged?    E=F G=F D=F
   step length   :     0.0336027 a0

........................................................................
.............................. CYCLE   12 ..............................
........................................................................
   1   -906.6388301 -0.906639E+03  0.480E-03    6.33       0.0  T
   2   -906.6388304 -0.288911E-06  0.286E-03    6.33       1.5  T
   3   -906.6388305 -0.827534E-07  0.346E-04    6.33      12.5  T
   4   -906.6388305 -0.881062E-08  0.105E-04    6.33      41.4  T
     SCC iter.                  ...        0 min,  1.004 sec
     gradient                   ...        0 min,  4.809 sec
 * total energy  :  -901.1820961 Eh     change       -0.4432846E-04 Eh
   gradient norm :     0.0057187 Eh/a0  converged?    E=F G=F D=F
   step length   :     0.0647110 a0

........................................................................
.............................. CYCLE   13 ..............................
........................................................................
   1   -906.6391073 -0.906639E+03  0.380E-03    6.32       0.0  T
   2   -906.6391074 -0.808408E-07  0.231E-03    6.32       1.9  T
   3   -906.6391075 -0.313584E-07  0.160E-04    6.32      27.2  T
   4   -906.6391075 -0.189436E-08  0.535E-05    6.32      81.1  T
     SCC iter.                  ...        0 min,  0.993 sec
     gradient                   ...        0 min,  4.803 sec
 * total energy  :  -901.1821426 Eh     change       -0.4656626E-04 Eh
   gradient norm :     0.0023964 Eh/a0  converged?    E=F G=F D=F
   step length   :     0.0582527 a0

........................................................................
.............................. CYCLE   14 ..............................
........................................................................
   1   -906.6394018 -0.906639E+03  0.501E-03    6.31       0.0  T
   2   -906.6394019 -0.817518E-07  0.302E-03    6.31       1.4  T
   3   -906.6394019 -0.245346E-07  0.156E-04    6.31      27.8  T
   4   -906.6394019 -0.260195E-08  0.459E-05    6.31      94.5  T
     SCC iter.                  ...        0 min,  0.998 sec
     gradient                   ...        0 min,  4.826 sec
 * total energy  :  -901.1821647 Eh     change       -0.2206598E-04 Eh
   gradient norm :     0.0023786 Eh/a0  converged?    E=F G=F D=F
   step length   :     0.0816791 a0

........................................................................
.............................. CYCLE   15 ..............................
........................................................................
   1   -906.6392677 -0.906639E+03  0.243E-03    6.31       0.0  T
   2   -906.6392678 -0.373335E-07  0.148E-03    6.31       2.9  T
   3   -906.6392678 -0.171444E-07  0.120E-04    6.31      36.1  T
   4   -906.6392678 -0.939508E-09  0.414E-05    6.31     104.8  T
     SCC iter.                  ...        0 min,  0.998 sec
     gradient                   ...        0 min,  4.822 sec
 * total energy  :  -901.1821730 Eh     change       -0.8277691E-05 Eh
   gradient norm :     0.0016792 Eh/a0  converged?    E=F G=F D=F
   step length   :     0.0423390 a0

........................................................................
.............................. CYCLE   16 ..............................
........................................................................
   1   -906.6393680 -0.906639E+03  0.117E-03    6.32       0.0  T
   2   -906.6393680 -0.204341E-07  0.708E-04    6.32       6.1  T
   3   -906.6393680 -0.687180E-08  0.909E-05    6.32      47.8  T
     SCC iter.                  ...        0 min,  0.747 sec
     gradient                   ...        0 min,  4.809 sec
 * total energy  :  -901.1821783 Eh     change       -0.5329285E-05 Eh
   gradient norm :     0.0011858 Eh/a0  converged?    E=F G=F D=F
   step length   :     0.0261098 a0

........................................................................
.............................. CYCLE   17 ..............................
........................................................................
   1   -906.6391925 -0.906639E+03  0.713E-04    6.32       0.0  T
   2   -906.6391925 -0.677892E-08  0.430E-04    6.32      10.1  T
   3   -906.6391925 -0.169632E-08  0.535E-05    6.32      81.1  T
     SCC iter.                  ...        0 min,  0.728 sec
     gradient                   ...        0 min,  4.794 sec
 * total energy  :  -901.1821809 Eh     change       -0.2558477E-05 Eh
   gradient norm :     0.0004833 Eh/a0  converged?    E=F G=T D=F
   step length   :     0.0136924 a0

........................................................................
.............................. CYCLE   18 ..............................
........................................................................
   1   -906.6392474 -0.906639E+03  0.161E-03    6.32       0.0  T
   2   -906.6392475 -0.388625E-07  0.972E-04    6.32       4.5  T
   3   -906.6392475 -0.803686E-08  0.123E-04    6.32      35.2  T
     SCC iter.                  ...        0 min,  0.717 sec
     gradient                   ...        0 min,  4.759 sec
 * total energy  :  -901.1821834 Eh     change       -0.2527856E-05 Eh
   gradient norm :     0.0006651 Eh/a0  converged?    E=F G=T D=F
   step length   :     0.0340887 a0

........................................................................
.............................. CYCLE   19 ..............................
........................................................................
   1   -906.6391407 -0.906639E+03  0.695E-04    6.32       0.0  T
   2   -906.6391407 -0.579678E-08  0.420E-04    6.32      10.3  T
   3   -906.6391407 -0.135969E-08  0.490E-05    6.32      88.6  T
     SCC iter.                  ...        0 min,  0.720 sec
     gradient                   ...        0 min,  4.750 sec
 * total energy  :  -901.1821846 Eh     change       -0.1230448E-05 Eh
   gradient norm :     0.0003959 Eh/a0  converged?    E=F G=T D=F
   step length   :     0.0189053 a0

........................................................................
.............................. CYCLE   20 ..............................
........................................................................
   1   -906.6391396 -0.906639E+03  0.929E-04    6.32       0.0  T
   2   -906.6391396 -0.956197E-08  0.555E-04    6.32       7.8  T
   3   -906.6391396 -0.165335E-08  0.628E-05    6.32      69.2  T
     SCC iter.                  ...        0 min,  0.716 sec
     gradient                   ...        0 min,  4.756 sec
 * total energy  :  -901.1821854 Eh     change       -0.8237663E-06 Eh
   gradient norm :     0.0002130 Eh/a0  converged?    E=T G=T D=F
   step length   :     0.0219579 a0

   *** GEOMETRY OPTIMIZATION CONVERGED AFTER 20 CYCLES ***

------------------------------------------------------------------------
 total energy gain   :        -0.0196385 Eh      -12.3233 kcal/mol
 total RMSD          :         0.1609047 a0        0.0851 Å
 total power (kW/mol):        -2.5780401 (step)   -0.3970 (real)
------------------------------------------------------------------------

 L-ANCopt (total)              0 d,  0 h,  2 min,  9.880 sec
 setup                          ...        0 min,  0.016 sec (  0.013%)
 model hessian                  ...        0 min,  3.866 sec (  2.976%)
 ANC generation                 ...        0 min,  0.928 sec (  0.715%)
 coordinate transformation      ...        0 min,  0.001 sec (  0.001%)
 Rational function              ...        0 min,  0.000 sec (  0.000%)
 singlepoint calculation        ...        2 min,  4.966 sec ( 96.216%)
 optimization log               ...        0 min,  0.098 sec (  0.076%)
 hessian update                 ...        0 min,  0.000 sec (  0.000%)

================
 final structure:
================
$coord
       -3.44639885338199       -3.14321298368000       -3.48243364652500      o
       -4.90924839986500       -2.02973988621500       -3.71269804129500      h
       -3.98226786067900       -4.67261143232000       -2.58429942133200      h
        5.23421397529400       -6.28105398425500        3.91899325341400      o
        4.75475644947400       -7.39845926221400        5.30489166503500      h
        4.72845001729700       -4.56921292819700        4.35396064411400      h
        4.32920779872500       -1.25177434325100        4.99417078163900      o
        3.83176966088800       -1.10979304250500        6.76211421537700      h
        3.72862920810300        0.34649073563700        4.31378280219400      h
        2.34333961780600       -5.93961458264500       -6.01288954309900      o
        1.60723388057200       -5.97496120562700       -7.67730078953100      h
        3.49092006844700       -7.39499655786400       -5.87083680069700      h
       -7.71735854352500       -1.64098380644700        7.58458977866900      o
       -8.38923116802100       -1.75045787530600        9.30476038445000      h
       -9.05215774691500       -0.94484830432800        6.55336970129800      h
        5.41686087323600       -9.64173376138600       -4.74292044333100      o
        5.20820446063800       -9.56842181181400       -2.90770225859700      h
        7.17141401956701       -9.14768977998000       -5.07507571716100      h
        0.88691885947600       -5.14005337625400        7.30674518251200      o
       -0.38218369039500       -3.81473854375400        7.64039324478900      h
        2.43737416702300       -4.62994758523800        8.17026911417200      h
        7.75761812251700      -13.32798239931900        1.63492036146800      o
        8.94172356915000      -13.00294525222000        0.25581089349900      h
        8.69366551578600      -13.03888391783900        3.15991548578600      h
       -8.86895834016000       -4.84527777988800       -1.31547187212800      o
       -7.51577850095100       -5.98754085124500       -0.85769382871800      h
       -8.95866435738400       -4.92462986826000       -3.15088334181300      h
       -0.66911154307700        3.97313773025700        8.25505715702900      o
       -2.33572482177300        3.52563261580800        7.62134203915000      h
       -0.92310466137600        5.15257953714800        9.64629727683300      h
       -7.28958834436700        0.00064355089600       -4.41681517191400      o
       -7.81718707470500       -0.27388287546600       -6.14985336029000      h
       -6.92261723623600        1.79662497761100       -4.28224200223600      h
        6.16967971280500       10.53741763979000        4.02313922559700      o
        7.62777300596800       11.18618281934500        3.07259969995700      h
        6.86529335878900       10.04605117366500        5.67796070186400      h
        2.85368954610800        3.66758433157200        4.58301693122600      o
        1.52208891119000        3.77098462356500        5.84765248057000      h
        2.23201129031900        4.67328217127100        3.17732037710800      h
       -5.41023649882500        2.90927138554700        6.94954564506400      o
       -6.21973208467000        1.24421754612100        6.98352162260300      h
       -6.13808875309600        3.89235565659000        5.59416609020600      h
       -2.04710509726000        6.70815819806800       -9.13466202591500      o
       -1.28682008350100        6.72464137744700      -10.81958882473500      h
       -0.87726710932400        5.76559650484600       -8.08280511279000      h
       -3.42376110870701       11.63615780428700       -8.15716266341500      o
       -2.92637114867700        9.90257633009400       -8.52337869752800      h
       -5.09931177749400       11.55449181905500       -7.42338370889200      h
       -7.52485230998000        5.18423450886800       -4.03465132685400      o
       -7.44217783243400        5.80974607185500       -5.80886252179500      h
       -6.14295600872900        6.06851800132200       -3.18840551954200      h
       -0.24913120397500       -0.96114588389500       -7.77991661659800      o
        0.07189205503700       -2.19470517043800       -9.07935970245600      h
       -1.96606624838700       -0.30730244323000       -8.04263016649700      h
        7.28035661566400        4.24117810844700        6.65189899751200      o
        7.57131560736400        2.59881338495200        7.46130167668200      h
        5.51130830943100        4.26019568849200        6.07209690813200      h
        9.82423333553700       -7.55433252026000        1.99423249593200      o
        8.27138376732200       -7.02740276953700        2.84016363061400      h
       10.52436053620300       -6.01732182633800        1.21013522500900      h
       -7.79776146390000       11.28243699266300       -5.29206450103300      o
       -8.79501931016500       12.36581646195500       -4.21617847184100      h
       -9.02486996606800       10.23313114626300       -6.18330784641000      h
        1.95917591148900        3.54487074841400       -7.62203225701700      o
        2.89173598332600        3.54012192379500       -5.99918330863300      h
        1.13017202572200        1.87663299458500       -7.65711659321900      h
        8.42689748100700        8.97415286647000        8.20528648339900      o
       10.12368270000900        9.37859742688100        7.64748825166800      h
        8.23346162210400        7.14908662590700        7.97150712050600      h
       16.34111038312600       -3.71035979191500        2.87764167284900      o
       17.06750939864600       -3.14459339503701        4.50191620781300      h
       17.71739766746600       -4.53358724125800        1.96162336454100      h
      -10.83590162018700        0.35156422859100       -0.83231866690600      o
       -9.74377195176500        0.13099358748000       -2.29471664012900      h
      -12.23490009699200       -0.82138254712600       -1.05800393860500      h
        2.16998764894000       -4.82803049076600       -0.95031826915600      o
        3.85243586393000       -4.15831301311000       -0.70652751121600      h
        1.99361703373300       -5.27976320203200       -2.71213201546100      h
       -5.23164031122600       -4.02714347192500       12.96354700596900      o
       -6.93350260855900       -3.40702610463600       13.20356041074000      h
       -5.24563628716800       -4.85787731562800       11.31541424285700      h
       -7.20120200989000        6.79816659714400       -8.62137503395400      o
       -5.39453176200400        6.74903061537500       -8.93920605753200      h
       -7.98250048443100        5.51047910127500       -9.70505275151100      h
      -11.99556247957400        8.79749094131500       -7.06842345266300      o
      -12.00153996243100        7.04868338049900       -6.51744905969700      h
      -12.07686141747700        8.74508432013900       -8.87499297078600      h
       10.30807704511000        2.41909948738200       12.16582043888300      o
        8.63291360970400        3.06407269598100       12.55234850133200      h
       11.13719346764800        3.73743526772100       11.18728801063700      h
        8.42465622313400       -6.29453216905000       -9.99256795275000      o
        7.20702620044600       -7.61160255280100      -10.38987902352400      h
        7.49701404421600       -4.73988682431300      -10.21217566416200      h
      -18.28950667022200       -7.23668102272600       -3.70251196092600      o
      -18.00537816213000       -8.53323669482700       -2.45279189321200      h
      -19.57890656280300       -6.13964919675500       -3.05528437370900      h
       -2.25709784411400        4.16760291853800       -4.20525104215600      o
       -3.15002027505900        3.97095665505400       -2.59750728461000      h
       -1.17732369962400        5.64801774607600       -4.02665461682900      h
       -0.05439185708800       -9.96104610920000       -1.78046620106100      o
        1.59231338738900       -9.55643427799600       -1.06222209321700      h
       -0.01710255331100       -9.59533632454300       -3.58639593394500      h
        2.50005678721000        0.26971462889400        9.42575834211000      o
        1.15583731829300        1.47942602616700        9.03582588866300      h
        1.98955366033700       -0.66108334813900       10.92479836756400      h
        2.69562124721700      -13.47579420022700       -6.67212383937300      o
        3.94258936750200      -12.31311671329200       -5.95944754863400      h
        2.08342177987800      -14.47210862462200       -5.25935943676000      h
        9.20614624483300       -2.68395768253500        3.98194264167700      o
        7.69722154689700       -1.95889515320400        4.74933146371400      h
       10.51682067933200       -1.38166343013300        4.04855472379900      h
      -11.81850166105000       -5.22208024226100        2.88888981000400      o
      -12.81695797207900       -3.68096308352300        3.06101860367200      h
      -10.91152528115100       -5.09231528354000        1.29673215152900      h
        6.85995585071100       -2.32064097179800       -0.61500412867300      o
        7.72622154701100       -3.01767022339500        0.85678822291000      h
        6.69152667879200       -0.54035638341700       -0.14082802499900      h
        4.46656609564099       12.41007074264700       -6.91131850960500      o
        4.07986841668100       11.27401404644600       -8.29279345941700      h
        2.86120075303300       12.79971173251100       -6.10894514666000      h
        4.58503139893000       -9.51592105601800        0.16857947618500      o
        5.57283857322200      -10.91259639955100        0.83263067955700      h
        4.67405283023700       -8.15226445029000        1.41203682032700      h
        2.11099934093900       -2.38012905959000       13.75428555981400      o
        0.99577923057400       -3.83972091393300       14.13478295061300      h
        1.82303492368500       -1.12550326482300       15.02954603491500      h
        8.25649314163700       -0.33174706014400        8.50859362626400      o
        7.07407557819100       -1.60269807039700        9.10031803879900      h
        9.08491841221600        0.37417794804700        9.99792882218700      h
       -3.27602252731000        0.73726895860900       12.33896934649100      o
       -2.83702976106700        0.21890671511500       10.62308156306600      h
       -3.92930057085200       -0.80985405060700       13.07639377587800      h
        6.10009426633300        8.31050978475500       -4.34491820850400      o
        5.86662329386600       10.00028075280500       -5.05685802579600      h
        7.32387573702600        7.45353999924300       -5.39577776679200      h
       -0.18209800115000       12.79224718178600       -4.67244769455900      o
       -0.92703842376000       13.80671111132000       -3.37387774391500      h
       -1.44993902156700       12.55159917227000       -6.04047051114800      h
       -4.52574024496100       -7.61723533452700       -1.58075440052000      o
       -2.87256966125100       -8.25092284332100       -1.08678108730500      h
       -5.03251975793500       -8.74128487305000       -2.95203571880600      h
       -9.71805119403700        1.48036278108400        4.06373265529200      o
       -8.65548857806200        0.42868603027300        2.94342342393900      h
       -9.36138482046600        3.21496703751000        3.66184530057100      h
       17.36136359260800        4.62100322867200       -3.74775529129900      o
       19.16456329283700        4.52778148384501       -3.50996374126100      h
       16.65567654834600        3.46263017405500       -2.50879183905200      h
       -4.52918934800800        3.62609896596800      -13.21294747567200      o
       -6.36087394458300        3.58411055550600      -13.13364114210000      h
       -4.01611208595800        5.19825155941100      -13.95408299460900      h
      -14.97754476959200        8.21354423279600       -2.66207596259900      o
      -14.42165492031900        9.24578402745400       -4.05458027523700      h
      -14.39165429255200        6.50811841007700       -3.06436516640900      h
        0.60412499263500        3.18330556815700       14.55446624161400      o
       -0.75945174136900        2.18191939426900       13.79686811787800      h
        0.03590464620500        4.89944635791800       14.36083267788200      h
      -18.02540715033700        3.84345497537100       -4.94530518771700      o
      -18.26016615453200        4.71953506335500       -6.51166820452600      h
      -18.92817280357100        4.75465611787600       -3.65083880210600      h
       -2.55525109147700       -1.66150022905400        7.86855732954200      o
       -4.28190257986500       -2.25963568899400        7.76872065099700      h
       -2.25780994122800       -0.64391580205100        6.34850940665900      h
       13.99330351043400       -0.84280029209900        9.12403129737700      o
       13.15498885912100        0.19983943716700       10.35531691025400      h
       12.95427044824300       -2.35634785723800        8.91731455164900      h
       19.19844342536600        4.96753430920300        2.37841845358200      o
       18.40924998723500        6.69626876408100        2.36194847809600      h
       20.42921009908900        4.99098605144100        1.02571902126000      h
      -19.54057756487900        2.25846826713600        5.93298248246700      o
      -18.30409206529400        1.57291209905700        7.10582318616600      h
      -20.84349468229200        0.95010808287600        5.75038914257200      h
       -1.04342180161000       -0.27809059935800      -13.29377978845900      o
       -2.22039835385200        1.10970117026600      -13.50350110736100      h
        0.59487356580700        0.49548010415300      -13.11313701801900      h
       -5.39604083157300       -5.96669035664900        3.47017971558300      o
       -5.47123372062500       -5.99898841609300        5.31545989428900      h
       -3.63080088626600       -6.28390365092400        3.03184051257200      h
        7.67684299737300       13.62169152676700       -2.98649532275800      o
        6.15227188503900       13.03548502594400       -2.12280511732500      h
        7.06617681039400       14.32177488106700       -4.54741388112600      h
      -10.16065163476600        7.74676192397200       -0.41273209831400      o
      -11.61340786866000        6.68425594365100        0.00407385287100      h
       -9.33821066290700        6.93207108370500       -1.84444649341100      h
      -14.09707948315800       -0.78954917752900        3.73854673517200      o
      -12.55155233843600        0.24706834587000        3.66444153609300      h
      -15.10667433252900       -0.40083448842800        2.26599099515300      h
      -10.88763832935700       12.66491178664800       -1.25451402050000      o
      -10.88760544453500       10.80878379411100       -1.09622060743900      h
      -12.38169193532600       13.20755706773900       -0.38022819555800      h
      -13.37790760510000        4.17899434340800        0.86036370893900      o
      -12.32293565770400        2.79706600242000        0.16088943561200      h
      -15.10283397835300        3.53996185304700        0.80010429718800      h
       16.49503520824000        1.22334901579100        0.29594879379400      o
       17.30854643829600        2.63286572537100        1.16999682185900      h
       17.80365603257400       -0.03238419655400        0.02305695543300      h
        7.03753341404000        2.23769176060200        1.56733581654700      o
        6.41857536829900        3.93397384555000        1.11415895441200      h
        7.04021127570800        2.19100405353800        3.38509620764900      h
       10.11487193894200       -2.98977412842700       -4.63545143644300      o
        9.44471901494800       -1.97392903277800       -6.03546427486300      h
        9.08458527110600       -2.67342900467800       -3.14567823795000      h
       -1.25513180120400        7.58933483782000       11.84163964094000      o
       -2.52395320256200        8.78740118575800       11.34103837889800      h
        0.39573253922500        8.29622469321500       11.46337728344600      h
       -9.85865053517200       -1.73071874970600       12.20385597635100      o
      -10.53523618286200       -0.05264885494100       11.97914380353400      h
      -11.31061833666100       -2.88347766738900       12.06654394238300      h
       -4.62496543729000        2.99655660694900        0.04480055208700      o
       -5.53080199421300        4.24322028709200        1.05790255764200      h
       -5.49700123905600        1.39057696696900        0.21915695716000      h
       13.49865811184000       -4.26832515837900       -8.66917590223000      o
       11.99161228262200       -4.94720931715800       -9.43188229479100      h
       13.73008448019900       -5.14461373510300       -7.08553167779700      h
       -5.63546177796800       -6.58835591820400        8.49368706263000      o
       -7.48668924416700       -6.59929106061700        8.38497886171500      h
       -5.09436129946300       -8.33908777599400        8.46345277610800      h
        9.70987392693300        0.12305815900000      -12.96200686911600      o
        9.35410290173800        1.86542026012200      -13.38095595132000      h
       11.54688136712500        0.03996058674200      -12.63890189593600      h
        5.31834016601500       -2.28718185188100      -11.88793795882300      o
        6.79574821317900       -2.15045361076200      -12.95120405835300      h
        4.57980779200500       -0.58981278503900      -11.93051841343300      h
      -16.14096217815600       -0.97711908236600       -9.57492164553700      o
      -15.35765166855400       -2.48732321226400      -10.23933922463000      h
      -17.32078152092200       -1.49616689367900       -8.27446077161400      h
       11.35954538484900        1.16686759102200       -0.62423041836700      o
       10.01652990360900        1.71958229535400        0.50943374834400      h
       11.55018394063300       -0.64320020440800       -0.34409251656100      h
       11.14102232643200      -11.02701046054000       -1.45849267993900      o
       10.58913074363800       -9.70505425044200       -0.28523587030200      h
       10.93138276066500      -10.28508095982800       -3.12204253674800      h
      -20.71866441313100       -2.15519031883600       -0.20356001654300      o
      -19.77002973086900       -0.62067482359300        0.21582227758600      h
      -19.69867531722700       -3.53006210338700        0.47946108039500      h
       -6.96366102428500        4.66670838576900       11.31469817448300      o
       -5.92768989903300        3.80010800804300       12.53617925834500      h
       -6.33863241685800        4.01533310445000        9.68056451877800      h
        8.43594062054000        0.22974343285300       -8.09091921353500      o
        8.82103831143500        0.10262645772000       -9.90325628523800      h
        6.67586064563700       -0.21118515334500       -7.80263166297100      h
       -1.53636168341800       11.87704773992000        0.75501438572800      o
       -2.02670185071800       11.24638167218300        2.39873511458100      h
       -2.30540657718400       10.69898795840200       -0.43670120292000      h
       14.38010095898700        0.18263971887200      -11.22665303966400      o
       14.25915338973600       -1.36023135914800      -10.23844732557100      h
       14.17798916623900        1.58137993476900      -10.05467004780200      h
       -0.48555719779000       -6.93384088783400        2.78037266057100      o
        0.51661694552000       -6.20760075083300        1.40853724270000      h
        0.22293013271200       -6.33253594343800        4.37387573551400      h
      -17.55786482057100       -5.60895541259700        1.85729244960400      o
      -17.13309666575600       -7.36381064522700        1.44038100446700      h
      -17.61240138380100       -5.45758921103300        3.68224090657300      h
      -14.18272994402700        3.93200295908400       -9.68525568181100      o
      -13.86614614316600        3.92723106034500       -7.87705654623200      h
      -15.07651383149000        2.37255286990200      -10.02049878560500      h
        4.15846541742900        7.96848916183600       -9.72610925344800      o
        5.92635048943700        7.71375938168600       -9.35440830431800      h
        3.25994768879500        6.73277634095600       -8.72075739819200      h
       13.04953351623600        0.61391173989600        4.27309209526500      o
       13.74402678376600        0.36034570287500        5.95969794450400      h
       14.38779370489200        0.50101791694500        3.02198476914900      h
       22.12553549957900        3.30417681175500       -1.68550461711100      o
       21.84158868788100        1.50016396301700       -1.47479965144400      h
       23.85080980634000        3.51797042204700       -2.18210675757300      h
        3.54645338293600       12.00023368918000       -0.33437111016400      o
        4.22826966563200       11.88776265329300        1.34639901060800      h
        1.72565312330300       12.12180306198300       -0.12684186051400      h
       11.14099750582600        5.18307499853600        3.58574657686500      o
        9.67865944220700        4.99380507261400        4.70724568266600      h
       12.07171065079400        3.59507784877200        3.79144783300000      h
       -0.94850703505300      -10.07752503272700       -6.84575374440700      o
        0.29430748649300      -11.44153150420700       -7.06668158284100      h
       -2.52725090152200      -10.87477839845200       -6.35684566320900      h
       14.15236336969600       -7.93557757546100        4.51265025900800      o
       12.49522678544400       -8.04361622436300        3.68131250216600      h
       14.88774007239100       -6.32830869055100        3.92337527504500      h
        2.92407813990300      -13.69262736970200        3.93437954987000      o
        3.45098012734000      -12.48823226228600        5.22311759844000      h
        4.43022743947800      -14.08744997300100        2.99346232149100      h
      -16.15281605902700      -10.22192094743500        0.35863999919400      o
      -15.53185211378900      -10.88588874472800        1.94669395941200      h
      -14.60583474467500       -9.94451688324600       -0.62584416193500      h
      -13.81243801368200       -4.49635041592700       10.80155602056700      o
      -12.74586230500500       -5.36387281740000        9.57107118964300      h
      -14.53256503255600       -3.02800065029200        9.96069773538600      h
       -3.89481726387900      -11.42386286043400        7.70985971827300      o
       -3.15364561829400      -11.57086481985300        5.99510567366400      h
       -4.66851436038700      -13.01221583009800        8.08590699910300      h
       -3.32974977911900       -5.69963917742800       -7.70737022788900      o
       -2.30461833242800       -7.20913919052400       -7.53167774442900      h
       -2.89707321739400       -4.56875794965200       -6.29223315529500      h
       15.95587850430300       -9.72244132089100       -0.16405343230400      o
       15.55644561748600       -9.39085536234100        1.59938880234600      h
       14.49410344371200      -10.65131644016600       -0.79641813803600      h
      -12.58014213895000       -0.72949782573800       -5.80537786865600      o
      -12.86150972776100       -2.38846657715400       -5.07230958034700      h
      -13.71406733917500       -0.65321578500900       -7.24190162838800      h
       -5.44138782853200      -11.40375834214800       -4.84619203856200      o
       -7.14566320518000      -11.48286679042100       -5.50380073890600      h
       -5.31041488536400      -12.49096143984000       -3.35748339412800      h
       18.45846006553600       -2.50095161345400        7.18170031267000      o
       19.62237657944700       -1.23619647544901        6.51972972043400      h
       17.15144888727800       -1.63881321412000        8.14426430304300      h
        0.59677944513300      -14.95007952420300       -1.99992151741400      o
        1.54337047022800      -15.44837755613300       -0.53928196366600      h
        0.27410693913800      -13.12305459932300       -1.80640607837200      h
       -1.71445754226100      -11.73653887546100        3.23010786404500      o
       -1.23289807577900       -9.96911446988500        2.89435311317000      h
       -0.11489782062800      -12.63360204556000        3.42027360699500      h
       -6.60252243567700       -1.45059661539500        1.54691296353100      o
       -7.68370899290000       -2.20766245529900        0.25625754345500      h
       -6.07639431085900       -2.89805069949500        2.56584547794100      h
        0.13168929216600       -9.15430003095700       10.10026688637400      o
       -1.28700479929900      -10.13618975445000        9.48468394106700      h
        0.13606285821900       -7.58616275952600        9.08546986467300      h
       12.33656472842400       -3.78015808219000       -0.10187063839400      o
       13.13682861088900       -4.52037260709200       -1.60492993671000      h
       13.70351437267000       -3.51879796308700        1.09880725864900      h
       12.78888921190600        9.62926365146500        5.17727401457100      o
       12.29722784686600        7.93139272991400        4.57739605666400      h
       12.01490898323900       10.79364307415600        3.99721127170100      h
      -15.63629576769800       -0.23861431763000        8.37632427893800      o
      -14.46264705271000        0.90751757416800        9.19246588487200      h
      -15.00417516221300       -0.40055647119100        6.62159805789800      h
        0.12691836739200        6.33649880476700        1.12987518738100      o
        0.23392765327800        7.63697824543700        2.39417587634100      h
        0.50618096042100        7.11880758330400       -0.49322667568900      h
      -22.30226331947800       -1.83391329003800        4.87151366897400      o
      -22.25577510586900       -2.00664299369200        3.04467174137500      h
      -21.30518458257300       -3.20203794225800        5.55166991850700      h
      -12.65378138017500      -10.11076862373100        4.20605535317200      o
      -11.08751939265100      -10.74073367362800        3.50661116295900      h
      -12.73247099317900       -8.38069548472300        3.55981833799900      h
      -19.31605774556500        6.65463349426600       -0.43260822488900      o
      -19.13910241022100        7.07353779506700        1.35191500538000      h
      -17.89587285345600        7.48935820144700       -1.25123438769800      h
       10.05788942499200       -7.97946919393300       -5.50205666150500      o
        9.78755943140900       -7.77498315233700       -7.30877918922700      h
       10.23207771059600       -6.23738070944300       -4.89954591283800      h
        4.33813653462700      -10.00856995328900        7.34033115368600      o
        5.80610763433000       -9.75307772314300        8.39947373929100      h
        2.86857560999500       -9.86270045844400        8.46355516826300      h
       -8.36432638016200       -7.55187726736400      -11.53653511547300      o
       -7.29965017563300       -8.75136450043200      -10.69284760516700      h
       -7.26159435932700       -6.21224395602300      -12.11843034600500      h
       -7.01651809792400        6.09691443449400        3.15198805443800      o
       -5.74636213657400        7.32881762587500        3.70966764463800      h
       -8.20123394323500        7.01518464757900        2.06379138079400      h
        9.15238582304200        3.49776521954100       -4.35242248920500      o
       10.08246822586400        2.45648412688800       -3.12610851853300      h
        9.09728408983400        2.53531547047200       -5.92023695954000      h
        1.15119197733500       -5.04911545386500      -11.14699866184700      o
        2.75403264494000       -4.19749919299300      -11.50633096082000      h
        0.04218088623100       -4.61365891724100      -12.51437497484300      h
       -4.46111506265400      -13.83914172880400       -0.48395361206600      o
       -3.30697206055300      -15.05952352733400       -1.19065366678800      h
       -3.45308164659200      -12.99024950316300        0.82516230270400      h
       18.43846173699900       -2.51729298194000       -5.45526270478800      o
       18.71821333611300       -2.68223999610300       -7.23528566136800      h
       16.90049981493900       -1.45501132720600       -5.27037898983000      h
       20.68445308156300       -1.70092463818300       -0.98585516751000      o
       20.89860108350100       -3.40481312348900       -0.33737839320600      h
       20.09176598461500       -1.95072453132200       -2.71861689427100      h
       -8.04463936659000      -10.09250143080600        1.71958558196500      o
       -7.07169687771500       -8.61985779887800        2.28932681517700      h
       -6.86083404850000      -11.31646792985800        1.08695898176000      h
      -10.54163579742600       10.04185152419400        5.34251153970600      o
       -9.08924171949500       10.48059250656400        4.30783399498300      h
      -11.99678414696100       10.58232963298500        4.35798196128100      h
      -14.99511069296500       -2.37492926944700       -1.17189362766600      o
      -16.11419187551600       -2.06481846026400       -2.59691505829300      h
      -15.71791749535900       -3.73799334064400       -0.18400715026900      h
      -11.68074451082800       -9.37188616041400       -1.86857806267000      o
      -10.34031295921500       -9.53455575642100       -0.60784516836600      h
      -11.11655684581000      -10.18732574468500       -3.40556139902900      h
      -17.85864543593600        7.08988451828000        4.57766252937600      o
      -16.18233226178300        6.57408379887700        5.17116042477000      h
      -18.98998421738700        5.87412768965200        5.33190520507200      h
        9.40243977207200        6.94924296747000       -8.40286813250400      o
       10.10825491972200        8.55270586287100       -7.78069859143200      h
       10.72973437199500        5.71928229058800       -8.02961651583400      h
       10.12214895534200       11.73173672088600        1.16887749900700      o
        9.66826739909400       12.97661386545600       -0.08430538776400      h
       10.23844916181800       10.14108089697600        0.23338328672700      h
        4.29675331702700        3.30111395017200       -3.29028384099500      o
        3.94943913840900        4.56901465985100       -2.03827501412300      h
        6.10651106568700        3.42085305234000       -3.66197259610100      h
      -11.56443597160600        2.72301333375500        9.74976366255800      o
      -10.15459365997700        3.60985316659300       10.52115422136600      h
      -12.02463834689300        3.73540836070700        8.27848620347000      h
       21.41979678624100        0.48823260489300        4.23293159706100      o
       21.63595490157700       -0.43962958555700        2.68630237644800      h
       20.87086716538000        2.16499677593900        3.76024822854300      h
      -13.58761279008900       -5.75648029244500       -5.11200493403700      o
      -12.72826698429900       -6.70742468922400       -3.79961213167000      h
      -15.37495684073800       -6.10319490712800       -4.84384111592400      h
      -12.56694815533100       -4.79775529848000      -10.05535496839000      o
      -11.39298519346800       -6.01032083805000      -10.76577383313900      h
      -12.88687303589000       -5.31291539492800       -8.30753531869500      h
       -4.39084323748200        1.70952748706500       -8.28112538131400      o
       -4.25066626748100        2.54506652780200       -9.89689683736600      h
       -3.79607861210800        2.87396129210100       -6.99295210625600      h
       -8.79023393938000       -1.41785638691300       -9.39486418955300      o
       -7.39243667329900       -2.03548140371700      -10.44468055033200      h
      -10.32065470519300       -2.32157849753400       -9.90545699563900      h
        4.32523832600100       -9.40454411230700      -10.55440589737400      o
        3.79994265853400      -10.96378869832800       -9.78861912849400      h
        2.83503438110700       -8.39620240711000      -10.85732205612900      h
       -3.55523424192500        9.26998560198900        5.06286505017200      o
       -1.82829671271200        8.85245041028400        5.52175496014300      h
       -4.47661933999200        9.46639575536600        6.65213688566300      h
      -14.65224495455500       10.65329162009000        2.09853327276400      o
      -16.01355139712500       10.00572844796800        3.12034265833700      h
      -14.70723595303400        9.69027340687300        0.53736079683400      h
       11.37318960380100       -5.13683529692900        7.83896110464000      o
       10.39007127139200       -4.26744661363600        6.50367174696800      h
       12.55008136819800       -6.23997244212600        6.95099973570300      h
       19.61870017902899       -7.49412727939200        5.83007674517200      o
       19.51382859497800       -5.88207607730499        6.69295432347200      h
       17.98202361737900       -8.26927434750300        5.99822642624500      h
       -9.41099432296100        3.23452933597300      -11.38024393603000      o
       -9.09877975822300        1.60034980395800      -10.55970647680500      h
      -11.20547042081900        3.57479128524900      -11.08855199975900      h
       13.56198390403200        3.93206933665300       -7.59120667883600      o
       13.59566650029500        2.49406270953500       -6.41968596023900      h
       14.95936633671700        4.96433100829000       -7.06174516815000      h
        4.52587450998900       -1.52740069783000       -5.41663461445800      o
        5.44637523539800       -1.82408456912900       -3.87514275632300      h
        3.71687768197000       -3.12970841453000       -5.87916010166400      h
        8.06079770623600        5.11793319085600      -12.95589845980900      o
        8.67598374011800        5.78859568587700      -11.33633730916600      h
        8.21919054817300        6.44923776618800      -14.16814526705100      h
      -18.02274922622300        2.00962003507100        1.16373033886600      o
      -18.51307816193800        2.12409497868400        2.96357088851500      h
      -18.79967492197200        3.48370265324700        0.37211917666300      h
       20.08216204264000       -6.50480050408800        0.89221966775400      o
       20.38522135493900       -7.03368507029200        2.64605428774500      h
       19.19176739359500       -7.89626071214800        0.11478491895100      h
       15.04850980973700       -6.00561347760900       -3.67099098079200      o
       15.57391079144300       -7.43413273918800       -2.64006429943700      h
       16.55353179877800       -5.08164080671200       -4.16779242951600      h
        3.62271168587300        2.50354413887700      -12.18389478489700      o
        5.19191725188600        3.39311813890100      -12.55104931738800      h
        3.17984354448600        2.94486098854700      -10.42074164014500      h
        8.31958548974700       -8.24018601895300       10.24658764588600      o
        9.52148091133000       -7.11048650125300        9.35221617667400      h
        9.13085597782500       -8.77754892245400       11.76926437050600      h
        5.43322009793100        6.80315326607200        0.54177528244500      o
        5.61771463271100        8.00489137193800        1.91889400746400      h
        5.92795760630400        7.68921543227300       -0.98822239205800      h
      -10.57328236232200       -6.72691567717800        7.50584866005000      o
      -11.25340762658600       -8.37732887482700        7.09150205226100      h
      -10.67148493323400       -5.81016600278700        5.89397492212700      h
        0.59189085354900        6.59091362618300      -13.44735980983000      o
        1.47081966409500        4.97714751045800      -13.40731982266200      h
        1.80348738228100        7.78957954618100      -12.79488422027100      h
       12.90719952044000        5.45807296840400        8.89735856525700      o
       13.40031311662900        7.18678847084200        8.67254640326000      h
       14.26119924541000        4.44489166541300        8.18052847509000      h
       14.23921210522200       -0.07804722183300       -4.58621037759600      o
       12.88466438939600       -1.33955922803600       -4.75106461509700      h
       14.17911216158500        0.48972837098100       -2.84568351538800      h
       -8.16823880999700       -5.58919242145800       -6.28166943549300      o
       -6.39216062723500       -5.80793560290200       -6.76099421033300      h
       -8.71712042048100       -4.06361356400700       -7.14163678783200      h
      -18.46769691350700       -1.28383958052200       -4.83921420036100      o
      -18.27629050783500        0.54823749437000       -4.86543274346300      h
      -19.77719959470700       -1.62990536838300       -3.60128688012800      h
        1.48474058257900        8.87815870678200        5.66874264532800      o
        2.90028189401000        9.78542231368700        4.96667924373800      h
        2.07816598789600        8.29688549655400        7.31549060573800      h
       -7.03208083166700       11.69636238167200        1.85621967164700      o
       -5.76516629021400       12.93791955988400        2.21801268841400      h
       -8.31605788275900       12.45988716295200        0.76413379195500      h
       -4.79422595256600        8.91072605028400       -1.93276966342100      o
       -5.58914461800600        9.83749158004300       -3.31760610915100      h
       -5.70931599082700        9.45061642860500       -0.43247726952600      h
       11.28415956441500       10.86332183057100       -5.87955976830900      o
       10.11833074724300       11.78148582405100       -4.80371682222300      h
       12.76983290532900       10.52294663247600       -4.86324012883700      h
      -13.03455512393000        5.58146889267300        5.70884263337400      o
      -12.01107644289200        7.11437484294000        5.72761841618100      h
      -13.00900935690200        4.95189545484200        3.96555337676500      h
       10.63147965334000        7.15559906240100       -0.99350670624100      o
        9.96063078938800        6.05992232073600       -2.29707413901300      h
       10.76908390904800        6.16989783196700        0.56691869166900      h
       17.13359517697300        3.18710287229700        6.91403859568700      o
       18.47070226392600        3.27692800801800        8.12804045888100      h
       17.73459733662800        4.00728538316300        5.39571300645100      h
        1.02572501112400        7.97934041005500       -3.63999706563400      o
        2.84393193596400        7.95392194781800       -3.91737601593100      h
        0.51525831986800        9.73117305494200       -3.90986386773300      h
      -12.47705113216700        4.08402354137400       -4.65758578703900      o
      -12.77676808995900        2.25118313247200       -4.72419151061000      h
      -10.69669722655900        4.21433312950700       -4.23909099892200      h
       15.00095129560200        9.03316730314500       -2.48353247095300      o
       13.40733204503200        8.28023480525200       -1.89228630119100      h
       15.98465757561100        7.61944532253700       -3.12612878244200      h
        5.12465444717000        3.59097375310500       12.11537255795900      o
        4.53073059186300        2.33226717697600       10.88058686724400      h
        3.83946924268800        3.49647259578000       13.42906348829100      h
      -18.20444521860200       -4.75068458119300        6.97060760717500      o
      -17.77963872616100       -5.92363244482600        8.28711562605700      h
      -17.58443855146000       -3.12383149060500        7.53120731624000      h
        5.11365244663000       -4.20706251001800       10.01387694966300      o
        4.33615535841400       -3.70204187099800       11.59614786508400      h
        6.08130167346900       -5.73531103868700       10.31595018784400      h
      -10.06100838497900      -10.23933000371200       -6.70167643107000      o
       -9.53760147346500       -8.44736382663200       -6.66715811692300      h
      -11.15628473982400      -10.43462887313000       -8.12674390770300      h
       -0.80298144387400       -6.31217845755500       14.43057014676000      o
       -2.49505049725700       -5.65617020447900       14.17144320789600      h
       -0.48306138136000       -7.50997352002600       13.07278264527100      h
       17.07402306403000        9.32638230127300        2.19971151481500      o
       15.69938297386400        9.59709121779000        3.39402127445900      h
       16.36274146549700        9.53022758177500        0.50080109394700      h
       -4.93855922040200       -3.54600291044300      -11.90628789453300      o
       -4.14110147401300       -4.29861912603700      -10.40920313544800      h
       -3.71931038249800       -2.37216883752699      -12.59024677061900      h
       -6.34238091580100        9.37912700254700        9.31504121171000      o
       -7.95407706200400        9.81764231195400        8.59203773117500      h
       -6.61242504562600        7.79152545028097       10.22248073736199      h
        3.63120472674900        8.03356606536701       10.22609140819800      o
        5.16932800778300        8.97822290096099        9.99389382226999      h
        4.18927878363499        6.36949826037500       10.85708356175403      h
        0.54351830075056        0.03423411980219       -0.46088832170073      o
        1.41521794646049        0.98281755967615       -1.74218241328819      h
       -0.70376471852267       -0.95833797260707       -1.33951219866010      h
       -1.61434701953627        1.90337546030515        3.69812369653725      o
       -0.74554588864933        1.03804166014599        2.31898581802831      h
       -2.00633533554707        3.46469027626787        2.83534781195985      h
$end
 
 Bond Distances (Angstroems)
 ---------------------------
O1-H2=0.9804         O1-H3=0.9805         H2-O1=0.9804         H3-O1=0.9805         O4-H5=0.9756         O4-H6=0.9722         
H5-O4=0.9756         H6-O4=0.9722         O7-H8=0.9748         O7-H9=0.9726         H8-O7=0.9748         H9-O7=0.9726         
O10-H11=0.9632       O10-H12=0.9837       H11-O10=0.9632       H12-O10=0.9837       O13-H14=0.9790       O13-H15=0.9656       
H14-O13=0.9790       H15-O13=0.9656       O16-H17=0.9782       O16-H18=0.9805       H17-O16=0.9782       H18-O16=0.9805       
O19-H20=0.9869       O19-H21=0.9772       H20-O19=0.9869       H21-O19=0.9772       O22-H23=0.9771       O22-H24=0.9592       
H23-O22=0.9771       H24-O22=0.9592       O25-H26=0.9679       O25-H27=0.9733       H26-O25=0.9679       H27-O25=0.9733       
O28-H29=0.9728       O28-H30=0.9745       H29-O28=0.9728       H30-O28=0.9745       O31-H32=0.9696       O31-H33=0.9726       
H32-O31=0.9696       H33-O31=0.9726       O34-H35=0.9830       O34-H36=0.9849       H35-O34=0.9830       H36-O34=0.9849       
O37-H38=0.9733       O37-H39=0.9720       H38-O37=0.9733       H39-O37=0.9720       O40-H41=0.9799       O40-H42=0.9661       
H41-O40=0.9799       H42-O40=0.9661       O43-H44=0.9782       O43-H45=0.9705       H44-O43=0.9782       H45-O43=0.9705       
O46-H47=0.9739       O46-H48=0.9689       H47-O46=0.9739       H48-O46=0.9689       O49-H50=0.9965       O49-H51=0.9769       
H50-O49=0.9965       H51-O49=0.9769       O52-H53=0.9632       O52-H54=0.9821       H53-O52=0.9632       H54-O52=0.9821       
O55-H56=0.9811       O55-H57=0.9852       H56-O55=0.9811       H57-O55=0.9852       O58-H59=0.9764       O58-H60=0.9854       
H59-O58=0.9764       H60-O58=0.9854       O61-H62=0.9650       O61-H63=0.9759       H62-O61=0.9650       H63-O61=0.9759       
O64-H65=0.9905       O64-H66=0.9860       H65-O64=0.9905       H66-O64=0.9860       O67-H68=0.9691       O67-H69=0.9790       
H68-O67=0.9691       H69-O67=0.9790       O70-H71=0.9880       O70-H72=0.9773       H71-O70=0.9880       H72-O70=0.9773       
O73-H74=0.9729       O73-H75=0.9734       H74-O73=0.9729       H75-O73=0.9734       O76-H77=0.9669       O76-H78=0.9670       
H77-O76=0.9669       H78-O76=0.9670       O79-H80=0.9669       O79-H81=0.9767       H80-O79=0.9669       H81-O79=0.9767       
O82-H83=0.9711       O82-H84=0.9819       H83-O82=0.9711       H84-O82=0.9819       O85-H86=0.9703       O85-H87=0.9574       
H86-O85=0.9703       H87-O85=0.9574       O88-H89=0.9717       O88-H90=0.9733       H89-O88=0.9717       H90-O88=0.9733       
O91-H92=0.9722       O91-H93=0.9650       H92-O91=0.9722       H93-O91=0.9650       O94-H95=0.9647       O94-H96=0.9591       
H95-O94=0.9647       H96-O94=0.9591       O97-H98=0.9787       O97-H99=0.9742       H98-O97=0.9787       H99-O97=0.9742       
O100-H101=0.9745     O100-H102=0.9753     H101-O100=0.9745     H102-O100=0.9753     O103-H104=0.9790     O103-H105=0.9720     
H104-O103=0.9790     H105-O103=0.9720     O106-H107=0.9779     O106-H108=0.9705     H107-O106=0.9779     H108-O106=0.9705     
O109-H110=0.9745     O109-H111=0.9784     H110-O109=0.9745     H111-O109=0.9784     O112-H113=0.9760     O112-H114=0.9721     
H113-O112=0.9760     H114-O112=0.9721     O115-H116=0.9761     O115-H117=0.9790     H116-O115=0.9761     H117-O115=0.9790     
O118-H119=0.9684     O118-H120=0.9718     H119-O118=0.9684     H120-O118=0.9718     O121-H122=0.9711     O121-H123=0.9777     
H122-O121=0.9711     H123-O121=0.9777     O124-H125=0.9927     O124-H126=0.9589     H125-O124=0.9927     H126-O124=0.9589     
O127-H128=0.9705     O127-H129=0.9761     H128-O127=0.9705     H129-O127=0.9761     O130-H131=0.9766     O130-H132=0.9706     
H131-O130=0.9766     H132-O130=0.9706     O133-H134=0.9781     O133-H135=0.9666     H134-O133=0.9781     H135-O133=0.9666     
O136-H137=0.9570     O136-H138=0.9952     H137-O136=0.9570     H138-O136=0.9952     O139-H140=0.9727     O139-H141=0.9759     
H140-O139=0.9727     H141-O139=0.9759     O142-H143=0.9886     O142-H144=0.9609     H143-O142=0.9886     H144-O142=0.9609     
O145-H146=0.9637     O145-H147=0.9721     H146-O145=0.9637     H147-O145=0.9721     O148-H149=0.9704     O148-H150=0.9590     
H149-O148=0.9704     H150-O148=0.9590     O151-H152=0.9633     O151-H153=0.9777     H152-O151=0.9633     H153-O151=0.9777     
O154-H155=0.9809     O154-H156=0.9621     H155-O154=0.9809     H156-O154=0.9621     O157-H158=0.9578     O157-H159=0.9643     
H158-O157=0.9578     H159-O157=0.9643     O160-H161=0.9684     O160-H162=0.9807     H161-O160=0.9684     H162-O160=0.9807     
O163-H164=0.9622     O163-H165=0.9776     H164-O163=0.9622     H165-O163=0.9776     O166-H167=1.0057     O166-H168=0.9678     
[...]
   160   8 o      161   1 h                                       0.9684173
   160   8 o      162   1 h                                       0.9806920
   163   8 o      164   1 h                                       0.9621620
   163   8 o      165   1 h                                       0.9776394
   166   8 o      168   1 h                                       0.9678495
   169   8 o      170   1 h                                       0.9720799
   169   8 o      171   1 h                                       0.9818684
   172   8 o      173   1 h                                       0.9693081
   172   8 o      174   1 h                                       0.9634885
   175   8 o      176   1 h                                       0.9774401
   175   8 o      177   1 h                                       0.9770220
   178   8 o      179   1 h                                       0.9777495
   178   8 o      180   1 h                                       0.9612249
   181   8 o      182   1 h                                       0.9776393
   181   8 o      183   1 h                                       0.9743095
   184   8 o      185   1 h                                       0.9855664
   184   8 o      186   1 h                                       0.9669332
   187   8 o      188   1 h                                       0.9857861
   187   8 o      189   1 h                                       0.9599917
   190   8 o      191   1 h                                       0.9916895
   190   8 o      192   1 h                                       0.9739399
   193   8 o      194   1 h                                       0.9775464
   193   8 o      195   1 h                                       0.9705498
   196   8 o      197   1 h                                       0.9851586
   196   8 o      198   1 h                                       0.9622357
   199   8 o      200   1 h                                       0.9816320
   199   8 o      201   1 h                                       0.9730229
   202   8 o      203   1 h                                       0.9606968
   202   8 o      204   1 h                                       0.9711706
   205   8 o      206   1 h                                       0.9648140
   205   8 o      207   1 h                                       0.9837458
   208   8 o      209   1 h                                       0.9759105
   208   8 o      210   1 h                                       0.9714428
   211   8 o      212   1 h                                       0.9633049
   211   8 o      213   1 h                                       0.9655664
   214   8 o      215   1 h                                       0.9813321
   214   8 o      216   1 h                                       0.9698198
   217   8 o      218   1 h                                       0.9668051
   217   8 o      219   1 h                                       0.9880036
   220   8 o      221   1 h                                       0.9659426
   220   8 o      222   1 h                                       0.9798078
   223   8 o      224   1 h                                       0.9664902
   223   8 o      225   1 h                                       0.9689267
   226   8 o      227   1 h                                       0.9749477
   226   8 o      228   1 h                                       0.9744862
   229   8 o      230   1 h                                       0.9798620
   229   8 o      231   1 h                                       0.9702586
   232   8 o      233   1 h                                       0.9801253
   232   8 o      234   1 h                                       0.9753482
   235   8 o      236   1 h                                       0.9636619
   235   8 o      237   1 h                                       0.9879250
   238   8 o      239   1 h                                       0.9827642
   238   8 o      240   1 h                                       0.9722196
   241   8 o      242   1 h                                       0.9671054
   241   8 o      243   1 h                                       0.9756744
   244   8 o      245   1 h                                       0.9716752
   244   8 o      246   1 h                                       0.9715653
   247   8 o      248   1 h                                       0.9777200
   247   8 o      249   1 h                                       0.9761526
   250   8 o      251   1 h                                       0.9805870
   250   8 o      252   1 h                                       0.9694670
   253   8 o      254   1 h                                       0.9714161
   253   8 o      255   1 h                                       0.9675586
   256   8 o      257   1 h                                       0.9654355
   256   8 o      258   1 h                                       0.9678380
   259   8 o      260   1 h                                       0.9744991
   259   8 o      261   1 h                                       0.9712897
   262   8 o      263   1 h                                       0.9728064
   262   8 o      264   1 h                                       0.9567567
   265   8 o      266   1 h                                       0.9616639
   265   8 o      267   1 h                                       0.9718958
   268   8 o      269   1 h                                       0.9803380
   268   8 o      270   1 h                                       0.9800893
   271   8 o      272   1 h                                       0.9834601
   271   8 o      273   1 h                                       0.9710188
   274   8 o      275   1 h                                       0.9827459
   274   8 o      276   1 h                                       0.9859379
   277   8 o      278   1 h                                       0.9741806
   277   8 o      279   1 h                                       0.9627094
   280   8 o      281   1 h                                       0.9683170
   280   8 o      282   1 h                                       0.9813796
   283   8 o      284   1 h                                       0.9763674
   283   8 o      285   1 h                                       0.9731218
   286   8 o      287   1 h                                       0.9916006
   286   8 o      288   1 h                                       0.9558769 (min)
   289   8 o      290   1 h                                       0.9700488
   289   8 o      291   1 h                                       0.9855654
   292   8 o      293   1 h                                       0.9727689
   292   8 o      294   1 h                                       0.9756801
   295   8 o      296   1 h                                       0.9712579
   295   8 o      297   1 h                                       0.9693057
   298   8 o      299   1 h                                       0.9675789
   298   8 o      300   1 h                                       0.9779645
   301   8 o      302   1 h                                       0.9746796
   301   8 o      303   1 h                                       0.9726057
   304   8 o      305   1 h                                       0.9580598
   304   8 o      306   1 h                                       0.9871086
   307   8 o      308   1 h                                       0.9855235
   307   8 o      309   1 h                                       0.9756796
   310   8 o      311   1 h                                       0.9768882
   310   8 o      312   1 h                                       0.9772111
   313   8 o      314   1 h                                       0.9693832
   313   8 o      315   1 h                                       0.9884270
   316   8 o      317   1 h                                       0.9825508
   316   8 o      318   1 h                                       0.9726629
   319   8 o      320   1 h                                       0.9877842
   319   8 o      321   1 h                                       0.9681736
   322   8 o      323   1 h                                       0.9695874
   322   8 o      324   1 h                                       0.9906879
   325   8 o      326   1 h                                       0.9614663
   325   8 o      327   1 h                                       0.9743628
   328   8 o      329   1 h                                       0.9713464
   328   8 o      330   1 h                                       0.9654467
   331   8 o      332   1 h                                       0.9669988
   331   8 o      333   1 h                                       0.9781863
   334   8 o      335   1 h                                       0.9745079
   334   8 o      336   1 h                                       0.9734329
   337   8 o      338   1 h                                       0.9727567
   337   8 o      339   1 h                                       0.9797975
   340   8 o      341   1 h                                       0.9673960
   340   8 o      342   1 h                                       0.9818369
   343   8 o      344   1 h                                       0.9589816
   343   8 o      345   1 h                                       0.9684432
   346   8 o      347   1 h                                       0.9817469
   346   8 o      348   1 h                                       0.9801848
   349   8 o      350   1 h                                       0.9833540
   349   8 o      351   1 h                                       0.9739432
   352   8 o      353   1 h                                       0.9791164
   352   8 o      354   1 h                                       0.9597306
   355   8 o      356   1 h                                       0.9643234
   355   8 o      357   1 h                                       0.9829792
   358   8 o      359   1 h                                       0.9574965
   358   8 o      360   1 h                                       0.9939452
   361   8 o      362   1 h                                       0.9713852
   361   8 o      363   1 h                                       0.9780681
   364   8 o      365   1 h                                       0.9814635
   364   8 o      366   1 h                                       0.9612553
   367   8 o      368   1 h                                       0.9718006
   367   8 o      369   1 h                                       0.9727182
   370   8 o      371   1 h                                       0.9727651
   370   8 o      372   1 h                                       0.9694656
   373   8 o      374   1 h                                       0.9775704
   373   8 o      375   1 h                                       0.9679124
   376   8 o      377   1 h                                       0.9798094
   376   8 o      378   1 h                                       0.9652045
   379   8 o      380   1 h                                       0.9838092
   379   8 o      381   1 h                                       0.9777373
   382   8 o      383   1 h                                       0.9651060
   382   8 o      384   1 h                                       0.9784574
   385   8 o      386   1 h                                       0.9606754
   385   8 o      387   1 h                                       0.9797232
   388   8 o      389   1 h                                       0.9713226
   388   8 o      390   1 h                                       0.9759537
   391   8 o      392   1 h                                       0.9612566
   391   8 o      393   1 h                                       0.9665697
   394   8 o      395   1 h                                       0.9707404
   394   8 o      396   1 h                                       0.9738474
   397   8 o      398   1 h                                       0.9690158
   397   8 o      399   1 h                                       0.9789944
   400   8 o      401   1 h                                       0.9654393
   400   8 o      402   1 h                                       0.9713021
   403   8 o      404   1 h                                       0.9811084
   403   8 o      405   1 h                                       0.9785640
   406   8 o      407   1 h                                       0.9603669
   406   8 o      408   1 h                                       0.9655446
   409   8 o      410   1 h                                       0.9710408
   409   8 o      411   1 h                                       0.9776630
   412   8 o      413   1 h                                       0.9637112
   412   8 o      414   1 h                                       0.9711070
   415   8 o      416   1 h                                       0.9907572
   415   8 o      417   1 h                                       0.9743849
   418   8 o      419   1 h                                       0.9691697
   418   8 o      420   1 h                                       0.9624391
   421   8 o      422   1 h                                       0.9816634
   421   8 o      423   1 h                                       0.9787644
   424   8 o      425   1 h                                       0.9816856
   424   8 o      426   1 h                                       0.9610901
   427   8 o      428   1 h                                       0.9629776
   427   8 o      429   1 h                                       0.9808777
   430   8 o      431   1 h                                       0.9830770
   430   8 o      432   1 h                                       0.9564800
   433   8 o      434   1 h                                       0.9890029
   433   8 o      435   1 h                                       0.9762110
   436   8 o      437   1 h                                       0.9825469
   436   8 o      438   1 h                                       0.9661462
   439   8 o      440   1 h                                       0.9728119
   439   8 o      441   1 h                                       0.9708100
   442   8 o      443   1 h                                       0.9741103
   442   8 o      444   1 h                                       0.9899437
   445   8 o      446   1 h                                       0.9929196
   445   8 o      447   1 h                                       0.9562547
   448   8 o      449   1 h                                       0.9721130
   448   8 o      450   1 h                                       0.9715505
   451   8 o      452   1 h                                       0.9697261
   451   8 o      453   1 h                                       0.9826482
   454   8 o      455   1 h                                       0.9726445
   454   8 o      456   1 h                                       0.9657290
   457   8 o      458   1 h                                       0.9586961
   457   8 o      459   1 h                                       0.9719730
   460   8 o      461   1 h                                       0.9833858
   460   8 o      462   1 h                                       0.9693359
   463   8 o      464   1 h                                       0.9803435
   463   8 o      465   1 h                                       0.9711817
   466   8 o      467   1 h                                       0.9748689
   466   8 o      468   1 h                                       0.9710111
   469   8 o      470   1 h                                       0.9641745
   469   8 o      471   1 h                                       0.9760145
   472   8 o      473   1 h                                       0.9580054
   472   8 o      474   1 h                                       0.9792237
   475   8 o      476   1 h                                       0.9769825
   475   8 o      477   1 h                                       0.9728444
   478   8 o      479   1 h                                       0.9699431
   478   8 o      480   1 h                                       0.9694184
   481   8 o      482   1 h                                       0.9754191
   481   8 o      483   1 h                                       0.9809172
   484   8 o      485   1 h                                       0.9685294
   484   8 o      486   1 h                                       0.9794025
   487   8 o      488   1 h                                       0.9568784
   487   8 o      489   1 h                                       0.9669932
   490   8 o      491   1 h                                       0.9733786
   490   8 o      492   1 h                                       0.9760878
   493   8 o      494   1 h                                       0.9834116
   493   8 o      495   1 h                                       0.9702546
   496   8 o      497   1 h                                       0.9837719
   496   8 o      498   1 h                                       0.9727680
   499   8 o      500   1 h                                       0.9845803
   499   8 o      501   1 h                                       0.9738034
   502   8 o      503   1 h                                       0.9597619
   502   8 o      504   1 h                                       0.9678783
   505   8 o      506   1 h                                       0.9704495
   505   8 o      507   1 h                                       0.9704506
   508   8 o      509   1 h                                       0.9880590
   508   8 o      510   1 h                                       0.9567123
   511   8 o      512   1 h                                       0.9700833
   511   8 o      513   1 h                                       0.9729739
   514   8 o      515   1 h                                       0.9742173
   514   8 o      516   1 h                                       0.9805886
   517   8 o      518   1 h                                       0.9819957
   517   8 o      519   1 h                                       0.9659846
   520   8 o      521   1 h                                       0.9631308
   520   8 o      522   1 h                                       0.9781694
   523   8 o      524   1 h                                       0.9630612
   523   8 o      525   1 h                                       0.9869857
   526   8 o      527   1 h                                       0.9615000
   526   8 o      528   1 h                                       0.9631745
   529   8 o      530   1 h                                       0.9765635
   529   8 o      531   1 h                                       0.9664899

 * 1 distinct bonds (by element types)

   Z      Z             #   av. dist./Å        max./Å        min./Å
   1 H    8 O         353     0.9735110     0.9964740     0.9558769


optimized geometry written to: xtbopt.coord


           -------------------------------------------------
          | TOTAL ENERGY             -901.182185444677 Eh   |
          | GRADIENT NORM               0.009148824455 Eh/α |
          | HOMO-LUMO GAP               6.316547476072 eV   |
           -------------------------------------------------

------------------------------------------------------------------------
 * finished run on 2022/11/17 at 06:51:12.590     
------------------------------------------------------------------------
 total:
 * wall-time:     0 d,  0 h,  2 min, 24.606 sec
 *  cpu-time:     0 d,  0 h,  3 min, 44.296 sec
 * ratio c/w:     1.551 speedup
 SCF:
 * wall-time:     0 d,  0 h,  0 min,  8.265 sec
 *  cpu-time:     0 d,  0 h,  0 min, 12.696 sec
 * ratio c/w:     1.536 speedup
 ANC optimizer:
 * wall-time:     0 d,  0 h,  2 min, 15.775 sec
 *  cpu-time:     0 d,  0 h,  3 min, 30.568 sec
 * ratio c/w:     1.551 speedup

