      -----------------------------------------------------------      
     |                   =====================                   |     
     |                           x T B                           |     
     |                   =====================                   |     
     |                         S. Grimme                         |     
     |          Mulliken Center for Theoretical Chemistry        |     
     |                    University of Bonn                     |     
      -----------------------------------------------------------      

   * xtb version 6.5.1 (579679a) compiled by 'ehlert@majestix' on 2022-07-11

   xtb is free software: you can redistribute it and/or modify it under
   the terms of the GNU Lesser General Public License as published by
   the Free Software Foundation, either version 3 of the License, or
   (at your option) any later version.
   
   xtb is distributed in the hope that it will be useful,
   but WITHOUT ANY WARRANTY; without even the implied warranty of
   MERCHANTABILITY or FITNESS FOR A PARTICULAR PURPOSE.  See the
   GNU Lesser General Public License for more details.
   
   Cite this work as:
   * C. Bannwarth, E. Caldeweyher, S. Ehlert, A. Hansen, P. Pracht,
     J. Seibert, S. Spicher, S. Grimme, WIREs Comput. Mol. Sci., 2020, 11,
     e01493. DOI: 10.1002/wcms.1493
   
   for GFN2-xTB:
   * C. Bannwarth, S. Ehlert and S. Grimme., J. Chem. Theory Comput., 2019,
     15, 1652-1671. DOI: 10.1021/acs.jctc.8b01176
   for GFN1-xTB:
   * S. Grimme, C. Bannwarth, P. Shushkov, J. Chem. Theory Comput., 2017,
     13, 1989-2009. DOI: 10.1021/acs.jctc.7b00118
   for GFN0-xTB:
   * P. Pracht, E. Caldeweyher, S. Ehlert, S. Grimme, ChemRxiv, 2019, preprint.
     DOI: 10.26434/chemrxiv.8326202.v1
   for GFN-FF:
   * S. Spicher and S. Grimme, Angew. Chem. Int. Ed., 2020, 59, 15665-15673.
     DOI: 10.1002/anie.202004239
   
   for ALPB and GBSA implicit solvation:
   * S. Ehlert, M. Stahn, S. Spicher, S. Grimme, J. Chem. Theory Comput.,
     2021, 17, 4250-4261. DOI: 10.1021/acs.jctc.1c00471
   
   for DFT-D4:
   * E. Caldeweyher, C. Bannwarth and S. Grimme, J. Chem. Phys., 2017,
     147, 034112. DOI: 10.1063/1.4993215
   * E. Caldeweyher, S. Ehlert, A. Hansen, H. Neugebauer, S. Spicher,
     C. Bannwarth and S. Grimme, J. Chem. Phys., 2019, 150, 154122.
     DOI: 10.1063/1.5090222
   * E. Caldeweyher, J.-M. Mewes, S. Ehlert and S. Grimme, Phys. Chem. Chem. Phys.
     2020, 22, 8499-8512. DOI: 10.1039/D0CP00502A
   
   for sTDA-xTB:
   * S. Grimme and C. Bannwarth, J. Chem. Phys., 2016, 145, 054103.
     DOI: 10.1063/1.4959605
   
   in the mass-spec context:
   * V. Asgeirsson, C. Bauer and S. Grimme, Chem. Sci., 2017, 8, 4879.
     DOI: 10.1039/c7sc00601b
   * J. Koopman and S. Grimme, ACS Omega 2019, 4, 12, 15120-15133.
     DOI: 10.1021/acsomega.9b02011
   
   for metadynamics refer to:
   * S. Grimme, J. Chem. Theory Comput., 2019, 155, 2847-2862
     DOI: 10.1021/acs.jctc.9b00143
   
   for SPH calculations refer to:
   * S. Spicher and S. Grimme, J. Chem. Theory Comput., 2021, 17, 1701-1714
     DOI: 10.1021/acs.jctc.0c01306
   
   with help from (in alphabetical order)
   P. Atkinson, C. Bannwarth, F. Bohle, G. Brandenburg, E. Caldeweyher
   M. Checinski, S. Dohm, S. Ehlert, S. Ehrlich, I. Gerasimov, C. Hölzer
   A. Katbashev, J. Koopman, C. Lavigne, S. Lehtola, F. März, M. Müller,
   F. Musil, H. Neugebauer, J. Pisarek, C. Plett, P. Pracht, F. Pultar,
   J. Seibert, P. Shushkov, S. Spicher, M. Stahn, M. Steiner, T. Strunk,
   J. Stückrath, T. Rose, and J. Unsleber
   
 * started run on 2022/11/17 at 06:54:59.739     

           -------------------------------------------------
          |                Calculation Setup                |
           -------------------------------------------------

          program call               : xtb solvent_cluster.coord --gfn2 --sp --lmo --chrg 0
          hostname                   : cn0363
          coordinate file            : solvent_cluster.coord
          omp threads                :                     2

   ID    Z sym.   atoms
    1    8 o      1, 4, 7, 10, 13, 16, 19, 22, 25, 28, 31, 34, 37, 40, 43,
                  46, 49, 52, 55, 58, 61, 64, 67, 70, 73, 76, 79, 82, 85, 88,
                  91, 94, 97, 100, 103, 106, 109, 112, 115, 118, 121, 124,
                  127, 130, 133, 136, 139, 142, 145, 148, 151, 154, 157, 160,
                  163, 166, 169, 172, 175, 178, 181, 184, 187, 190, 193, 196,
                  199, 202, 205, 208, 211, 214, 217, 220, 223, 226, 229, 232,
                  235, 238, 241, 244, 247, 250, 253, 256, 259, 262, 265, 268,
                  271, 274, 277, 280, 283, 286, 289, 292, 295, 298, 301, 304,
                  307, 310, 313, 316, 319, 322, 325, 328, 331, 334, 337, 340,
                  343, 346, 349, 352, 355, 358, 361, 364, 367, 370, 373, 376,
                  379, 382, 385, 388, 391, 394, 397, 400, 403, 406, 409, 412,
                  415, 418, 421, 424, 427, 430, 433, 436, 439, 442, 445, 448,
                  451, 454, 457, 460, 463, 466, 469, 472, 475, 478, 481, 484,
                  487, 490, 493, 496, 499, 502, 505, 508, 511, 514, 517, 520,
                  523, 526, 529
    2    1 h      2, 3, 5, 6, 8, 9, 11, 12, 14, 15, 17, 18, 20, 21, 23, 24,
                  26, 27, 29, 30, 32, 33, 35, 36, 38, 39, 41, 42, 44, 45, 47,
                  48, 50, 51, 53, 54, 56, 57, 59, 60, 62, 63, 65, 66, 68, 69,
                  71, 72, 74, 75, 77, 78, 80, 81, 83, 84, 86, 87, 89, 90, 92,
                  93, 95, 96, 98, 99, 101, 102, 104, 105, 107, 108, 110, 111,
                  113, 114, 116, 117, 119, 120, 122, 123, 125, 126, 128, 129,
                  131, 132, 134, 135, 137, 138, 140, 141, 143, 144, 146, 147,
                  149, 150, 152, 153, 155, 156, 158, 159, 161, 162, 164, 165,
                  167, 168, 170, 171, 173, 174, 176, 177, 179, 180, 182, 183,
                  185, 186, 188, 189, 191, 192, 194, 195, 197, 198, 200, 201,
                  203, 204, 206, 207, 209, 210, 212, 213, 215, 216, 218, 219,
                  221, 222, 224, 225, 227, 228, 230, 231, 233, 234, 236, 237,
                  239, 240, 242, 243, 245, 246, 248, 249, 251, 252, 254, 255,
                  257, 258, 260, 261, 263, 264, 266, 267, 269, 270, 272, 273,
                  275, 276, 278, 279, 281, 282, 284, 285, 287, 288, 290, 291,
                  293, 294, 296, 297, 299, 300, 302, 303, 305, 306, 308, 309,
                  311, 312, 314, 315, 317, 318, 320, 321, 323, 324, 326, 327,
                  329, 330, 332, 333, 335, 336, 338, 339, 341, 342, 344, 345,
                  347, 348, 350, 351, 353, 354, 356, 357, 359, 360, 362, 363,
                  365, 366, 368, 369, 371, 372, 374, 375, 377, 378, 380, 381,
                  383, 384, 386, 387, 389, 390, 392, 393, 395, 396, 398, 399,
                  401, 402, 404, 405, 407, 408, 410, 411, 413, 414, 416, 417,
                  419, 420, 422, 423, 425, 426, 428, 429, 431, 432, 434, 435,
                  437, 438, 440, 441, 443, 444, 446, 447, 449, 450, 452, 453,
                  455, 456, 458, 459, 461, 462, 464, 465, 467, 468, 470, 471,
                  473, 474, 476, 477, 479, 480, 482, 483, 485, 486, 488, 489,
                  491, 492, 494, 495, 497, 498, 500, 501, 503, 504, 506, 507,
                  509, 510, 512, 513, 515, 516, 518, 519, 521, 522, 524, 525,
                  527, 528, 530, 531

molecular fragmentation (1/2 indicates fragments):
111222222222222222222222222222222222222222222222222222222222222222222222
222222222222222222222222222222222222222222222222222222222222222222222222
222222222222222222222222222222222222222222222222222222222222222222222222
222222222222222222222222222222222222222222222222222222222222222222222222
222222222222222222222222222222222222222222222222222222222222222222222222
222222222222222222222222222222222222222222222222222222222222222222222222
222222222222222222222222222222222222222222222222222222222222222222222222
222222222222222222222222222
# atoms in fragment 1/2:     3   528
 fragment masses (1/2) :       18.02     3170.69
CMA distance (Bohr)    :   5.927
constraining FC (au)   :  0.0500

           -------------------------------------------------
          |                 G F N 2 - x T B                 |
           -------------------------------------------------

        Reference                      10.1021/acs.jctc.8b01176
      * Hamiltonian:
        H0-scaling (s, p, d)           1.850000    2.230000    2.230000
        zeta-weighting                 0.500000
      * Dispersion:
        s8                             2.700000
        a1                             0.520000
        a2                             5.000000
        s9                             5.000000
      * Repulsion:
        kExp                           1.500000    1.000000
        rExp                           1.000000
      * Coulomb:
        alpha                          2.000000
        third order                    shell-resolved
        anisotropic                    true
        a3                             3.000000
        a5                             4.000000
        cn-shift                       1.200000
        cn-exp                         4.000000
        max-rad                        5.000000


          ...................................................
          :                      SETUP                      :
          :.................................................:
          :  # basis functions                1062          :
          :  # atomic orbitals                1062          :
          :  # shells                          708          :
          :  # electrons                      1416          :
          :  max. iterations                   250          :
          :  Hamiltonian                  GFN2-xTB          :
          :  restarted?                      false          :
          :  GBSA solvation                  false          :
          :  PC potential                    false          :
          :  electronic temp.          300.0000000     K    :
          :  accuracy                    1.0000000          :
          :  -> integral cutoff          0.2500000E+02      :
          :  -> integral neglect         0.1000000E-07      :
          :  -> SCF convergence          0.1000000E-05 Eh   :
          :  -> wf. convergence          0.1000000E-03 e    :
          :  Broyden damping             0.4000000          :
          ...................................................

 iter      E             dE          RMSdq      gap      omega  full diag
   1   -906.5545190 -0.906555E+03  0.406E+00    8.50       0.0  T
   2   -906.6122456 -0.577265E-01  0.241E+00    7.50       1.0  T
   3   -906.6350557 -0.228102E-01  0.215E-01    5.95       1.0  T
   4   -906.6390395 -0.398379E-02  0.466E-02    6.33       1.0  T
   5   -906.6391086 -0.691293E-04  0.313E-02    6.28       1.0  T
   6   -906.6391379 -0.292361E-04  0.422E-03    6.32       1.0  T
   7   -906.6391396 -0.169326E-05  0.749E-04    6.32       5.8  T
   8   -906.6391396 -0.203546E-07  0.388E-04    6.32      11.2  T
   9   -906.6391396 -0.102712E-07  0.653E-05    6.32      66.4  T

   *** convergence criteria satisfied after 9 iterations ***

         #    Occupation            Energy/Eh            Energy/eV
      -------------------------------------------------------------
         1        2.0000           -0.7067232             -19.2309
       ...           ...                  ...                  ...
       702        2.0000           -0.3503824              -9.5344
       703        2.0000           -0.3469044              -9.4397
       704        2.0000           -0.3443083              -9.3691
       705        2.0000           -0.3407321              -9.2718
       706        2.0000           -0.3288458              -8.9483
       707        2.0000           -0.3169601              -8.6249
       708        2.0000           -0.3141640              -8.5488 (HOMO)
       709                         -0.0820376              -2.2324 (LUMO)
       710                         -0.0699790              -1.9042
       711                         -0.0522993              -1.4231
       712                         -0.0488571              -1.3295
       713                         -0.0445923              -1.2134
       ...                                ...                  ...
      1062                          0.4848079              13.1923
      -------------------------------------------------------------
                  HL-Gap            0.2321264 Eh            6.3165 eV
             Fermi-level           -0.1981008 Eh           -5.3906 eV
 
 localization/xTB-IFF output generation
 averaging CT terms over            2  occ. levels
 averaging CT terms over            1  virt. levels
 dipole moment from electron density (au)
     X       Y       Z   
   3.9336  -0.7322   0.2515  total (Debye):   10.190
cpu  time for init local    0.40 s
wall time for init local    0.20 s
 doing rotations ...
 initialization of trafo matrix to unity

 converged in     15 iterations, threshold :   0.99981767D-06
 doing transformations ...
 lmo centers(Z=2) and atoms on file <lmocent.coord>
 LMO Fii/eV  ncent    charge center   contributions...
    1 LP   *******   0.00   8.87835  -3.20061   2.30760  109O :  6.05  484O :  3.68   16O :  3.57  205O :  3.15  247O :  3.03  103O :  2.89  304O :  2.86  406O :  2.78  199O :  2.50   85O :  2.47  310O :  2.40  388O :  2.32
  394O :  2.32   43O :  2.28  496O :  2.12  430O :  2.08  154O :  2.07  529O :  2.00  340O :  1.96  403O :  1.91   10O :  1.86  454O :  1.83  208O :  1.72   97O :  1.70
  346O :  1.68  289O :  1.68  400O :  1.67  115O :  1.66   25O :  1.65  277O :  1.59  385O :  1.53  481O :  1.47   79O :  1.46    7O :  1.46  172O :  1.40  409O :  1.38
  412O :  1.38  475O :  1.37  142O :  1.37   52O :  1.35  337O :  1.33  265O :  1.32  526O :  1.31  163O :  1.29  367O :  1.27  463O :  1.24  136O :  1.19   28O :  1.19
  334O :  1.17   76O :  1.17  382O :  1.14  148O :  1.14  226O :  1.14  112O :  1.09   31O :  1.08   94O :  1.08  427O :  1.08   88O :  1.07  139O :  1.06  124O :  1.05
  472O :  1.05   82O :  1.04  133O :  1.04  325O :  1.03  457O :  1.02  508O :  1.00   37O :  1.00  259O :  0.98  523O :  0.96   70O :  0.95   73O :  0.95  505O :  0.94
   19O :  0.94  448O :  0.93  262O :  0.92  493O :  0.92  229O :  0.91  370O :  0.91  469O :  0.90  436O :  0.89  184O :  0.87  322O :  0.87   34O :  0.87  223O :  0.86
  502O :  0.84  175O :  0.84  517O :  0.84  238O :  0.84  439O :  0.83  244O :  0.75  121O :  0.75  298O :  0.74  499O :  0.74  160O :  0.74  379O :  0.72  250O :  0.71
  190O :  0.71   58O :  0.69  490O :  0.69  373O :  0.66  206H :  0.66  316O :  0.65  196O :  0.65  211O :  0.64  220O :  0.63    1O :  0.62  376O :  0.61  187O :  0.61
  424O :  0.60   40O :  0.59  460O :  0.59  217O :  0.58  169O :  0.58  118O :  0.58   91O :  0.54  253O :  0.54  352O :  0.54  151O :  0.51  331O :  0.51  256O :  0.51
  343O :  0.51   64O :  0.51  283O :  0.49   46O :  0.48  415O :  0.48   67O :  0.48  478O :  0.44  391O :  0.44  268O :  0.43  313O :  0.40  232O :  0.40  451O :  0.38
  358O :  0.38    4O :  0.37   55O :  0.37  271O :  0.37  387H :  0.37  466O :  0.37  349O :  0.37  421O :  0.36  301O :  0.36  241O :  0.35  249H :  0.35  111H :  0.35
  130O :  0.34  181O :  0.33  166O :  0.33  193O :  0.33  418O :  0.33  145O :  0.32  156H :  0.32  274O :  0.32  127O :  0.32  157O :  0.31  445O :  0.31  178O :  0.30
  286O :  0.30  104H :  0.30  209H :  0.30  355O :  0.28  520O :  0.28  295O :  0.28  384H :  0.27  364O :  0.26  433O :  0.26  312H :  0.25  214O :  0.24  135H :  0.23
   13O :  0.22   32H :  0.22  498H :  0.22  328O :  0.22  100O :  0.22  280O :  0.21   49O :  0.21  291H :  0.21  397O :  0.21  361O :  0.20   35H :  0.20  197H :  0.20
  292O :  0.19   38H :  0.19   92H :  0.19  395H :  0.19  405H :  0.19  473H :  0.19   21H :  0.18  461H :  0.18  327H :  0.17  470H :  0.17  485H :  0.17  227H :  0.17
  106O :  0.16  235O :  0.15  105H :  0.15  511O :  0.15  525H :  0.15  442O :  0.14  122H :  0.14   44H :  0.13  185H :  0.13  202O :  0.13  125H :  0.13  531H :  0.13
   53H :  0.13   61O :  0.13   39H :  0.12   71H :  0.12  143H :  0.12  411H :  0.12  528H :  0.12  231H :  0.12  110H :  0.12   66H :  0.12  408H :  0.12  171H :  0.12
  240H :  0.11  189H :  0.11  300H :  0.11  267H :  0.10  455H :  0.10  423H :  0.10  348H :  0.10  248H :  0.10  158H :  0.10   27H :  0.10  138H :  0.10  477H :  0.10
  401H :  0.09  471H :  0.09  252H :  0.09  278H :  0.09   78H :  0.09  332H :  0.09  450H :  0.09  402H :  0.09   26H :  0.09   42H :  0.08  183H :  0.08  245H :  0.08
   22O :  0.08    8H :  0.08  492H :  0.08  338H :  0.08   89H :  0.08  404H :  0.08  507H :  0.07   14H :  0.07  222H :  0.07  344H :  0.07  315H :  0.07  116H :  0.07
  524H :  0.07
    2 LP   *******   0.01   3.93598   1.30184   9.97391  103O :  4.67  484O :  3.04   16O :  2.95  109O :  2.73  205O :  2.60  247O :  2.50  304O :  2.36  406O :  2.30  199O :  2.07   85O :  2.04  310O :  1.98  388O :  1.92
  394O :  1.91   43O :  1.89  496O :  1.75  430O :  1.72  154O :  1.71  529O :  1.65  340O :  1.62  403O :  1.58   10O :  1.54  454O :  1.51  208O :  1.42  115O :  1.41
   97O :  1.40  346O :  1.39  289O :  1.38  400O :  1.38   25O :  1.37  277O :  1.32  385O :  1.27  481O :  1.21   79O :  1.21    7O :  1.19  172O :  1.16  409O :  1.14
  412O :  1.14  475O :  1.13  142O :  1.13   52O :  1.12  337O :  1.10  265O :  1.09  526O :  1.08  163O :  1.07  367O :  1.05  463O :  1.03  136O :  0.98   28O :  0.97
  334O :  0.96   76O :  0.96  382O :  0.94  148O :  0.94  226O :  0.94  427O :  0.90  112O :  0.90   31O :  0.90   94O :  0.89  139O :  0.88   88O :  0.88  472O :  0.87
  124O :  0.87   82O :  0.86  133O :  0.86  325O :  0.85  457O :  0.84  508O :  0.83   37O :  0.83  523O :  0.80  259O :  0.79   70O :  0.78   73O :  0.78  505O :  0.78
   19O :  0.77  448O :  0.77  262O :  0.76  493O :  0.76  229O :  0.76  370O :  0.75  469O :  0.74  436O :  0.74  184O :  0.72  322O :  0.72   34O :  0.71  223O :  0.71
  502O :  0.69  175O :  0.69  517O :  0.69  238O :  0.69  439O :  0.68  244O :  0.62  121O :  0.62  298O :  0.61  160O :  0.61  379O :  0.59  250O :  0.59  190O :  0.59
  499O :  0.58   58O :  0.57  490O :  0.57  373O :  0.55  206H :  0.54  196O :  0.54  316O :  0.53  211O :  0.53  220O :  0.52    1O :  0.51  376O :  0.51  187O :  0.51
  424O :  0.50   40O :  0.49  460O :  0.49  217O :  0.48  169O :  0.48  118O :  0.48   91O :  0.45  253O :  0.44  352O :  0.44  151O :  0.42  331O :  0.42  256O :  0.42
  343O :  0.42   64O :  0.42  415O :  0.41  283O :  0.41   46O :  0.40   67O :  0.39  478O :  0.36  391O :  0.36  268O :  0.36  232O :  0.33  313O :  0.33  451O :  0.32
  358O :  0.31   55O :  0.31    4O :  0.31  111H :  0.31  271O :  0.30  387H :  0.30  466O :  0.30  349O :  0.30  421O :  0.30  301O :  0.30  241O :  0.29  249H :  0.29
  127O :  0.28  130O :  0.27  181O :  0.27  166O :  0.27  193O :  0.27  418O :  0.27  145O :  0.27  156H :  0.27  274O :  0.26  157O :  0.26  445O :  0.26  178O :  0.25
  286O :  0.25  209H :  0.24  355O :  0.23  520O :  0.23  295O :  0.23  384H :  0.22  364O :  0.21  433O :  0.21  104H :  0.21  312H :  0.21  214O :  0.20  135H :  0.19
   13O :  0.19   32H :  0.18  498H :  0.18  328O :  0.18  100O :  0.18  280O :  0.18   49O :  0.17  291H :  0.17  397O :  0.17  361O :  0.17   35H :  0.16  197H :  0.16
  292O :  0.16   92H :  0.16  395H :  0.16   38H :  0.16  405H :  0.16  473H :  0.15  461H :  0.15   21H :  0.15  327H :  0.14  470H :  0.14  485H :  0.14  106O :  0.14
  227H :  0.14  235O :  0.13  511O :  0.12  525H :  0.12  116H :  0.12  442O :  0.12  122H :  0.11  202O :  0.11   44H :  0.11  110H :  0.11  185H :  0.11  125H :  0.11
  531H :  0.11   53H :  0.10   61O :  0.10   39H :  0.10   71H :  0.10  143H :  0.10  411H :  0.10  528H :  0.10  231H :  0.10   66H :  0.10  408H :  0.10  105H :  0.10
  171H :  0.09  240H :  0.09  189H :  0.09  300H :  0.09  267H :  0.09  455H :  0.09  423H :  0.08  348H :  0.08  248H :  0.08  158H :  0.08   27H :  0.08  138H :  0.08
  477H :  0.08  401H :  0.08  471H :  0.08  252H :  0.08  278H :  0.08   78H :  0.07  332H :  0.07  450H :  0.07  402H :  0.07   26H :  0.07
    3 LP   *******   0.01  -2.22950  -6.28932   2.67814  247O :  4.60  484O :  2.98   16O :  2.90  109O :  2.68  205O :  2.55  103O :  2.34  304O :  2.32  406O :  2.25  199O :  2.03   85O :  2.00  310O :  1.94  388O :  1.88
  394O :  1.88   43O :  1.85  496O :  1.72  430O :  1.69  154O :  1.67  529O :  1.62  340O :  1.59  403O :  1.55   10O :  1.51  454O :  1.48  208O :  1.39  115O :  1.39
   97O :  1.38  346O :  1.36  289O :  1.36  400O :  1.35   25O :  1.34  277O :  1.29  385O :  1.24  481O :  1.19   79O :  1.19    7O :  1.17  172O :  1.13  409O :  1.12
  412O :  1.12  475O :  1.11  142O :  1.11   52O :  1.10  337O :  1.08  265O :  1.07  526O :  1.06  163O :  1.05  367O :  1.03  463O :  1.01  136O :  0.96   28O :  0.96
  334O :  0.95   76O :  0.94  382O :  0.93  148O :  0.92  226O :  0.92  112O :  0.88  427O :  0.88   31O :  0.88   94O :  0.88   88O :  0.86  139O :  0.86  124O :  0.85
  472O :  0.85   82O :  0.85  133O :  0.84  325O :  0.84  457O :  0.82  508O :  0.81   37O :  0.81  523O :  0.78  259O :  0.78   70O :  0.77   73O :  0.77  505O :  0.76
   19O :  0.76  448O :  0.75  262O :  0.75  493O :  0.74  229O :  0.74  370O :  0.74  469O :  0.73  436O :  0.72  184O :  0.71  322O :  0.70   34O :  0.70  223O :  0.70
  502O :  0.68  517O :  0.68  238O :  0.68  439O :  0.67  175O :  0.64  244O :  0.61  121O :  0.61  298O :  0.60  160O :  0.60  499O :  0.60  379O :  0.58  250O :  0.58
  190O :  0.58  490O :  0.56   58O :  0.56  373O :  0.54  206H :  0.53  196O :  0.53  316O :  0.52  211O :  0.52  220O :  0.51    1O :  0.50  376O :  0.50  187O :  0.50
  424O :  0.49   40O :  0.48  460O :  0.48  217O :  0.47  169O :  0.47  118O :  0.47   91O :  0.44  352O :  0.44  253O :  0.44  151O :  0.41  331O :  0.41  256O :  0.41
  343O :  0.41   64O :  0.41  415O :  0.40  283O :  0.40   46O :  0.39   67O :  0.39  478O :  0.35  391O :  0.35  268O :  0.35  313O :  0.33  232O :  0.33  451O :  0.31
  358O :  0.30   55O :  0.30  111H :  0.30  387H :  0.30  271O :  0.30  466O :  0.30  349O :  0.30  421O :  0.29  301O :  0.29    4O :  0.29  241O :  0.29  127O :  0.28
  130O :  0.27  181O :  0.27  166O :  0.26  193O :  0.26  418O :  0.26  145O :  0.26  156H :  0.26  274O :  0.26  157O :  0.25  445O :  0.25  249H :  0.25  286O :  0.24
  178O :  0.24  104H :  0.24  209H :  0.24  355O :  0.23  520O :  0.23  295O :  0.22  384H :  0.22  364O :  0.21  433O :  0.21  312H :  0.20  214O :  0.19  135H :  0.18
   13O :  0.18   32H :  0.18  498H :  0.18  100O :  0.18  328O :  0.17  280O :  0.17   49O :  0.17  291H :  0.17  397O :  0.17  361O :  0.16   35H :  0.16  292O :  0.16
  197H :  0.16   38H :  0.16   92H :  0.16  395H :  0.16  405H :  0.15  473H :  0.15   21H :  0.15  461H :  0.15  327H :  0.14  470H :  0.14  485H :  0.14  106O :  0.13
  227H :  0.13  235O :  0.12  105H :  0.12  511O :  0.12  525H :  0.12  116H :  0.12  442O :  0.11  122H :  0.11   44H :  0.11  110H :  0.11  185H :  0.11  202O :  0.11
  125H :  0.11  531H :  0.10   53H :  0.10   61O :  0.10   39H :  0.10   71H :  0.10  143H :  0.10  411H :  0.10  231H :  0.10  528H :  0.10   66H :  0.10  408H :  0.09
  171H :  0.09  240H :  0.09  189H :  0.09  300H :  0.09  267H :  0.08  455H :  0.08  423H :  0.08  348H :  0.08  158H :  0.08   27H :  0.08  138H :  0.08  477H :  0.08
  401H :  0.08  471H :  0.08  252H :  0.08  278H :  0.07   78H :  0.07  332H :  0.07  450H :  0.07  402H :  0.07
    4 LP   *******   0.01  12.38020   7.67541  -1.52530  484O :  5.08   16O :  2.74  109O :  2.53  205O :  2.42  247O :  2.32  103O :  2.21  304O :  2.20  406O :  2.13  199O :  1.92   85O :  1.89  310O :  1.84  388O :  1.78
  394O :  1.78   43O :  1.75  430O :  1.60  154O :  1.59  496O :  1.57  529O :  1.53  340O :  1.50  403O :  1.46   10O :  1.43  454O :  1.40  208O :  1.32  115O :  1.31
   97O :  1.30  346O :  1.29  289O :  1.28  400O :  1.28   25O :  1.27  277O :  1.22  385O :  1.18  481O :  1.12   79O :  1.12    7O :  1.11  172O :  1.07  409O :  1.06
  412O :  1.06  475O :  1.05  142O :  1.05   52O :  1.04  337O :  1.02  265O :  1.01  526O :  1.00  163O :  0.99  367O :  0.97  463O :  0.95  136O :  0.91   28O :  0.91
  334O :  0.89   76O :  0.89  382O :  0.89  148O :  0.88  226O :  0.87  427O :  0.83  112O :  0.83   31O :  0.83   94O :  0.83   88O :  0.82  139O :  0.82  124O :  0.81
  472O :  0.80   82O :  0.80  325O :  0.79  133O :  0.79  457O :  0.78  508O :  0.77   37O :  0.77  523O :  0.74  259O :  0.74   70O :  0.73   73O :  0.73  505O :  0.73
   19O :  0.72  262O :  0.71  493O :  0.70  229O :  0.70  370O :  0.70  448O :  0.69  469O :  0.69  436O :  0.68  184O :  0.67  322O :  0.67   34O :  0.67  223O :  0.66
  502O :  0.64  175O :  0.64  517O :  0.64  238O :  0.64  439O :  0.63  244O :  0.58  121O :  0.57  298O :  0.57  499O :  0.57  160O :  0.57  379O :  0.55  250O :  0.55
  190O :  0.54   58O :  0.53  490O :  0.53  373O :  0.51  206H :  0.50  196O :  0.50  316O :  0.49  211O :  0.49  220O :  0.49    1O :  0.48  376O :  0.47  187O :  0.47
  424O :  0.46   40O :  0.45  460O :  0.45  217O :  0.45  169O :  0.45  118O :  0.44   91O :  0.41  253O :  0.41  352O :  0.41  151O :  0.39  331O :  0.39  256O :  0.39
   64O :  0.39  343O :  0.39  415O :  0.38  283O :  0.38   46O :  0.37   67O :  0.37  268O :  0.34  478O :  0.34  391O :  0.33  313O :  0.31  232O :  0.31  451O :  0.29
  358O :  0.29   55O :  0.28  111H :  0.28  271O :  0.28    4O :  0.28  466O :  0.28  387H :  0.28  421O :  0.28  301O :  0.28  349O :  0.27  241O :  0.27  249H :  0.27
  127O :  0.26  130O :  0.26  181O :  0.25  166O :  0.25  193O :  0.25  418O :  0.25  145O :  0.25  156H :  0.25  274O :  0.25  157O :  0.24  445O :  0.24  286O :  0.23
  178O :  0.23  104H :  0.23  209H :  0.23  355O :  0.22  520O :  0.22  295O :  0.21  364O :  0.20  433O :  0.20  312H :  0.19  214O :  0.18  384H :  0.18   13O :  0.17
  135H :  0.17   32H :  0.17  328O :  0.17  100O :  0.17  498H :  0.17  280O :  0.16   49O :  0.16  291H :  0.16  397O :  0.16  197H :  0.16  361O :  0.16   35H :  0.15
  292O :  0.15   38H :  0.15   92H :  0.15  395H :  0.15  405H :  0.15   21H :  0.14  473H :  0.14  461H :  0.14  327H :  0.13  470H :  0.13  227H :  0.13  106O :  0.13
  235O :  0.12  105H :  0.12  511O :  0.11  525H :  0.11  116H :  0.11  442O :  0.11  122H :  0.11   44H :  0.10  185H :  0.10  110H :  0.10  202O :  0.10  485H :  0.10
  125H :  0.10  531H :  0.10   53H :  0.10   61O :  0.10   39H :  0.10   71H :  0.10  143H :  0.09  411H :  0.09  528H :  0.09  231H :  0.09   66H :  0.09  408H :  0.09
  171H :  0.09  240H :  0.09  189H :  0.08  300H :  0.08  267H :  0.08  455H :  0.08  423H :  0.08  348H :  0.08  248H :  0.08  158H :  0.08   27H :  0.08  138H :  0.07
  477H :  0.07  401H :  0.07  471H :  0.07  252H :  0.07  278H :  0.07
    5 LP   *******   0.01   4.30522  -8.30664  -5.47068   16O :  4.82  484O :  2.79  109O :  2.50  205O :  2.39  247O :  2.29  103O :  2.19  304O :  2.17  406O :  2.12  199O :  1.90   85O :  1.87  310O :  1.82  388O :  1.76
  394O :  1.76   43O :  1.73  496O :  1.61  430O :  1.58  154O :  1.57  529O :  1.52  340O :  1.49  403O :  1.45  454O :  1.39   10O :  1.37  208O :  1.30  115O :  1.29
   97O :  1.29  346O :  1.27  289O :  1.27  400O :  1.26   25O :  1.25  277O :  1.21  385O :  1.16  481O :  1.11   79O :  1.11    7O :  1.09  172O :  1.06  409O :  1.05
  412O :  1.04  475O :  1.04  142O :  1.04   52O :  1.03  337O :  1.02  265O :  1.00  526O :  0.99  163O :  0.98  367O :  0.96  463O :  0.94  136O :  0.90   28O :  0.90
   76O :  0.89  334O :  0.88  382O :  0.87  148O :  0.87  226O :  0.86  112O :  0.82  427O :  0.82   31O :  0.82   94O :  0.82   88O :  0.81  139O :  0.81  124O :  0.80
  472O :  0.80   82O :  0.79  133O :  0.79  325O :  0.78  457O :  0.77  508O :  0.76   37O :  0.76  523O :  0.73  259O :  0.73   70O :  0.72   73O :  0.72  505O :  0.72
   19O :  0.71  448O :  0.70  262O :  0.70  493O :  0.70  229O :  0.69  370O :  0.69  469O :  0.68  436O :  0.68  184O :  0.66  322O :  0.66   34O :  0.66  223O :  0.66
  502O :  0.64  175O :  0.63  517O :  0.63  238O :  0.63  439O :  0.63  244O :  0.57  298O :  0.56  499O :  0.56  160O :  0.56  121O :  0.56  379O :  0.55  250O :  0.54
  190O :  0.54   58O :  0.52  490O :  0.52  373O :  0.50  206H :  0.50  196O :  0.49  316O :  0.49  211O :  0.48  220O :  0.48    1O :  0.47  376O :  0.47  187O :  0.46
  424O :  0.45   40O :  0.45  460O :  0.45  217O :  0.44  169O :  0.44  118O :  0.44   91O :  0.41  253O :  0.41  352O :  0.41  151O :  0.39  331O :  0.38  256O :  0.38
  343O :  0.38   64O :  0.38  415O :  0.38  283O :  0.37   46O :  0.37   67O :  0.36  478O :  0.33  391O :  0.33  268O :  0.33  313O :  0.31  232O :  0.31  451O :  0.29
  358O :  0.28   55O :  0.28  271O :  0.28  111H :  0.28  387H :  0.28  466O :  0.28    4O :  0.28  349O :  0.28  421O :  0.27  301O :  0.27  241O :  0.27  249H :  0.26
  127O :  0.26  130O :  0.25  181O :  0.25  166O :  0.25  193O :  0.25  418O :  0.25  145O :  0.25  156H :  0.24  274O :  0.24  157O :  0.24  445O :  0.23  178O :  0.23
  286O :  0.23  104H :  0.23  209H :  0.22  355O :  0.21  520O :  0.21  295O :  0.21  384H :  0.20  364O :  0.20  433O :  0.19  312H :  0.19  214O :  0.18  135H :  0.17
   13O :  0.17   32H :  0.17  498H :  0.17  100O :  0.16  328O :  0.16  280O :  0.16   49O :  0.16  291H :  0.16  397O :  0.16  361O :  0.15   35H :  0.15   92H :  0.15
  197H :  0.15  292O :  0.15   38H :  0.15  395H :  0.15  405H :  0.14   21H :  0.14  473H :  0.14  461H :  0.14  327H :  0.13  470H :  0.13  485H :  0.13  227H :  0.12
  106O :  0.12  235O :  0.12  105H :  0.11  511O :  0.11  525H :  0.11  116H :  0.11  442O :  0.11  122H :  0.11   44H :  0.10  110H :  0.10  185H :  0.10  202O :  0.10
  125H :  0.10  531H :  0.10   61O :  0.10   53H :  0.10   39H :  0.09  231H :  0.09   71H :  0.09  143H :  0.09  411H :  0.09  528H :  0.09   66H :  0.09  171H :  0.09
  408H :  0.09  240H :  0.08  189H :  0.08  300H :  0.08  267H :  0.08  455H :  0.08  423H :  0.08  348H :  0.08  248H :  0.08  158H :  0.08   27H :  0.07  138H :  0.07
  477H :  0.07  401H :  0.07  471H :  0.07  252H :  0.07   78H :  0.07
    6 LP   *******   0.01   5.43765  -8.50394  -9.46405  406O :  4.15  484O :  2.71   16O :  2.64  109O :  2.43  205O :  2.32  247O :  2.22  103O :  2.12  304O :  2.11  199O :  1.84   85O :  1.82  310O :  1.77  388O :  1.71
  394O :  1.70   43O :  1.68  496O :  1.56  430O :  1.53  154O :  1.52  529O :  1.47  340O :  1.44  403O :  1.40   10O :  1.37  454O :  1.34  208O :  1.26  115O :  1.26
   97O :  1.25  346O :  1.24  289O :  1.23  400O :  1.22   25O :  1.22  277O :  1.17  385O :  1.13  481O :  1.08   79O :  1.08    7O :  1.06  172O :  1.03  409O :  1.01
  412O :  1.01  475O :  1.01  142O :  1.00   52O :  1.00  337O :  0.98  265O :  0.97  526O :  0.96  163O :  0.95  367O :  0.94  463O :  0.91  136O :  0.87   28O :  0.87
  334O :  0.86   76O :  0.86  382O :  0.84  148O :  0.84  226O :  0.84  427O :  0.80  112O :  0.80   31O :  0.80   94O :  0.80   88O :  0.78  139O :  0.78  124O :  0.78
  472O :  0.77   82O :  0.77  133O :  0.76  325O :  0.76  457O :  0.75  508O :  0.74   37O :  0.74  523O :  0.71  259O :  0.71   70O :  0.70   73O :  0.70  505O :  0.70
   19O :  0.69  448O :  0.68  262O :  0.68  493O :  0.68  229O :  0.67  370O :  0.67  469O :  0.66  436O :  0.66  184O :  0.64  322O :  0.64   34O :  0.64  223O :  0.64
  502O :  0.62  175O :  0.62  517O :  0.61  238O :  0.61  439O :  0.61  244O :  0.56  121O :  0.55  298O :  0.55  499O :  0.55  160O :  0.55  379O :  0.53  250O :  0.53
  190O :  0.52  490O :  0.51   58O :  0.51  373O :  0.49  206H :  0.48  196O :  0.48  316O :  0.47  211O :  0.47  220O :  0.47    1O :  0.46  376O :  0.45  187O :  0.45
  424O :  0.44   40O :  0.43  460O :  0.43  217O :  0.43  169O :  0.43  118O :  0.43   91O :  0.41  253O :  0.40  352O :  0.39  151O :  0.37  331O :  0.37  256O :  0.37
  343O :  0.37   64O :  0.37  415O :  0.36  283O :  0.36   46O :  0.36   67O :  0.35  478O :  0.32  391O :  0.32  268O :  0.32  313O :  0.30  232O :  0.30  451O :  0.28
  358O :  0.28   55O :  0.27  111H :  0.27  271O :  0.27  387H :  0.27    4O :  0.27  466O :  0.27  349O :  0.27  421O :  0.27  301O :  0.27  241O :  0.26  249H :  0.26
  127O :  0.25  130O :  0.25  181O :  0.24  166O :  0.24  193O :  0.24  418O :  0.24  145O :  0.24  156H :  0.24  274O :  0.24   92H :  0.23  157O :  0.23  445O :  0.23
  178O :  0.22  286O :  0.22  104H :  0.22  209H :  0.22  355O :  0.21  520O :  0.21  295O :  0.20  384H :  0.20  364O :  0.19  433O :  0.19  312H :  0.18  214O :  0.17
  135H :  0.17   13O :  0.16   32H :  0.16  498H :  0.16  328O :  0.16  100O :  0.16  280O :  0.16   49O :  0.16  291H :  0.15  397O :  0.15  361O :  0.15   35H :  0.15
  292O :  0.14  197H :  0.14   38H :  0.14  395H :  0.14  405H :  0.14   21H :  0.14  473H :  0.14  461H :  0.13  327H :  0.13  470H :  0.12  485H :  0.12  106O :  0.12
  227H :  0.12  235O :  0.11  105H :  0.11  511O :  0.11  525H :  0.11  116H :  0.11  442O :  0.10  122H :  0.10   44H :  0.10  110H :  0.10  185H :  0.10  202O :  0.10
  125H :  0.10  531H :  0.09   53H :  0.09   61O :  0.09   39H :  0.09   71H :  0.09  143H :  0.09  411H :  0.09  528H :  0.09  231H :  0.09   66H :  0.09  171H :  0.08
  240H :  0.08  189H :  0.08  300H :  0.08  267H :  0.08  455H :  0.08  423H :  0.08  348H :  0.07  248H :  0.07  158H :  0.07   27H :  0.07  138H :  0.07  477H :  0.07
    7 LP   *******   0.01 -10.98846   1.15127  11.88332  205O :  4.05  484O :  2.65   16O :  2.57  109O :  2.38  247O :  2.18  103O :  2.08  304O :  2.06  406O :  2.00  199O :  1.80   85O :  1.78  310O :  1.73  388O :  1.68
  394O :  1.67   43O :  1.64  496O :  1.52  206H :  1.52  430O :  1.50  154O :  1.49  529O :  1.44  340O :  1.41  403O :  1.37   10O :  1.34  454O :  1.32  208O :  1.24
  115O :  1.23   97O :  1.22  346O :  1.21  289O :  1.21  400O :  1.20   25O :  1.19  277O :  1.15  385O :  1.10   79O :  1.06  481O :  1.05    7O :  1.04  172O :  1.01
  409O :  0.99  412O :  0.99  475O :  0.99  142O :  0.98   52O :  0.97  337O :  0.96  265O :  0.95  526O :  0.94  163O :  0.93  367O :  0.91  463O :  0.89  136O :  0.85
   28O :  0.85  334O :  0.84   76O :  0.84  382O :  0.82  148O :  0.82  226O :  0.82  427O :  0.78  112O :  0.78   31O :  0.78   94O :  0.78   88O :  0.77  139O :  0.77
  124O :  0.76  472O :  0.75   82O :  0.75  133O :  0.75  325O :  0.74  457O :  0.73  508O :  0.72   37O :  0.72  523O :  0.69  259O :  0.69   70O :  0.68   73O :  0.68
  505O :  0.68   19O :  0.68  448O :  0.67  262O :  0.66  493O :  0.66  229O :  0.66  370O :  0.66  469O :  0.65  436O :  0.64  184O :  0.63  322O :  0.62   34O :  0.62
  223O :  0.62  502O :  0.60  175O :  0.60  517O :  0.60  238O :  0.60  439O :  0.60  244O :  0.54  121O :  0.54  298O :  0.54  160O :  0.53  499O :  0.53  379O :  0.52
  250O :  0.51  190O :  0.51  490O :  0.50   58O :  0.50  373O :  0.48  196O :  0.47  316O :  0.46  211O :  0.46  220O :  0.46    1O :  0.45  376O :  0.44  187O :  0.44
  424O :  0.43   40O :  0.42  460O :  0.42  217O :  0.42  169O :  0.42  118O :  0.42   91O :  0.39  253O :  0.39  352O :  0.39  151O :  0.37  331O :  0.37  256O :  0.37
  343O :  0.36   64O :  0.36  283O :  0.36  415O :  0.36   46O :  0.35   67O :  0.34  478O :  0.32  391O :  0.31  268O :  0.31  313O :  0.29  232O :  0.29  451O :  0.28
  358O :  0.27   55O :  0.27  111H :  0.27  271O :  0.27  387H :  0.27    4O :  0.27  466O :  0.27  349O :  0.26  421O :  0.26  301O :  0.26  241O :  0.26  249H :  0.25
  127O :  0.25  130O :  0.24  181O :  0.24  166O :  0.23  193O :  0.23  418O :  0.23  145O :  0.23  156H :  0.23  274O :  0.23  157O :  0.23  445O :  0.22  178O :  0.22
  286O :  0.22  104H :  0.21  209H :  0.21  355O :  0.20  520O :  0.20  295O :  0.20  384H :  0.19  364O :  0.19  433O :  0.18  312H :  0.18  214O :  0.17  135H :  0.16
   13O :  0.16   32H :  0.16  498H :  0.16  328O :  0.16  100O :  0.16  280O :  0.15   49O :  0.15  291H :  0.15  397O :  0.15  361O :  0.15   35H :  0.14  292O :  0.14
  197H :  0.14   38H :  0.14   92H :  0.14  395H :  0.14  405H :  0.14   21H :  0.13  473H :  0.13  461H :  0.13  327H :  0.13  470H :  0.12  485H :  0.12  106O :  0.12
  227H :  0.12  235O :  0.11  105H :  0.11  511O :  0.11  525H :  0.11  116H :  0.11  442O :  0.10  122H :  0.10   44H :  0.10  110H :  0.10  185H :  0.10  202O :  0.10
  125H :  0.09  531H :  0.09   53H :  0.09   61O :  0.09   39H :  0.09   71H :  0.09  143H :  0.09  411H :  0.09  528H :  0.09  231H :  0.09   66H :  0.09  408H :  0.08
  171H :  0.08  240H :  0.08  189H :  0.08  300H :  0.08  267H :  0.08  455H :  0.07  423H :  0.07  348H :  0.07  248H :  0.07  158H :  0.07   27H :  0.07  138H :  0.07
    8 LP   *******   0.01 -13.41424   9.59379  -6.40020   85O :  4.06  484O :  2.58   16O :  2.51  109O :  2.32  205O :  2.21  247O :  2.12  103O :  2.02  304O :  2.01  406O :  1.95  199O :  1.76  310O :  1.68  388O :  1.63
  394O :  1.62   43O :  1.60  496O :  1.49  430O :  1.46  154O :  1.45  529O :  1.40  340O :  1.37  403O :  1.34   10O :  1.31  454O :  1.28  208O :  1.21  115O :  1.20
   97O :  1.19  346O :  1.18  289O :  1.17  400O :  1.17   25O :  1.16  277O :  1.12  385O :  1.08  481O :  1.03   79O :  1.03    7O :  1.01  172O :  0.98  409O :  0.97
  412O :  0.97  475O :  0.96  142O :  0.96   52O :  0.95  337O :  0.94  265O :  0.92  526O :  0.91  163O :  0.91  367O :  0.89  463O :  0.87  136O :  0.83   28O :  0.83
  334O :  0.82   76O :  0.82  382O :  0.80  148O :  0.80  226O :  0.80  427O :  0.76  112O :  0.76   31O :  0.76   94O :  0.76   88O :  0.75  139O :  0.75   82O :  0.74
  124O :  0.74  472O :  0.74  133O :  0.73  325O :  0.72  457O :  0.71  508O :  0.70   37O :  0.70  523O :  0.68  259O :  0.67   70O :  0.66   73O :  0.66  505O :  0.66
   19O :  0.66  448O :  0.65  262O :  0.65  229O :  0.64  370O :  0.64  493O :  0.63  469O :  0.63  436O :  0.63  184O :  0.61  322O :  0.61   34O :  0.61  223O :  0.61
  502O :  0.59  175O :  0.59  517O :  0.59  238O :  0.58  439O :  0.58  244O :  0.53  121O :  0.52  298O :  0.52  499O :  0.52  160O :  0.52  379O :  0.50  250O :  0.50
  190O :  0.50  490O :  0.48   58O :  0.48  373O :  0.46  206H :  0.46  196O :  0.46  316O :  0.45  211O :  0.45  220O :  0.44    1O :  0.44  376O :  0.43  187O :  0.43
  424O :  0.42   40O :  0.41  460O :  0.41  217O :  0.41  169O :  0.41  118O :  0.41  253O :  0.38   91O :  0.38  352O :  0.38  331O :  0.36  256O :  0.36  343O :  0.35
   64O :  0.35  151O :  0.35  415O :  0.35  283O :  0.34   46O :  0.34   67O :  0.33  478O :  0.31  391O :  0.31  268O :  0.30  313O :  0.28  232O :  0.28  451O :  0.27
  358O :  0.26   55O :  0.26  111H :  0.26  271O :  0.26  387H :  0.26    4O :  0.26  466O :  0.26  349O :  0.26  421O :  0.25  301O :  0.25  241O :  0.25  249H :  0.24
  127O :  0.24  130O :  0.24  181O :  0.23  166O :  0.23  193O :  0.23  418O :  0.23  145O :  0.23  156H :  0.22  274O :  0.22  157O :  0.22  445O :  0.22  178O :  0.21
  286O :  0.21  104H :  0.21  209H :  0.21  355O :  0.20  520O :  0.20  295O :  0.19  384H :  0.19  364O :  0.18  433O :  0.18  312H :  0.18  214O :  0.17  135H :  0.16
   13O :  0.16   32H :  0.16  498H :  0.15  328O :  0.15  100O :  0.15   49O :  0.15  280O :  0.15  291H :  0.15  397O :  0.15  361O :  0.14   35H :  0.14  292O :  0.14
  197H :  0.14   38H :  0.14   92H :  0.14  395H :  0.13  405H :  0.13   21H :  0.13  473H :  0.13  461H :  0.13  327H :  0.12  470H :  0.12  485H :  0.12  106O :  0.12
  227H :  0.12  235O :  0.11  105H :  0.11  511O :  0.10  525H :  0.10  116H :  0.10  442O :  0.10  122H :  0.10   44H :  0.09  110H :  0.09  185H :  0.09  202O :  0.09
  125H :  0.09   61O :  0.09  531H :  0.09   53H :  0.09   39H :  0.09   71H :  0.09  143H :  0.09  411H :  0.08  528H :  0.08  231H :  0.08   66H :  0.08  408H :  0.08
  171H :  0.08  240H :  0.08  189H :  0.08  300H :  0.08  267H :  0.07  455H :  0.07  348H :  0.07  248H :  0.07  158H :  0.07  423H :  0.07
    9 LP   *******   0.01  -0.48164   2.23097   5.00187  529O :  3.07  484O :  2.56   16O :  2.49  109O :  2.30  205O :  2.19  247O :  2.11  103O :  2.01  304O :  1.99  406O :  1.94  199O :  1.74   85O :  1.72  310O :  1.67
  388O :  1.62  394O :  1.61   43O :  1.59  496O :  1.48  430O :  1.45  154O :  1.44  340O :  1.37  403O :  1.33   10O :  1.30  454O :  1.27  115O :  1.19  208O :  1.19
   97O :  1.18  346O :  1.17  289O :  1.17  400O :  1.16   25O :  1.15  277O :  1.11  385O :  1.07  481O :  1.02   79O :  1.02    7O :  1.00  172O :  0.97  409O :  0.96
  412O :  0.96  475O :  0.95  142O :  0.95   52O :  0.94  337O :  0.93  265O :  0.91  526O :  0.91  163O :  0.90  367O :  0.89  463O :  0.87   28O :  0.84  136O :  0.83
  334O :  0.81   76O :  0.81  382O :  0.80  148O :  0.80  226O :  0.79  427O :  0.76  112O :  0.76   31O :  0.76   94O :  0.75   88O :  0.74  139O :  0.74  124O :  0.73
  472O :  0.73   82O :  0.73  325O :  0.72  133O :  0.72  457O :  0.71   37O :  0.71  508O :  0.70  523O :  0.67  259O :  0.67   70O :  0.66   73O :  0.66  505O :  0.66
   19O :  0.66  448O :  0.65  262O :  0.64  493O :  0.64  229O :  0.64  370O :  0.64  469O :  0.62  436O :  0.62  184O :  0.61  322O :  0.61   34O :  0.60  223O :  0.60
  502O :  0.58  175O :  0.58  517O :  0.58  238O :  0.58  439O :  0.58  244O :  0.53  121O :  0.52  298O :  0.52  499O :  0.52  160O :  0.52  379O :  0.50  250O :  0.50
  190O :  0.49   58O :  0.48  490O :  0.48  373O :  0.46  206H :  0.46  196O :  0.45  316O :  0.45  211O :  0.44  220O :  0.44    1O :  0.43  376O :  0.43  187O :  0.43
  424O :  0.42   40O :  0.42  460O :  0.41  217O :  0.41  169O :  0.40  118O :  0.40   91O :  0.38  253O :  0.37  352O :  0.37  151O :  0.35  331O :  0.35  256O :  0.35
   64O :  0.35  343O :  0.35  415O :  0.35  283O :  0.34   46O :  0.34   67O :  0.33  478O :  0.31  391O :  0.30  268O :  0.30  313O :  0.28  232O :  0.28  451O :  0.27
  358O :  0.26  111H :  0.26  271O :  0.26   55O :  0.26    4O :  0.26  387H :  0.26  466O :  0.26  349O :  0.25  421O :  0.25  301O :  0.25  241O :  0.25  249H :  0.24
  127O :  0.24  130O :  0.23  181O :  0.23  166O :  0.23  193O :  0.23  418O :  0.23  145O :  0.23  156H :  0.22  274O :  0.22  157O :  0.22  445O :  0.22  104H :  0.21
  209H :  0.21  178O :  0.21  286O :  0.21  355O :  0.20  520O :  0.20  295O :  0.19  384H :  0.19  364O :  0.18  433O :  0.18  312H :  0.18   38H :  0.17  214O :  0.17
  135H :  0.16   13O :  0.16   32H :  0.16  498H :  0.15  328O :  0.15  100O :  0.15  280O :  0.15   49O :  0.15  291H :  0.14  397O :  0.14  361O :  0.14   35H :  0.14
  292O :  0.14  197H :  0.14   92H :  0.13  395H :  0.13  405H :  0.13  473H :  0.13   21H :  0.13  461H :  0.13  327H :  0.12  470H :  0.12  485H :  0.12  106O :  0.11
  227H :  0.11  235O :  0.11  105H :  0.10  511O :  0.10  525H :  0.10  116H :  0.10  442O :  0.10  122H :  0.10   44H :  0.09  202O :  0.09  110H :  0.09  185H :  0.09
  125H :  0.09   53H :  0.09   61O :  0.09   71H :  0.09  528H :  0.09  143H :  0.08  411H :  0.08  231H :  0.08   66H :  0.08  408H :  0.08   39H :  0.08  171H :  0.08
  240H :  0.08  189H :  0.08  300H :  0.08  267H :  0.07  455H :  0.07  423H :  0.07  348H :  0.07  248H :  0.07  158H :  0.07
   10 LP   *******   0.01  -7.74164  -0.33841   2.60861  310O :  3.52  484O :  2.52   16O :  2.45  109O :  2.26  205O :  2.15  247O :  2.07  103O :  1.97  304O :  1.96  406O :  1.90  199O :  1.71   85O :  1.69  388O :  1.59
  394O :  1.58   43O :  1.56  496O :  1.45  430O :  1.42  154O :  1.41  529O :  1.37  340O :  1.34  403O :  1.31   10O :  1.27  454O :  1.25  115O :  1.17  208O :  1.17
   97O :  1.16  289O :  1.15  346O :  1.15  400O :  1.14   25O :  1.12  277O :  1.09  385O :  1.05   79O :  1.00  481O :  1.00    7O :  0.99  172O :  0.96  142O :  0.95
  409O :  0.94  412O :  0.94  475O :  0.94   52O :  0.93  337O :  0.91  265O :  0.90  526O :  0.89  163O :  0.89  367O :  0.87  463O :  0.85  136O :  0.81   28O :  0.81
  334O :  0.80   76O :  0.80  382O :  0.78  148O :  0.78  226O :  0.78  427O :  0.74  112O :  0.74   94O :  0.74   31O :  0.74  139O :  0.73   88O :  0.73  124O :  0.72
  472O :  0.72   82O :  0.71  133O :  0.71  325O :  0.71  457O :  0.70  508O :  0.69   37O :  0.68  523O :  0.66  259O :  0.66   70O :  0.65  505O :  0.65   19O :  0.64
   73O :  0.64  448O :  0.64  262O :  0.63  493O :  0.63  229O :  0.63  370O :  0.62  469O :  0.61  436O :  0.61  322O :  0.59  184O :  0.59   34O :  0.59  223O :  0.59
  502O :  0.57  517O :  0.57  238O :  0.57  439O :  0.57  175O :  0.55  244O :  0.52  121O :  0.51  298O :  0.51  160O :  0.51  499O :  0.51  379O :  0.49  250O :  0.49
  190O :  0.49   58O :  0.47  490O :  0.47  373O :  0.45  206H :  0.45  196O :  0.44  316O :  0.44  211O :  0.44  220O :  0.43    1O :  0.42  376O :  0.42  187O :  0.42
  424O :  0.41   40O :  0.40  460O :  0.40  217O :  0.40  169O :  0.40  118O :  0.40   91O :  0.37  253O :  0.37  352O :  0.37  151O :  0.35  331O :  0.35  256O :  0.35
  343O :  0.35   64O :  0.35  415O :  0.34  283O :  0.34   46O :  0.33   67O :  0.33  478O :  0.30  391O :  0.30  268O :  0.30  313O :  0.28  232O :  0.28  451O :  0.26
  358O :  0.26   55O :  0.25  111H :  0.25  387H :  0.25  271O :  0.25    4O :  0.25  466O :  0.25  349O :  0.25  421O :  0.25  301O :  0.25  241O :  0.24  249H :  0.24
  127O :  0.23  130O :  0.23  181O :  0.23  166O :  0.22  193O :  0.22  418O :  0.22  145O :  0.22  156H :  0.22  274O :  0.22  157O :  0.21  445O :  0.21  178O :  0.21
  286O :  0.21  104H :  0.20  209H :  0.20  143H :  0.19  355O :  0.19  520O :  0.19  295O :  0.19  384H :  0.18  364O :  0.18  433O :  0.17  214O :  0.16  135H :  0.16
   13O :  0.15   32H :  0.15  498H :  0.15  328O :  0.15  100O :  0.15  280O :  0.15   49O :  0.14  291H :  0.14  397O :  0.14  361O :  0.14   35H :  0.14  312H :  0.14
  292O :  0.13  197H :  0.13   38H :  0.13   92H :  0.13  395H :  0.13  405H :  0.13   21H :  0.13  473H :  0.13  461H :  0.12  327H :  0.12  470H :  0.12  485H :  0.12
  106O :  0.11  227H :  0.11  235O :  0.10  105H :  0.10  511O :  0.10  525H :  0.10  116H :  0.10  442O :  0.10  122H :  0.09   44H :  0.09  110H :  0.09  202O :  0.09
  185H :  0.09  125H :  0.09  531H :  0.09   53H :  0.09   61O :  0.09   39H :  0.09   71H :  0.09  411H :  0.08  528H :  0.08  231H :  0.08   66H :  0.08  408H :  0.08
  171H :  0.08  240H :  0.08  189H :  0.08  300H :  0.07  267H :  0.07  455H :  0.07  423H :  0.07
   11 LP   *******   0.01  -1.25114   2.80091  -4.39867   97O :  2.58  484O :  2.29   16O :  2.23  109O :  2.06  205O :  1.97  247O :  1.89  103O :  1.80  304O :  1.79  406O :  1.73  199O :  1.56   85O :  1.54  310O :  1.50
  388O :  1.45  394O :  1.44   43O :  1.42  496O :  1.32  430O :  1.30  154O :  1.29  529O :  1.25  340O :  1.22  403O :  1.19   10O :  1.16  454O :  1.14  115O :  1.07
  208O :  1.06  289O :  1.04  400O :  1.04  346O :  1.04   25O :  1.03  277O :  0.99  385O :  0.96  481O :  0.91   79O :  0.91    7O :  0.90  172O :  0.87  475O :  0.87
  409O :  0.86  412O :  0.86  142O :  0.85   52O :  0.84  337O :  0.83  265O :  0.82  526O :  0.81  163O :  0.81  367O :  0.79  463O :  0.78  136O :  0.74   28O :  0.74
  334O :  0.73   76O :  0.73  382O :  0.71  148O :  0.71  226O :  0.71  427O :  0.68  112O :  0.68   31O :  0.68   94O :  0.67   88O :  0.66  139O :  0.66  124O :  0.66
  472O :  0.65   82O :  0.65  133O :  0.65  325O :  0.65  457O :  0.64  508O :  0.63   37O :  0.62  523O :  0.60  259O :  0.60   70O :  0.59   73O :  0.59  505O :  0.59
   19O :  0.59  448O :  0.58  262O :  0.57  493O :  0.57  229O :  0.57  370O :  0.57  469O :  0.56  436O :  0.56  184O :  0.54  322O :  0.54   34O :  0.54  223O :  0.54
  175O :  0.52  502O :  0.52  517O :  0.52  238O :  0.52  439O :  0.52  244O :  0.47  121O :  0.47  298O :  0.46  499O :  0.46  160O :  0.46  379O :  0.45  250O :  0.45
  190O :  0.44  490O :  0.43   58O :  0.43  373O :  0.41  206H :  0.41  196O :  0.41  316O :  0.40  211O :  0.40  220O :  0.39    1O :  0.39  376O :  0.38  187O :  0.38
  424O :  0.37   40O :  0.37  460O :  0.37  217O :  0.36  169O :  0.36  118O :  0.36   91O :  0.34  253O :  0.34  352O :  0.33  151O :  0.32   64O :  0.32  331O :  0.32
  256O :  0.32  343O :  0.32  415O :  0.31  283O :  0.31   46O :  0.30   67O :  0.30  478O :  0.27  391O :  0.27  268O :  0.27  313O :  0.25  232O :  0.25  451O :  0.24
  358O :  0.23   55O :  0.23  111H :  0.23  271O :  0.23  387H :  0.23    4O :  0.23  466O :  0.23  349O :  0.23  421O :  0.23  301O :  0.22  241O :  0.22  249H :  0.22
  127O :  0.21  130O :  0.21  181O :  0.21  166O :  0.20  193O :  0.20  418O :  0.20  145O :  0.20  156H :  0.20  274O :  0.20  157O :  0.20  445O :  0.19  286O :  0.19
  178O :  0.19  104H :  0.19  209H :  0.19  355O :  0.18  520O :  0.18  295O :  0.17  384H :  0.17  364O :  0.16  433O :  0.16  312H :  0.16  214O :  0.15  135H :  0.14
   13O :  0.14   32H :  0.14  498H :  0.14  328O :  0.13  100O :  0.13  280O :  0.13   49O :  0.13  291H :  0.13  397O :  0.13  361O :  0.13   35H :  0.12  292O :  0.12
  197H :  0.12   38H :  0.12   92H :  0.12  395H :  0.12  405H :  0.12   21H :  0.12  473H :  0.12  461H :  0.11  327H :  0.11  470H :  0.11  485H :  0.11  106O :  0.10
  227H :  0.10  235O :  0.10  105H :  0.09  511O :  0.09  525H :  0.09  116H :  0.09  442O :  0.09  122H :  0.09   44H :  0.08  110H :  0.08  185H :  0.08  202O :  0.08
  125H :  0.08   66H :  0.08  531H :  0.08   53H :  0.08   61O :  0.08   39H :  0.08   71H :  0.08  143H :  0.08  411H :  0.08  231H :  0.07  528H :  0.07  408H :  0.07
  171H :  0.07  402H :  0.07
   12 LP   *******   0.01   1.57615 -15.16562  -3.48314  304O :  3.65  484O :  2.22   16O :  2.16  109O :  2.00  205O :  1.90  247O :  1.83  103O :  1.74  406O :  1.68  199O :  1.51   85O :  1.49  310O :  1.45  388O :  1.40
  394O :  1.40   43O :  1.38  496O :  1.28  430O :  1.26  154O :  1.25  529O :  1.21  340O :  1.18  403O :  1.15   10O :  1.12  454O :  1.10  208O :  1.04  115O :  1.03
   97O :  1.03  346O :  1.02  289O :  1.01  400O :  1.01   25O :  1.00  277O :  0.96  385O :  0.93  481O :  0.89   79O :  0.88    7O :  0.87  172O :  0.85  409O :  0.83
  412O :  0.83  475O :  0.83  142O :  0.83   52O :  0.82  337O :  0.81  265O :  0.79  526O :  0.79  163O :  0.78  367O :  0.77  463O :  0.75  136O :  0.72   28O :  0.72
  334O :  0.71   76O :  0.70  382O :  0.69  148O :  0.69  226O :  0.69  427O :  0.66  112O :  0.66   31O :  0.66   94O :  0.65   88O :  0.64  139O :  0.64  124O :  0.64
  472O :  0.63   82O :  0.63  133O :  0.63  325O :  0.62  457O :  0.62  508O :  0.61   37O :  0.60  523O :  0.58  259O :  0.58   70O :  0.57   73O :  0.57  505O :  0.57
   19O :  0.57  448O :  0.56  262O :  0.56  493O :  0.56  229O :  0.55  370O :  0.55  469O :  0.54  436O :  0.54  184O :  0.53  322O :  0.53   34O :  0.52  223O :  0.52
  502O :  0.51  175O :  0.51  517O :  0.50  238O :  0.50  439O :  0.50  244O :  0.46  121O :  0.45  298O :  0.45  499O :  0.45  160O :  0.45  379O :  0.43  250O :  0.43
  190O :  0.43  490O :  0.42   58O :  0.42  373O :  0.40  206H :  0.40  196O :  0.39  316O :  0.39  211O :  0.39  220O :  0.38    1O :  0.38  376O :  0.37  187O :  0.37
  424O :  0.36   40O :  0.36  460O :  0.36  217O :  0.35  169O :  0.35  118O :  0.35   91O :  0.33  253O :  0.32  352O :  0.32  151O :  0.31  331O :  0.31  256O :  0.31
  343O :  0.31   64O :  0.31  415O :  0.30  283O :  0.30   46O :  0.29   67O :  0.29  478O :  0.26  391O :  0.26  268O :  0.26  313O :  0.24  232O :  0.24  451O :  0.23
  358O :  0.23   55O :  0.22  271O :  0.22  111H :  0.22  387H :  0.22    4O :  0.22  466O :  0.22  349O :  0.22  421O :  0.22  301O :  0.22  241O :  0.21  249H :  0.21
  127O :  0.21  130O :  0.20  181O :  0.20  166O :  0.20  193O :  0.20  418O :  0.20  145O :  0.20  156H :  0.19  274O :  0.19  157O :  0.19  445O :  0.19  178O :  0.18
  286O :  0.18  104H :  0.18  209H :  0.18  355O :  0.18  520O :  0.17  295O :  0.17  384H :  0.16  364O :  0.16  433O :  0.15  312H :  0.15  214O :  0.14  100O :  0.14
  135H :  0.14   13O :  0.14   32H :  0.14  498H :  0.13  328O :  0.13  280O :  0.13   49O :  0.13  291H :  0.13  397O :  0.13  361O :  0.12   35H :  0.12  292O :  0.12
  197H :  0.12   38H :  0.12   92H :  0.12  395H :  0.12  405H :  0.11   21H :  0.11  473H :  0.11  461H :  0.11  106O :  0.11  327H :  0.11  470H :  0.10  485H :  0.10
  227H :  0.10  235O :  0.09  105H :  0.09  511O :  0.09  525H :  0.09  116H :  0.09  442O :  0.08  122H :  0.08   44H :  0.08  110H :  0.08  185H :  0.08  202O :  0.08
  125H :  0.08  531H :  0.08   53H :  0.08   61O :  0.08   39H :  0.08   71H :  0.08  143H :  0.07  411H :  0.07  528H :  0.07  231H :  0.07   66H :  0.07  408H :  0.07
   13 LP   *******   0.01   2.15591   2.98094  13.59698  154O :  3.07  484O :  2.17   16O :  2.11  109O :  1.95  205O :  1.86  247O :  1.78  103O :  1.71  304O :  1.69  406O :  1.64  199O :  1.48   85O :  1.46  310O :  1.42
  388O :  1.37  394O :  1.37   43O :  1.35  496O :  1.25  430O :  1.23  529O :  1.18  340O :  1.16  403O :  1.13   10O :  1.10  454O :  1.08  208O :  1.01  115O :  1.01
   97O :  1.00  346O :  0.99  289O :  0.99  400O :  0.98   25O :  0.98  277O :  0.94  385O :  0.91   79O :  0.87  481O :  0.86    7O :  0.85  172O :  0.83  409O :  0.81
  412O :  0.81  475O :  0.81  142O :  0.81   52O :  0.80  337O :  0.79  265O :  0.78  526O :  0.77  163O :  0.76  367O :  0.75  463O :  0.73  136O :  0.70   28O :  0.70
  334O :  0.69   76O :  0.69  382O :  0.67  148O :  0.67  226O :  0.67  427O :  0.64  112O :  0.64   31O :  0.64   94O :  0.64   88O :  0.63  139O :  0.63  124O :  0.62
  472O :  0.62   82O :  0.62  133O :  0.61  325O :  0.61  457O :  0.60  508O :  0.59   37O :  0.59  523O :  0.57  259O :  0.57   70O :  0.56   73O :  0.56  505O :  0.56
   19O :  0.55  448O :  0.55  262O :  0.54  493O :  0.54  229O :  0.54  370O :  0.54  469O :  0.53  436O :  0.53  184O :  0.51  322O :  0.51   34O :  0.51  223O :  0.51
  502O :  0.49  175O :  0.49  517O :  0.49  238O :  0.49  439O :  0.49  244O :  0.45  121O :  0.44  298O :  0.44  160O :  0.44  499O :  0.43  379O :  0.42  250O :  0.42
  190O :  0.42  490O :  0.41   58O :  0.41  373O :  0.39  206H :  0.39  196O :  0.38  316O :  0.38  211O :  0.38  220O :  0.37    1O :  0.37  376O :  0.36  187O :  0.36
  424O :  0.35   40O :  0.35  460O :  0.35  217O :  0.34  169O :  0.34  118O :  0.34   91O :  0.32  253O :  0.32  352O :  0.32  151O :  0.30  331O :  0.30  256O :  0.30
  343O :  0.30   64O :  0.30  415O :  0.29  283O :  0.29   46O :  0.29   67O :  0.28  478O :  0.26  391O :  0.26  268O :  0.26  313O :  0.24  232O :  0.24  451O :  0.23
  358O :  0.22   55O :  0.22  111H :  0.22  271O :  0.22  387H :  0.22    4O :  0.22  466O :  0.22  349O :  0.22  421O :  0.21  301O :  0.21  241O :  0.21  130O :  0.21
  249H :  0.21  127O :  0.20  181O :  0.19  166O :  0.19  193O :  0.19  418O :  0.19  145O :  0.19  274O :  0.19  157O :  0.18  445O :  0.18  104H :  0.18  178O :  0.18
  286O :  0.18  209H :  0.17  355O :  0.17  520O :  0.17  295O :  0.16  156H :  0.16  384H :  0.16  364O :  0.15  433O :  0.15  312H :  0.15  214O :  0.14  135H :  0.13
   13O :  0.13   32H :  0.13  498H :  0.13  328O :  0.13  100O :  0.13  280O :  0.13   49O :  0.12  291H :  0.12  397O :  0.12  361O :  0.12   35H :  0.12  292O :  0.12
  197H :  0.12   38H :  0.11   92H :  0.11  395H :  0.11  405H :  0.11   21H :  0.11  473H :  0.11  461H :  0.11  327H :  0.10  470H :  0.10  485H :  0.10  106O :  0.10
  227H :  0.10  105H :  0.09  235O :  0.09  511O :  0.09  116H :  0.09  525H :  0.08  442O :  0.08  122H :  0.08  202O :  0.08   44H :  0.08  110H :  0.08  185H :  0.08
  125H :  0.08  531H :  0.08   53H :  0.07   61O :  0.07   39H :  0.07   71H :  0.07  143H :  0.07  411H :  0.07  528H :  0.07  231H :  0.07   66H :  0.07
   14 LP   *******   0.01  -9.02417  -1.91649  13.72351  205O :  3.91  484O :  2.12   16O :  2.06  109O :  1.91  247O :  1.74  103O :  1.67  304O :  1.65  406O :  1.60  199O :  1.45   85O :  1.43  310O :  1.39  388O :  1.35
  394O :  1.34   43O :  1.32  496O :  1.22  430O :  1.20  154O :  1.19  529O :  1.15  340O :  1.13  403O :  1.10   10O :  1.07  454O :  1.05  208O :  0.99  115O :  0.99
   97O :  0.98  346O :  0.97  289O :  0.97  400O :  0.96   25O :  0.95  277O :  0.92  385O :  0.88   79O :  0.85  481O :  0.84    7O :  0.83  172O :  0.81  409O :  0.80
  412O :  0.79  475O :  0.79  142O :  0.79   52O :  0.78  337O :  0.77  265O :  0.76  526O :  0.75  163O :  0.75  367O :  0.73  463O :  0.72  136O :  0.69   28O :  0.68
  334O :  0.67   76O :  0.67  382O :  0.66  148O :  0.66  226O :  0.66  427O :  0.63  112O :  0.63   31O :  0.63   94O :  0.62   88O :  0.62  139O :  0.61  124O :  0.61
  472O :  0.61   82O :  0.60  133O :  0.60  325O :  0.60  457O :  0.59  508O :  0.58   37O :  0.58  523O :  0.56  259O :  0.55   70O :  0.55   73O :  0.55  505O :  0.55
   19O :  0.54  448O :  0.54  262O :  0.53  493O :  0.53  229O :  0.53  370O :  0.53  469O :  0.52  436O :  0.51  184O :  0.50  322O :  0.50   34O :  0.50  223O :  0.50
  502O :  0.48  175O :  0.48  517O :  0.48  238O :  0.48  439O :  0.48  244O :  0.44  121O :  0.43  298O :  0.43  160O :  0.43  499O :  0.43  379O :  0.42  250O :  0.41
  190O :  0.41  490O :  0.40   58O :  0.40  373O :  0.38  196O :  0.38  316O :  0.37  211O :  0.37  220O :  0.37  206H :  0.36    1O :  0.36  376O :  0.35  187O :  0.35
  424O :  0.35   40O :  0.34  460O :  0.34  217O :  0.34  169O :  0.34  118O :  0.33   91O :  0.31  253O :  0.31  352O :  0.31  151O :  0.29  331O :  0.29  256O :  0.29
  343O :  0.29   64O :  0.29  415O :  0.29   46O :  0.28   67O :  0.27  283O :  0.26  478O :  0.25  391O :  0.25  268O :  0.25  313O :  0.23  232O :  0.23  451O :  0.22
  358O :  0.22   55O :  0.21  111H :  0.21  271O :  0.21  387H :  0.21    4O :  0.21  466O :  0.21  349O :  0.21  421O :  0.21  301O :  0.21  241O :  0.20  249H :  0.20
  127O :  0.20  130O :  0.19  181O :  0.19  166O :  0.19  193O :  0.19  418O :  0.19  145O :  0.19  156H :  0.19  274O :  0.18  157O :  0.18  445O :  0.18  286O :  0.17
  178O :  0.17  104H :  0.17  209H :  0.17  355O :  0.16  520O :  0.16  295O :  0.16  384H :  0.16  364O :  0.15  433O :  0.15  312H :  0.14  214O :  0.14  135H :  0.13
   32H :  0.13  498H :  0.13  328O :  0.12  100O :  0.12  280O :  0.12   49O :  0.12  291H :  0.12  397O :  0.12   13O :  0.12  361O :  0.12   35H :  0.11  292O :  0.11
  197H :  0.11   38H :  0.11   92H :  0.11  395H :  0.11  405H :  0.11   21H :  0.11  473H :  0.11  461H :  0.10  327H :  0.10  470H :  0.10  485H :  0.10  106O :  0.09
  227H :  0.09  235O :  0.09  105H :  0.09  511O :  0.09  525H :  0.09  116H :  0.08  442O :  0.08  122H :  0.08   44H :  0.08  110H :  0.08  185H :  0.08  202O :  0.08
  125H :  0.08  531H :  0.07   53H :  0.07   61O :  0.07   39H :  0.07   71H :  0.07  143H :  0.07
   15 LP   *******   0.01 -13.08315  -6.29314  -6.79484  394O :  3.16  484O :  2.12   16O :  2.06  109O :  1.91  205O :  1.82  247O :  1.75  103O :  1.67  304O :  1.65  406O :  1.60  199O :  1.45   85O :  1.43  310O :  1.39
  388O :  1.34   43O :  1.32  496O :  1.22  430O :  1.20  154O :  1.19  529O :  1.15  340O :  1.13  403O :  1.10   10O :  1.08  454O :  1.06  208O :  0.99  115O :  0.99
   97O :  0.98  346O :  0.97  289O :  0.97  400O :  0.96   25O :  0.95  277O :  0.92  385O :  0.89  481O :  0.85   79O :  0.84    7O :  0.83  172O :  0.81  409O :  0.80
  412O :  0.80  475O :  0.79  142O :  0.79   52O :  0.78  337O :  0.77  265O :  0.76  526O :  0.75  163O :  0.75  367O :  0.73  463O :  0.72  136O :  0.69   28O :  0.68
  334O :  0.67   76O :  0.67  382O :  0.66  148O :  0.66  226O :  0.66  427O :  0.63  112O :  0.63   31O :  0.63   88O :  0.62  139O :  0.61   94O :  0.61  124O :  0.61
  472O :  0.61   82O :  0.60  133O :  0.60  325O :  0.60  457O :  0.59  508O :  0.58   37O :  0.58  523O :  0.56  259O :  0.55   70O :  0.55   73O :  0.55  505O :  0.55
   19O :  0.54  448O :  0.54  262O :  0.53  493O :  0.53  229O :  0.53  469O :  0.52  436O :  0.52  370O :  0.51  184O :  0.50  322O :  0.50  223O :  0.50   34O :  0.50
  502O :  0.48  175O :  0.48  517O :  0.48  238O :  0.48  439O :  0.48  244O :  0.44  121O :  0.43  298O :  0.43  499O :  0.43  160O :  0.43  379O :  0.42  250O :  0.41
  190O :  0.41  490O :  0.40   58O :  0.40  206H :  0.38  196O :  0.38  373O :  0.37  316O :  0.37  211O :  0.37  220O :  0.37    1O :  0.36  376O :  0.35  187O :  0.35
  424O :  0.35   40O :  0.34  460O :  0.34  217O :  0.34  169O :  0.34  118O :  0.33   91O :  0.31  253O :  0.31  352O :  0.31  151O :  0.29  331O :  0.29  256O :  0.29
  343O :  0.29   64O :  0.29  415O :  0.29  283O :  0.28   46O :  0.28   67O :  0.27  478O :  0.25  391O :  0.25  268O :  0.25  313O :  0.23  232O :  0.23  451O :  0.22
  358O :  0.22   55O :  0.21  111H :  0.21  271O :  0.21  387H :  0.21    4O :  0.21  466O :  0.21  349O :  0.21  421O :  0.21  301O :  0.21  241O :  0.20  249H :  0.20
  127O :  0.20  130O :  0.19  181O :  0.19  166O :  0.19  193O :  0.19  418O :  0.19  145O :  0.19  156H :  0.19  274O :  0.18  157O :  0.18  445O :  0.18  178O :  0.17
  286O :  0.17  104H :  0.17  209H :  0.17  355O :  0.16  520O :  0.16  295O :  0.16  384H :  0.16  364O :  0.15  433O :  0.15  312H :  0.14  214O :  0.14  135H :  0.13
   13O :  0.13   32H :  0.13  498H :  0.13  328O :  0.12  100O :  0.12  280O :  0.12   49O :  0.12  291H :  0.12  361O :  0.12   35H :  0.11  397O :  0.11  292O :  0.11
  197H :  0.11   38H :  0.11   92H :  0.11  405H :  0.11   21H :  0.11  473H :  0.11  461H :  0.10  327H :  0.10  395H :  0.10  470H :  0.10  485H :  0.10  106O :  0.10
  227H :  0.09  235O :  0.09  105H :  0.09  511O :  0.09  525H :  0.09  116H :  0.08  442O :  0.08  122H :  0.08   44H :  0.08  110H :  0.08  185H :  0.08  202O :  0.08
  125H :  0.08  531H :  0.07   53H :  0.07   61O :  0.07   39H :  0.07   71H :  0.07  143H :  0.07
   16 LP   *******   0.01   4.33731 -11.64761   6.54068  340O :  3.08  484O :  2.05   16O :  1.99  109O :  1.84  205O :  1.76  247O :  1.69  103O :  1.61  304O :  1.60  406O :  1.55  199O :  1.40   85O :  1.38  310O :  1.34
  388O :  1.29  394O :  1.29   43O :  1.27  496O :  1.18  430O :  1.16  154O :  1.15  529O :  1.12  403O :  1.07   10O :  1.04  454O :  1.02  208O :  0.96  115O :  0.95
   97O :  0.95  346O :  0.94  289O :  0.93  400O :  0.93   25O :  0.92  277O :  0.87  385O :  0.86  481O :  0.82   79O :  0.82    7O :  0.81  172O :  0.78  409O :  0.77
  412O :  0.77  475O :  0.76  142O :  0.76   52O :  0.75  337O :  0.74  265O :  0.73  526O :  0.73  163O :  0.72  367O :  0.71  463O :  0.69  136O :  0.66   28O :  0.66
  334O :  0.65   76O :  0.65  382O :  0.64  148O :  0.64  226O :  0.64  427O :  0.61  112O :  0.61   31O :  0.61   94O :  0.60   88O :  0.59  139O :  0.59  124O :  0.59
  472O :  0.59   82O :  0.58  133O :  0.58  325O :  0.58  457O :  0.57  508O :  0.56   37O :  0.56  523O :  0.54  259O :  0.54  505O :  0.53   70O :  0.53   73O :  0.53
   19O :  0.52  448O :  0.52  262O :  0.51  493O :  0.51  229O :  0.51  370O :  0.51  469O :  0.50  436O :  0.50  184O :  0.49  322O :  0.48   34O :  0.48  223O :  0.48
  502O :  0.47  175O :  0.47  517O :  0.47  238O :  0.47  439O :  0.46  244O :  0.42  121O :  0.42  298O :  0.42  499O :  0.41  160O :  0.41  379O :  0.40  250O :  0.40
  190O :  0.40   58O :  0.38  490O :  0.38  373O :  0.37  206H :  0.37  196O :  0.36  316O :  0.36  211O :  0.36  220O :  0.35    1O :  0.35  376O :  0.34  187O :  0.34
  424O :  0.33   40O :  0.33  460O :  0.33  217O :  0.33  169O :  0.32  118O :  0.32   91O :  0.30  253O :  0.30  352O :  0.30  151O :  0.28  331O :  0.28  256O :  0.28
  343O :  0.28   64O :  0.28  415O :  0.28  283O :  0.27   46O :  0.27   67O :  0.27  478O :  0.24  391O :  0.24  268O :  0.24  232O :  0.22  313O :  0.22  451O :  0.21
  358O :  0.21    4O :  0.21   55O :  0.21  111H :  0.21  271O :  0.21  387H :  0.21  466O :  0.21  349O :  0.20  421O :  0.20  301O :  0.20  241O :  0.20  249H :  0.19
  127O :  0.19  130O :  0.19  181O :  0.18  166O :  0.18  193O :  0.18  418O :  0.18  145O :  0.18  156H :  0.18  274O :  0.18  157O :  0.17  445O :  0.17  178O :  0.17
  286O :  0.17  104H :  0.17  209H :  0.17  355O :  0.16  520O :  0.16  295O :  0.15  384H :  0.15  364O :  0.14  433O :  0.14  312H :  0.14  214O :  0.13  135H :  0.13
   13O :  0.13   32H :  0.12  498H :  0.12  328O :  0.12  100O :  0.12  280O :  0.12   49O :  0.12  291H :  0.12  397O :  0.12  361O :  0.11   35H :  0.11  292O :  0.11
  197H :  0.11   38H :  0.11   92H :  0.11  395H :  0.11  405H :  0.11  473H :  0.10  461H :  0.10   21H :  0.10  327H :  0.10  470H :  0.09  485H :  0.09  106O :  0.09
  227H :  0.09  235O :  0.09  105H :  0.08  511O :  0.08  525H :  0.08  116H :  0.08  442O :  0.08  122H :  0.08   44H :  0.07  110H :  0.07  185H :  0.07  202O :  0.07
  125H :  0.07  531H :  0.07   53H :  0.07   61O :  0.07
   17 LP   *******   0.01  -3.06419   2.81628   0.78395  208O :  2.38  484O :  2.05   16O :  1.99  109O :  1.84  205O :  1.75  247O :  1.68  103O :  1.61  304O :  1.59  406O :  1.55  199O :  1.39   85O :  1.38  310O :  1.32
  388O :  1.29  394O :  1.29   43O :  1.27  496O :  1.18  430O :  1.16  154O :  1.15  529O :  1.09  340O :  1.09  403O :  1.06   10O :  1.04  454O :  1.02  346O :  0.96
  115O :  0.95  289O :  0.93   97O :  0.93  400O :  0.93   25O :  0.92  277O :  0.89  385O :  0.85  481O :  0.82   79O :  0.82    7O :  0.80  172O :  0.78  409O :  0.77
  412O :  0.77  475O :  0.77  142O :  0.76   52O :  0.75  337O :  0.74  265O :  0.73  526O :  0.72  163O :  0.72  367O :  0.71  463O :  0.69  136O :  0.66   28O :  0.66
  334O :  0.65   76O :  0.65  382O :  0.64  148O :  0.64  226O :  0.63  427O :  0.61  112O :  0.60   94O :  0.60   31O :  0.60  139O :  0.59   88O :  0.59  124O :  0.59
  472O :  0.58   82O :  0.58  133O :  0.58  325O :  0.57  457O :  0.57  508O :  0.56   37O :  0.56  523O :  0.54  259O :  0.53   73O :  0.53   70O :  0.53  505O :  0.53
   19O :  0.52  448O :  0.52  262O :  0.51  493O :  0.51  229O :  0.51  370O :  0.51  469O :  0.50  436O :  0.50  184O :  0.49  322O :  0.48   34O :  0.48  223O :  0.48
  502O :  0.47  175O :  0.47  517O :  0.46  238O :  0.46  439O :  0.46  244O :  0.42  121O :  0.42  298O :  0.41  160O :  0.41  499O :  0.41  379O :  0.40  250O :  0.40
  190O :  0.40  490O :  0.38   58O :  0.38  373O :  0.37  206H :  0.37  196O :  0.36  316O :  0.36  211O :  0.36  220O :  0.35    1O :  0.35  376O :  0.34  187O :  0.34
  424O :  0.33   40O :  0.33  460O :  0.33  217O :  0.33  169O :  0.32  118O :  0.32   91O :  0.30  253O :  0.30  352O :  0.30  151O :  0.28  256O :  0.28  331O :  0.28
   64O :  0.28  343O :  0.28  415O :  0.28  283O :  0.27   46O :  0.27   67O :  0.26  478O :  0.24  391O :  0.24  268O :  0.24  313O :  0.22  232O :  0.22  451O :  0.21
  358O :  0.21   55O :  0.21  111H :  0.21  387H :  0.21  271O :  0.21    4O :  0.21  466O :  0.21  349O :  0.20  421O :  0.20  301O :  0.20  241O :  0.20  249H :  0.19
  127O :  0.19  130O :  0.19  181O :  0.18  166O :  0.18  193O :  0.18  418O :  0.18  145O :  0.18  156H :  0.18  274O :  0.18  157O :  0.17  445O :  0.17  178O :  0.17
  286O :  0.17  104H :  0.17  355O :  0.16  520O :  0.16  295O :  0.15  384H :  0.15  364O :  0.14  433O :  0.14  312H :  0.14  214O :  0.13  135H :  0.13   13O :  0.12
  209H :  0.12   32H :  0.12  498H :  0.12  328O :  0.12  100O :  0.12  280O :  0.12  291H :  0.12  397O :  0.12   49O :  0.11  361O :  0.11   35H :  0.11   38H :  0.11
  292O :  0.11  197H :  0.11   92H :  0.11  395H :  0.11  405H :  0.11   21H :  0.10  473H :  0.10  461H :  0.10  327H :  0.10  470H :  0.09  485H :  0.09  106O :  0.09
  227H :  0.09  235O :  0.09  105H :  0.08  511O :  0.08  525H :  0.08  116H :  0.08  442O :  0.08  122H :  0.08   44H :  0.07  185H :  0.07  110H :  0.07  202O :  0.07
  125H :  0.07   53H :  0.07   61O :  0.07
   18 LP   *******   0.01  -0.95527 -15.77204  -1.98118  304O :  3.29  484O :  2.01   16O :  1.95  109O :  1.81  205O :  1.72  247O :  1.65  103O :  1.58  406O :  1.52  199O :  1.37   85O :  1.35  310O :  1.31  388O :  1.27
  394O :  1.27   43O :  1.25  496O :  1.16  430O :  1.14  154O :  1.13  529O :  1.09  340O :  1.07  403O :  1.04   10O :  1.02  454O :  1.00  208O :  0.94  115O :  0.93
   97O :  0.93  346O :  0.92  289O :  0.91  400O :  0.91   25O :  0.90  277O :  0.87  385O :  0.84  481O :  0.80   79O :  0.80    7O :  0.79  172O :  0.76  409O :  0.75
  412O :  0.75  475O :  0.75  142O :  0.75   52O :  0.74  337O :  0.73  265O :  0.72  526O :  0.71  163O :  0.71  367O :  0.69  463O :  0.68  136O :  0.65   28O :  0.65
  334O :  0.64   76O :  0.64  382O :  0.62  148O :  0.62  226O :  0.62  427O :  0.59  112O :  0.59   31O :  0.59   94O :  0.59   88O :  0.58  139O :  0.58  124O :  0.58
  472O :  0.57   82O :  0.57  133O :  0.57  325O :  0.56  457O :  0.56  508O :  0.55   37O :  0.55  523O :  0.53  259O :  0.52   70O :  0.52   73O :  0.52  505O :  0.52
   19O :  0.51  448O :  0.51  262O :  0.50  493O :  0.50  229O :  0.50  370O :  0.50  469O :  0.49  436O :  0.49  184O :  0.48  322O :  0.47   34O :  0.47  223O :  0.47
  502O :  0.46  175O :  0.46  517O :  0.46  238O :  0.46  439O :  0.45  244O :  0.41  121O :  0.41  298O :  0.41  160O :  0.41  499O :  0.41  379O :  0.39  250O :  0.39
  190O :  0.39  490O :  0.38   58O :  0.38  373O :  0.36  206H :  0.36  196O :  0.36  316O :  0.35  211O :  0.35  220O :  0.35    1O :  0.34  376O :  0.34  187O :  0.34
  424O :  0.33   40O :  0.32  460O :  0.32  217O :  0.32  169O :  0.32  118O :  0.32   91O :  0.29  253O :  0.29  352O :  0.29  151O :  0.28  331O :  0.28  256O :  0.28
  343O :  0.28   64O :  0.28  415O :  0.27  283O :  0.27   46O :  0.26   67O :  0.26  478O :  0.24  391O :  0.24  268O :  0.24  313O :  0.22  232O :  0.22  451O :  0.21
  358O :  0.20   55O :  0.20  111H :  0.20  387H :  0.20  271O :  0.20    4O :  0.20  466O :  0.20  349O :  0.20  421O :  0.20  301O :  0.20  241O :  0.19  249H :  0.19
  127O :  0.19  130O :  0.18  181O :  0.18  166O :  0.18  193O :  0.18  418O :  0.18  145O :  0.18  156H :  0.18  274O :  0.17  157O :  0.17  445O :  0.17  178O :  0.16
  286O :  0.16  104H :  0.16  209H :  0.16  355O :  0.16  520O :  0.15  295O :  0.15  384H :  0.15  364O :  0.14  433O :  0.14  312H :  0.14  214O :  0.13  135H :  0.12
   13O :  0.12   32H :  0.12  498H :  0.12  328O :  0.12  280O :  0.12   49O :  0.12  291H :  0.11  397O :  0.11  361O :  0.11   35H :  0.11  292O :  0.11  197H :  0.11
   38H :  0.11  100O :  0.11   92H :  0.11  395H :  0.10  405H :  0.10   21H :  0.10  473H :  0.10  461H :  0.10  327H :  0.10  470H :  0.09  485H :  0.09  106O :  0.09
  227H :  0.09  235O :  0.08  105H :  0.08  511O :  0.08  525H :  0.08  116H :  0.08  442O :  0.08  122H :  0.08   44H :  0.07  110H :  0.07  185H :  0.07  202O :  0.07
  125H :  0.07  531H :  0.07
   19 LP   *******   0.01 -11.00800   1.14880   9.23176  388O :  2.90  484O :  1.99   16O :  1.93  109O :  1.79  205O :  1.73  247O :  1.63  103O :  1.56  304O :  1.55  406O :  1.50  199O :  1.35   85O :  1.34  310O :  1.30
  394O :  1.25   43O :  1.23  496O :  1.15  430O :  1.13  154O :  1.12  529O :  1.08  340O :  1.06  403O :  1.03   10O :  1.01  454O :  0.99  208O :  0.93  115O :  0.93
   97O :  0.92  346O :  0.91  289O :  0.91  400O :  0.90   25O :  0.89  277O :  0.86  385O :  0.83  481O :  0.81   79O :  0.79    7O :  0.78  172O :  0.76  409O :  0.75
  412O :  0.74  475O :  0.74  142O :  0.74   52O :  0.73  337O :  0.72  265O :  0.71  526O :  0.71  163O :  0.70  367O :  0.69  463O :  0.67  136O :  0.64   28O :  0.64
  334O :  0.63   76O :  0.63  382O :  0.62  148O :  0.62  226O :  0.62  427O :  0.59  112O :  0.59   31O :  0.59   94O :  0.58   88O :  0.58  139O :  0.58  124O :  0.57
  472O :  0.57   82O :  0.56  133O :  0.56  325O :  0.56  457O :  0.55  508O :  0.54   37O :  0.54  523O :  0.52  259O :  0.52   70O :  0.51   73O :  0.51  505O :  0.51
   19O :  0.51  448O :  0.50  262O :  0.50  493O :  0.50  229O :  0.49  370O :  0.49  469O :  0.49  436O :  0.48  184O :  0.47  322O :  0.47   34O :  0.47  223O :  0.47
  502O :  0.45  175O :  0.45  517O :  0.45  238O :  0.45  439O :  0.45  206H :  0.43  244O :  0.41  121O :  0.40  298O :  0.40  160O :  0.40  499O :  0.40  379O :  0.39
  250O :  0.39  190O :  0.38  490O :  0.37   58O :  0.37  373O :  0.36  196O :  0.35  316O :  0.35  211O :  0.35  220O :  0.34    1O :  0.34  376O :  0.33  187O :  0.33
  424O :  0.32   40O :  0.32  460O :  0.32  217O :  0.32  169O :  0.31  118O :  0.31   91O :  0.29  253O :  0.29  352O :  0.29  151O :  0.28  331O :  0.27  256O :  0.27
   64O :  0.27  343O :  0.27  415O :  0.27  283O :  0.27   46O :  0.26   67O :  0.26  478O :  0.24  391O :  0.24  268O :  0.23  313O :  0.22  232O :  0.22  451O :  0.21
  358O :  0.20   55O :  0.20  111H :  0.20  271O :  0.20  387H :  0.20    4O :  0.20  466O :  0.20  349O :  0.20  421O :  0.20  301O :  0.19  241O :  0.19  249H :  0.19
  127O :  0.18  130O :  0.18  181O :  0.18  166O :  0.18  193O :  0.18  418O :  0.18  145O :  0.18  156H :  0.17  274O :  0.17  157O :  0.17  445O :  0.17  178O :  0.16
  286O :  0.16  104H :  0.16  209H :  0.16  355O :  0.15  520O :  0.15  295O :  0.15  384H :  0.15  364O :  0.14  433O :  0.14  312H :  0.14  214O :  0.13  135H :  0.12
   32H :  0.12   13O :  0.12  498H :  0.12  328O :  0.12  100O :  0.12  280O :  0.12   49O :  0.11  291H :  0.11  397O :  0.11  361O :  0.11   35H :  0.11  292O :  0.11
  197H :  0.11   38H :  0.11   92H :  0.10  395H :  0.10  405H :  0.10   21H :  0.10  473H :  0.10  461H :  0.10  327H :  0.09  470H :  0.09  485H :  0.09  106O :  0.09
  227H :  0.09  235O :  0.08  105H :  0.08  511O :  0.08  525H :  0.08  116H :  0.08  442O :  0.08  122H :  0.07   44H :  0.07  110H :  0.07  202O :  0.07  185H :  0.07
  125H :  0.07
   20 LP   *******   0.01  -3.66334   5.87923  -9.18819   43O :  2.78  484O :  1.97   16O :  1.92  109O :  1.77  205O :  1.69  247O :  1.62  103O :  1.55  304O :  1.53  406O :  1.49  199O :  1.34   85O :  1.32  310O :  1.29
  388O :  1.24  394O :  1.24  496O :  1.14  430O :  1.12  154O :  1.11  529O :  1.07  340O :  1.05  403O :  1.02   10O :  1.00  454O :  0.94  208O :  0.92  115O :  0.92
   97O :  0.91  346O :  0.90  289O :  0.90   25O :  0.89  400O :  0.88  277O :  0.85  385O :  0.82  481O :  0.79   79O :  0.78    7O :  0.77  172O :  0.75  409O :  0.74
  412O :  0.74  475O :  0.73  142O :  0.73   52O :  0.72  337O :  0.71  265O :  0.71  526O :  0.70  163O :  0.69  367O :  0.68  463O :  0.67   28O :  0.64  136O :  0.64
  334O :  0.63   76O :  0.62  382O :  0.61  226O :  0.61  148O :  0.60  427O :  0.58  112O :  0.58   31O :  0.58   94O :  0.58   88O :  0.57  139O :  0.57  124O :  0.56
  472O :  0.56   82O :  0.56  133O :  0.56  325O :  0.55  457O :  0.55  508O :  0.54   37O :  0.54  523O :  0.52  259O :  0.51   70O :  0.51   73O :  0.51  505O :  0.51
   19O :  0.50  448O :  0.50  262O :  0.49  493O :  0.49  229O :  0.49  370O :  0.49  469O :  0.48  436O :  0.48  184O :  0.47  322O :  0.47   34O :  0.46  223O :  0.46
  502O :  0.45  175O :  0.45  517O :  0.45  238O :  0.45  439O :  0.44  244O :  0.40  121O :  0.40  298O :  0.40  499O :  0.40  160O :  0.40  379O :  0.39  250O :  0.38
  190O :  0.38   58O :  0.37  490O :  0.37  373O :  0.35  206H :  0.35  196O :  0.35  316O :  0.34  211O :  0.34  220O :  0.34    1O :  0.33  376O :  0.33  187O :  0.33
  424O :  0.32   40O :  0.32  460O :  0.32  217O :  0.31  169O :  0.31  118O :  0.31   91O :  0.29  253O :  0.29  352O :  0.29  151O :  0.27  256O :  0.27  331O :  0.27
  343O :  0.27   64O :  0.27  415O :  0.27  283O :  0.26   46O :  0.26   67O :  0.25  478O :  0.23  391O :  0.23  268O :  0.23  313O :  0.22  232O :  0.22  451O :  0.21
  358O :  0.20   55O :  0.20  111H :  0.20  387H :  0.20  271O :  0.20    4O :  0.20  466O :  0.20  349O :  0.20  421O :  0.19  301O :  0.19  241O :  0.19  249H :  0.19
  127O :  0.18  130O :  0.18  181O :  0.18  166O :  0.17  193O :  0.17  418O :  0.17  145O :  0.17  156H :  0.17  274O :  0.17  157O :  0.17  445O :  0.17  178O :  0.16
  286O :  0.16  104H :  0.16  209H :  0.16  355O :  0.15  520O :  0.15  295O :  0.15  384H :  0.14  364O :  0.14  433O :  0.14  312H :  0.13  214O :  0.13  135H :  0.12
   13O :  0.12   32H :  0.12  498H :  0.12  328O :  0.12  100O :  0.12  280O :  0.11   49O :  0.11  291H :  0.11  397O :  0.11  361O :  0.11   35H :  0.11  292O :  0.10
  197H :  0.10   38H :  0.10   92H :  0.10  395H :  0.10  405H :  0.10   21H :  0.10  473H :  0.10  461H :  0.10  327H :  0.09  470H :  0.09  485H :  0.09  106O :  0.09
  227H :  0.09  235O :  0.08  105H :  0.08  511O :  0.08  525H :  0.08  116H :  0.08  442O :  0.08  122H :  0.07  110H :  0.07  185H :  0.07  202O :  0.07   83H :  0.07
   21 LP   *******   0.01  -0.77612   6.50612 -12.18963  454O :  2.79  484O :  1.96   16O :  1.90  109O :  1.76  205O :  1.68  247O :  1.61  103O :  1.54  304O :  1.52  406O :  1.48  199O :  1.33   85O :  1.31  310O :  1.28
  388O :  1.23  394O :  1.23   43O :  1.18  496O :  1.13  430O :  1.11  154O :  1.10  529O :  1.06  340O :  1.04  403O :  1.02   10O :  0.99  208O :  0.92  115O :  0.91
   97O :  0.90  346O :  0.89  289O :  0.89  400O :  0.89   25O :  0.88  277O :  0.85  385O :  0.82  481O :  0.78   79O :  0.78    7O :  0.77  172O :  0.74  409O :  0.73
  412O :  0.73  475O :  0.73  142O :  0.73   52O :  0.72  337O :  0.71  265O :  0.70  526O :  0.69  163O :  0.69  367O :  0.68  463O :  0.66  136O :  0.63   28O :  0.63
  334O :  0.62   76O :  0.62  382O :  0.61  226O :  0.61  148O :  0.61  427O :  0.58  112O :  0.58   31O :  0.58   94O :  0.58   88O :  0.57  139O :  0.57  124O :  0.56
  472O :  0.56   82O :  0.56  133O :  0.55  325O :  0.55  457O :  0.54  508O :  0.53   37O :  0.53  523O :  0.51  259O :  0.51   70O :  0.50   73O :  0.50  505O :  0.50
   19O :  0.50  448O :  0.49  262O :  0.49  493O :  0.49  229O :  0.49  370O :  0.49  469O :  0.48  436O :  0.47  184O :  0.46  322O :  0.46   34O :  0.46  223O :  0.46
  502O :  0.45  175O :  0.44  517O :  0.44  238O :  0.44  439O :  0.44  244O :  0.40  121O :  0.40  298O :  0.40  499O :  0.39  160O :  0.39  379O :  0.38  250O :  0.38
  190O :  0.38  490O :  0.37   58O :  0.37  373O :  0.35  206H :  0.35  196O :  0.35  316O :  0.34  211O :  0.34  220O :  0.34    1O :  0.33  376O :  0.33  187O :  0.33
  424O :  0.32   40O :  0.31  460O :  0.31  217O :  0.31  169O :  0.31  118O :  0.31   91O :  0.29  253O :  0.29  352O :  0.29  256O :  0.27  151O :  0.27  331O :  0.27
  343O :  0.27   64O :  0.27  415O :  0.26  283O :  0.26   46O :  0.26   67O :  0.25  478O :  0.23  391O :  0.23  268O :  0.23  313O :  0.21  232O :  0.21  451O :  0.20
  358O :  0.20   55O :  0.20  111H :  0.20  271O :  0.20  387H :  0.20    4O :  0.20  466O :  0.20  349O :  0.19  421O :  0.19  301O :  0.19  241O :  0.19  249H :  0.19
  127O :  0.18  130O :  0.18  181O :  0.18  166O :  0.17  193O :  0.17  418O :  0.17  145O :  0.17  156H :  0.17  274O :  0.17  157O :  0.17  445O :  0.16  178O :  0.16
  286O :  0.16  104H :  0.16  209H :  0.16  355O :  0.15  520O :  0.15  295O :  0.15  384H :  0.14  364O :  0.14  433O :  0.14  312H :  0.13  214O :  0.13  135H :  0.12
   13O :  0.12   32H :  0.12  498H :  0.12  328O :  0.11  100O :  0.11  280O :  0.11   49O :  0.11  291H :  0.11  397O :  0.11  361O :  0.11   35H :  0.11  292O :  0.10
  197H :  0.10   38H :  0.10   92H :  0.10  395H :  0.10  405H :  0.10   21H :  0.10  473H :  0.10  461H :  0.10  327H :  0.09  470H :  0.09  485H :  0.09  106O :  0.09
  227H :  0.09  235O :  0.08  105H :  0.08  511O :  0.08  525H :  0.08  116H :  0.08  122H :  0.07  442O :  0.07  110H :  0.07  185H :  0.07  202O :  0.07
   22 LP   *******   0.01   6.29811   4.65591 -12.77024  430O :  3.07  484O :  1.95   16O :  1.89  109O :  1.75  205O :  1.67  247O :  1.60  103O :  1.53  304O :  1.51  406O :  1.47  199O :  1.32   85O :  1.31  310O :  1.27
[...]
   145   8 o    1.844 --   146 h    0.880   147 h    0.842
   146   1 h    0.907 --   145 o    0.880
   147   1 h    0.885 --   145 o    0.842
   148   8 o    1.861 --   150 h    0.897   149 h    0.851
   149   1 h    0.888 --   148 o    0.851
   150   1 h    0.907 --   148 o    0.897
   151   8 o    1.851 --   152 h    0.874   153 h    0.820
   152   1 h    0.900 --   151 o    0.874
   153   1 h    0.874 --   151 o    0.820
   154   8 o    1.818 --   156 h    0.892   155 h    0.819
   155   1 h    0.887 --   154 o    0.819
   156   1 h    0.908 --   154 o    0.892
   157   8 o    1.861 --   158 h    0.904   159 h    0.869
   158   1 h    0.910 --   157 o    0.904
   159   1 h    0.894 --   157 o    0.869
   160   8 o    1.906 --   161 h    0.841   162 h    0.832
   161   1 h    0.881 --   160 o    0.841
   162   1 h    0.865 --   160 o    0.832
   163   8 o    1.863 --   164 h    0.874   165 h    0.829
   164   1 h    0.896 --   163 o    0.874
   165   1 h    0.884 --   163 o    0.829
   166   8 o    1.845 --   168 h    0.862   167 h    0.755
   167   1 h    0.877 --   166 o    0.755   514 o    0.113
   168   1 h    0.900 --   166 o    0.862
   169   8 o    1.868 --   170 h    0.849   171 h    0.826
   170   1 h    0.896 --   169 o    0.849
   171   1 h    0.892 --   169 o    0.826
   172   8 o    1.809 --   174 h    0.868   173 h    0.859
   173   1 h    0.896 --   172 o    0.859
   174   1 h    0.898 --   172 o    0.868
   175   8 o    1.868 --   176 h    0.827   177 h    0.814
   176   1 h    0.892 --   175 o    0.827
   177   1 h    0.880 --   175 o    0.814
   178   8 o    1.830 --   180 h    0.887   179 h    0.825
   179   1 h    0.879 --   178 o    0.825
   180   1 h    0.907 --   178 o    0.887
   181   8 o    1.879 --   183 h    0.814   182 h    0.810
   182   1 h    0.879 --   181 o    0.810
   183   1 h    0.879 --   181 o    0.814
   184   8 o    1.894 --   186 h    0.842   185 h    0.782
   185   1 h    0.869 --   184 o    0.782
   186   1 h    0.881 --   184 o    0.842
   187   8 o    1.851 --   189 h    0.894   188 h    0.798
   188   1 h    0.872 --   187 o    0.798
   189   1 h    0.909 --   187 o    0.894
   190   8 o    1.849 --   192 h    0.825   191 h    0.767
   191   1 h    0.868 --   190 o    0.767
   192   1 h    0.891 --   190 o    0.825
   193   8 o    1.855 --   195 h    0.850   194 h    0.825
   194   1 h    0.892 --   193 o    0.825
   195   1 h    0.895 --   193 o    0.850
   196   8 o    1.862 --   198 h    0.852   197 h    0.783
   197   1 h    0.870 --   196 o    0.783
   198   1 h    0.890 --   196 o    0.852
   199   8 o    1.873 --   201 h    0.817   200 h    0.799
   200   1 h    0.878 --   199 o    0.799
   201   1 h    0.880 --   199 o    0.817
   202   8 o    1.863 --   203 h    0.891   204 h    0.854
   203   1 h    0.903 --   202 o    0.891
   204   1 h    0.891 --   202 o    0.854
   205   8 o    1.861 --   206 h    0.868   207 h    0.819
   206   1 h    0.895 --   205 o    0.868
   207   1 h    0.892 --   205 o    0.819
   208   8 o    1.835 --   210 h    0.836   209 h    0.829
   209   1 h    0.898 --   208 o    0.829
   210   1 h    0.884 --   208 o    0.836
   211   8 o    1.820 --   212 h    0.878   213 h    0.859
   212   1 h    0.898 --   211 o    0.878
   213   1 h    0.893 --   211 o    0.859
   214   8 o    1.887 --   216 h    0.850   215 h    0.818
   215   1 h    0.885 --   214 o    0.818
   216   1 h    0.894 --   214 o    0.850
   217   8 o    1.864 --   218 h    0.868   219 h    0.808
   218   1 h    0.903 --   217 o    0.868
   219   1 h    0.889 --   217 o    0.808
   220   8 o    1.839 --   221 h    0.869   222 h    0.813
   221   1 h    0.900 --   220 o    0.869
   222   1 h    0.885 --   220 o    0.813
   223   8 o    1.862 --   224 h    0.866   225 h    0.862
   224   1 h    0.894 --   223 o    0.866
   225   1 h    0.892 --   223 o    0.862
   226   8 o    1.827 --   228 h    0.813   227 h    0.799
   227   1 h    0.879 --   226 o    0.799
   228   1 h    0.883 --   226 o    0.813
   229   8 o    1.854 --   231 h    0.849   230 h    0.819
   230   1 h    0.882 --   229 o    0.819
   231   1 h    0.889 --   229 o    0.849
   232   8 o    1.836 --   234 h    0.836   233 h    0.827
   233   1 h    0.889 --   232 o    0.827
   234   1 h    0.893 --   232 o    0.836
   235   8 o    1.849 --   236 h    0.881   237 h    0.783
   236   1 h    0.902 --   235 o    0.881
   237   1 h    0.876 --   235 o    0.783
   238   8 o    1.864 --   240 h    0.824   239 h    0.804
   239   1 h    0.889 --   238 o    0.804
   240   1 h    0.877 --   238 o    0.824
   241   8 o    1.815 --   242 h    0.862   243 h    0.827
   242   1 h    0.896 --   241 o    0.862
   243   1 h    0.882 --   241 o    0.827
   244   8 o    1.862 --   246 h    0.853   245 h    0.852
   245   1 h    0.890 --   244 o    0.852
   246   1 h    0.896 --   244 o    0.853
   247   8 o    1.874 --   249 h    0.824   248 h    0.790
   248   1 h    0.865 --   247 o    0.790
   249   1 h    0.883 --   247 o    0.824
   250   8 o    1.851 --   252 h    0.848   251 h    0.812
   251   1 h    0.891 --   250 o    0.812
   252   1 h    0.894 --   250 o    0.848
   253   8 o    1.839 --   255 h    0.868   254 h    0.842
   254   1 h    0.888 --   253 o    0.842
   255   1 h    0.899 --   253 o    0.868
   256   8 o    1.825 --   257 h    0.866   258 h    0.846
   257   1 h    0.896 --   256 o    0.866
   258   1 h    0.881 --   256 o    0.846
   259   8 o    1.897 --   261 h    0.836   260 h    0.829
   260   1 h    0.885 --   259 o    0.829
   261   1 h    0.884 --   259 o    0.836
   262   8 o    1.852 --   264 h    0.913   263 h    0.846
   263   1 h    0.886 --   262 o    0.846
   264   1 h    0.919 --   262 o    0.913
   265   8 o    1.818 --   266 h    0.876   267 h    0.833
   266   1 h    0.904 --   265 o    0.876
   267   1 h    0.890 --   265 o    0.833
   268   8 o    1.873 --   270 h    0.804   269 h    0.800
   269   1 h    0.877 --   268 o    0.800
   270   1 h    0.881 --   268 o    0.804
   271   8 o    1.846 --   273 h    0.849   272 h    0.807
   272   1 h    0.893 --   271 o    0.807
   273   1 h    0.894 --   271 o    0.849
   274   8 o    1.833 --   275 h    0.809   276 h    0.806
   275   1 h    0.886 --   274 o    0.809
   276   1 h    0.887 --   274 o    0.806
   277   8 o    1.827 --   279 h    0.874   278 h    0.845
   278   1 h    0.890 --   277 o    0.845
   279   1 h    0.904 --   277 o    0.874
   280   8 o    1.857 --   281 h    0.868   282 h    0.818
   281   1 h    0.901 --   280 o    0.868
   282   1 h    0.883 --   280 o    0.818
   283   8 o    1.845 --   285 h    0.845   284 h    0.835
   284   1 h    0.893 --   283 o    0.835
   285   1 h    0.898 --   283 o    0.845
   286   8 o    1.851 --   288 h    0.913   287 h    0.788
   287   1 h    0.876 --   286 o    0.788
   288   1 h    0.921 --   286 o    0.913
   289   8 o    1.867 --   290 h    0.833   291 h    0.774
   290   1 h    0.889 --   289 o    0.833
   291   1 h    0.862 --   289 o    0.774
   292   8 o    1.829 --   293 h    0.851   294 h    0.839
   293   1 h    0.896 --   292 o    0.851
   294   1 h    0.894 --   292 o    0.839
   295   8 o    1.837 --   297 h    0.846   296 h    0.829
   296   1 h    0.885 --   295 o    0.829
   297   1 h    0.900 --   295 o    0.846
   298   8 o    1.864 --   299 h    0.851   300 h    0.828
   299   1 h    0.897 --   298 o    0.851
   300   1 h    0.889 --   298 o    0.828
   301   8 o    1.887 --   302 h    0.842   303 h    0.838
   302   1 h    0.891 --   301 o    0.842
   303   1 h    0.885 --   301 o    0.838
   304   8 o    1.817 --   305 h    0.912   306 h    0.794
   305   1 h    0.918 --   304 o    0.912
   306   1 h    0.879 --   304 o    0.794
   307   8 o    1.898 --   309 h    0.834   308 h    0.785
   308   1 h    0.869 --   307 o    0.785
   309   1 h    0.888 --   307 o    0.834
   310   8 o    1.873 --   312 h    0.820   311 h    0.818
   311   1 h    0.881 --   310 o    0.818
   312   1 h    0.886 --   310 o    0.820
   313   8 o    1.862 --   314 h    0.855   315 h    0.789
   314   1 h    0.899 --   313 o    0.855
   315   1 h    0.879 --   313 o    0.789
   316   8 o    1.889 --   318 h    0.827   317 h    0.805
   317   1 h    0.880 --   316 o    0.805
   318   1 h    0.884 --   316 o    0.827
   319   8 o    1.846 --   321 h    0.865   320 h    0.798
   320   1 h    0.878 --   319 o    0.798
   321   1 h    0.896 --   319 o    0.865
   322   8 o    1.854 --   323 h    0.846   324 h    0.785
   323   1 h    0.887 --   322 o    0.846
   324   1 h    0.875 --   322 o    0.785
   325   8 o    1.831 --   326 h    0.876   327 h    0.823
   326   1 h    0.905 --   325 o    0.876
   327   1 h    0.888 --   325 o    0.823
   328   8 o    1.860 --   330 h    0.879   329 h    0.858
   329   1 h    0.897 --   328 o    0.858
   330   1 h    0.902 --   328 o    0.879
   331   8 o    1.832 --   332 h    0.869   333 h    0.828
   332   1 h    0.900 --   331 o    0.869
   333   1 h    0.882 --   331 o    0.828
   334   8 o    1.839 --   335 h    0.845   336 h    0.839
   335   1 h    0.893 --   334 o    0.845
   336   1 h    0.891 --   334 o    0.839
   337   8 o    1.860 --   338 h    0.836   339 h    0.810
   338   1 h    0.891 --   337 o    0.836
   339   1 h    0.877 --   337 o    0.810
   340   8 o    1.863 --   341 h    0.861   342 h    0.819
   341   1 h    0.899 --   340 o    0.861
   342   1 h    0.887 --   340 o    0.819
   343   8 o    1.829 --   344 h    0.899   345 h    0.858
   344   1 h    0.908 --   343 o    0.899
   345   1 h    0.890 --   343 o    0.858
   346   8 o    1.848 --   347 h    0.811   348 h    0.809
   347   1 h    0.880 --   346 o    0.811
   348   1 h    0.886 --   346 o    0.809
   349   8 o    1.845 --   351 h    0.813   350 h    0.796
   350   1 h    0.881 --   349 o    0.796
   351   1 h    0.882 --   349 o    0.813
   352   8 o    1.852 --   354 h    0.893   353 h    0.824
   353   1 h    0.881 --   352 o    0.824
   354   1 h    0.908 --   352 o    0.893
   355   8 o    1.835 --   356 h    0.883   357 h    0.810
   356   1 h    0.906 --   355 o    0.883
   357   1 h    0.883 --   355 o    0.810
   358   8 o    1.855 --   359 h    0.901   360 h    0.777
   359   1 h    0.911 --   358 o    0.901
   360   1 h    0.871 --   358 o    0.777
   361   8 o    1.839 --   362 h    0.845   363 h    0.828
   362   1 h    0.892 --   361 o    0.845
   363   1 h    0.885 --   361 o    0.828
   364   8 o    1.847 --   366 h    0.878   365 h    0.808
   365   1 h    0.874 --   364 o    0.808
   366   1 h    0.899 --   364 o    0.878
   367   8 o    1.827 --   369 h    0.856   368 h    0.839
   368   1 h    0.890 --   367 o    0.839
   369   1 h    0.898 --   367 o    0.856
   370   8 o    1.825 --   372 h    0.832   371 h    0.828
   371   1 h    0.891 --   370 o    0.828
   372   1 h    0.891 --   370 o    0.832
   373   8 o    1.859 --   375 h    0.854   374 h    0.815
   374   1 h    0.881 --   373 o    0.815
   375   1 h    0.898 --   373 o    0.854
   376   8 o    1.821 --   378 h    0.876   377 h    0.824
   377   1 h    0.887 --   376 o    0.824
   378   1 h    0.904 --   376 o    0.876
   379   8 o    1.850 --   381 h    0.827   380 h    0.816
   380   1 h    0.886 --   379 o    0.816
   381   1 h    0.884 --   379 o    0.827
   382   8 o    1.864 --   383 h    0.863   384 h    0.818
   383   1 h    0.895 --   382 o    0.863
   384   1 h    0.876 --   382 o    0.818
   385   8 o    1.864 --   386 h    0.858   387 h    0.809
   386   1 h    0.887 --   385 o    0.858
   387   1 h    0.887 --   385 o    0.809
   388   8 o    1.793 --   389 h    0.847   390 h    0.833
   389   1 h    0.898 --   388 o    0.847
   390   1 h    0.890 --   388 o    0.833
   391   8 o    1.840 --   392 h    0.888   393 h    0.858
   392   1 h    0.903 --   391 o    0.888
   393   1 h    0.894 --   391 o    0.858
   394   8 o    1.852 --   396 h    0.842   395 h    0.832
   395   1 h    0.883 --   394 o    0.832
   396   1 h    0.893 --   394 o    0.842
   397   8 o    1.845 --   398 h    0.855   399 h    0.827
   398   1 h    0.897 --   397 o    0.855
   399   1 h    0.883 --   397 o    0.827
   400   8 o    1.855 --   401 h    0.863   402 h    0.824
   401   1 h    0.902 --   400 o    0.863
   402   1 h    0.874 --   400 o    0.824
   403   8 o    1.891 --   405 h    0.830   404 h    0.814
   404   1 h    0.884 --   403 o    0.814
   405   1 h    0.892 --   403 o    0.830
   406   8 o    1.832 --   407 h    0.888   408 h    0.867
   407   1 h    0.903 --   406 o    0.888
   408   1 h    0.897 --   406 o    0.867
   409   8 o    1.841 --   410 h    0.835   411 h    0.832
   410   1 h    0.887 --   409 o    0.835
   411   1 h    0.895 --   409 o    0.832
   412   8 o    1.827 --   413 h    0.880   414 h    0.847
   413   1 h    0.901 --   412 o    0.880
   414   1 h    0.890 --   412 o    0.847
   415   8 o    1.890 --   417 h    0.842   416 h    0.785
   416   1 h    0.870 --   415 o    0.785
   417   1 h    0.897 --   415 o    0.842
   418   8 o    1.862 --   420 h    0.890   419 h    0.863
   419   1 h    0.893 --   418 o    0.863
   420   1 h    0.902 --   418 o    0.890
   421   8 o    1.850 --   423 h    0.833   422 h    0.815
   422   1 h    0.883 --   421 o    0.815
   423   1 h    0.896 --   421 o    0.833
   424   8 o    1.860 --   426 h    0.892   425 h    0.805
   425   1 h    0.877 --   424 o    0.805
   426   1 h    0.907 --   424 o    0.892
   427   8 o    1.820 --   428 h    0.869   429 h    0.818
   428   1 h    0.899 --   427 o    0.869
   429   1 h    0.890 --   427 o    0.818
   430   8 o    1.860 --   432 h    0.912   431 h    0.810
   431   1 h    0.878 --   430 o    0.810
   432   1 h    0.919 --   430 o    0.912
   433   8 o    1.877 --   435 h    0.832   434 h    0.802
   434   1 h    0.884 --   433 o    0.802
   435   1 h    0.894 --   433 o    0.832
   436   8 o    1.871 --   438 h    0.868   437 h    0.825
   437   1 h    0.887 --   436 o    0.825
   438   1 h    0.894 --   436 o    0.868
   439   8 o    1.863 --   441 h    0.848   440 h    0.842
   440   1 h    0.894 --   439 o    0.842
   441   1 h    0.897 --   439 o    0.848
   442   8 o    1.863 --   443 h    0.844   444 h    0.777
   443   1 h    0.894 --   442 o    0.844
   444   1 h    0.871 --   442 o    0.777
   445   8 o    1.850 --   447 h    0.914   446 h    0.787
   446   1 h    0.878 --   445 o    0.787
   447   1 h    0.921 --   445 o    0.914
   448   8 o    1.848 --   450 h    0.833   449 h    0.830
   449   1 h    0.891 --   448 o    0.830
   450   1 h    0.884 --   448 o    0.833
   451   8 o    1.891 --   452 h    0.862   453 h    0.808
   452   1 h    0.899 --   451 o    0.862
   453   1 h    0.872 --   451 o    0.808
   454   8 o    1.856 --   456 h    0.881   455 h    0.847
   455   1 h    0.893 --   454 o    0.847
   456   1 h    0.900 --   454 o    0.881
   457   8 o    1.831 --   458 h    0.894   459 h    0.844
   458   1 h    0.910 --   457 o    0.894
   459   1 h    0.891 --   457 o    0.844
   460   8 o    1.907 --   462 h    0.836   461 h    0.791
   461   1 h    0.869 --   460 o    0.791
   462   1 h    0.877 --   460 o    0.836
   463   8 o    1.869 --   465 h    0.829   464 h    0.801
   464   1 h    0.879 --   463 o    0.801
   465   1 h    0.883 --   463 o    0.829
   466   8 o    1.853 --   468 h    0.856   467 h    0.839
   467   1 h    0.889 --   466 o    0.839
   468   1 h    0.901 --   466 o    0.856
   469   8 o    1.825 --   470 h    0.860   471 h    0.829
   470   1 h    0.897 --   469 o    0.860
   471   1 h    0.888 --   469 o    0.829
   472   8 o    1.875 --   473 h    0.895   474 h    0.825
   473   1 h    0.908 --   472 o    0.895
   474   1 h    0.889 --   472 o    0.825
   475   8 o    1.869 --   477 h    0.842   476 h    0.836
   476   1 h    0.892 --   475 o    0.836
   477   1 h    0.889 --   475 o    0.842
   478   8 o    1.840 --   480 h    0.861   479 h    0.854
   479   1 h    0.894 --   478 o    0.854
   480   1 h    0.899 --   478 o    0.861
   481   8 o    1.860 --   482 h    0.835   483 h    0.805
   482   1 h    0.890 --   481 o    0.835
   483   1 h    0.880 --   481 o    0.805
   484   8 o    1.871 --   485 h    0.820   486 h    0.808
   485   1 h    0.873 --   484 o    0.820
   486   1 h    0.877 --   484 o    0.808
   487   8 o    1.860 --   488 h    0.912   489 h    0.853
   488   1 h    0.916 --   487 o    0.912
   489   1 h    0.888 --   487 o    0.853
   490   8 o    1.855 --   492 h    0.827   491 h    0.823
   491   1 h    0.884 --   490 o    0.823
   492   1 h    0.891 --   490 o    0.827
   493   8 o    1.834 --   495 h    0.823   494 h    0.793
   494   1 h    0.873 --   493 o    0.793
   495   1 h    0.879 --   493 o    0.823
   496   8 o    1.853 --   498 h    0.850   497 h    0.803
   497   1 h    0.884 --   496 o    0.803
   498   1 h    0.900 --   496 o    0.850
   499   8 o    1.867 --   501 h    0.852   500 h    0.803
   500   1 h    0.879 --   499 o    0.803
   501   1 h    0.897 --   499 o    0.852
   502   8 o    1.854 --   503 h    0.897   504 h    0.852
   503   1 h    0.908 --   502 o    0.897
   504   1 h    0.884 --   502 o    0.852
   505   8 o    1.882 --   506 h    0.845   507 h    0.843
   506   1 h    0.888 --   505 o    0.845
   507   1 h    0.895 --   505 o    0.843
   508   8 o    1.847 --   510 h    0.905   509 h    0.791
   509   1 h    0.869 --   508 o    0.791
   510   1 h    0.916 --   508 o    0.905
   511   8 o    1.876 --   512 h    0.855   513 h    0.849
   512   1 h    0.892 --   511 o    0.855
   513   1 h    0.894 --   511 o    0.849
   514   8 o    1.881 --   515 h    0.841   516 h    0.827   167 h    0.113
   515   1 h    0.895 --   514 o    0.841
   516   1 h    0.889 --   514 o    0.827
   517   8 o    1.844 --   519 h    0.852   518 h    0.804
   518   1 h    0.877 --   517 o    0.804
   519   1 h    0.892 --   517 o    0.852
   520   8 o    1.844 --   521 h    0.892   522 h    0.830
   521   1 h    0.903 --   520 o    0.892
   522   1 h    0.887 --   520 o    0.830
   523   8 o    1.848 --   524 h    0.877   525 h    0.802
   524   1 h    0.902 --   523 o    0.877
   525   1 h    0.882 --   523 o    0.802
   526   8 o    1.842 --   528 h    0.876   527 h    0.872
   527   1 h    0.891 --   526 o    0.872
   528   1 h    0.891 --   526 o    0.876
   529   8 o    1.785 --   531 h    0.856   530 h    0.821
   530   1 h    0.883 --   529 o    0.821
   531   1 h    0.893 --   529 o    0.856
 ---------------------------------------------------------------------------

Topologies differ in total number of bonds
Writing topology from bond orders to xtbtopo.mol

molecular dipole:
                 x           y           z       tot (Debye)
 q only:        3.115      -0.876       0.033
   full:        3.934      -0.732       0.251      10.190
molecular quadrupole (traceless):
                xx          xy          yy          xz          yz          zz
 q only:       71.916      -9.418     -21.665      46.447     -22.621     -50.252
  q+dip:       89.196      -9.108     -17.140      48.276     -28.167     -72.056
   full:       88.457      -8.866     -16.794      48.099     -29.664     -71.663


           -------------------------------------------------
          | TOTAL ENERGY             -901.182185444382 Eh   |
          | GRADIENT NORM               0.101705619150 Eh/α |
          | HOMO-LUMO GAP               6.316480644548 eV   |
           -------------------------------------------------

------------------------------------------------------------------------
 * finished run on 2022/11/17 at 06:55:17.820     
------------------------------------------------------------------------
 total:
 * wall-time:     0 d,  0 h,  0 min, 18.081 sec
 *  cpu-time:     0 d,  0 h,  0 min, 24.547 sec
 * ratio c/w:     1.358 speedup
 SCF:
 * wall-time:     0 d,  0 h,  0 min, 17.488 sec
 *  cpu-time:     0 d,  0 h,  0 min, 23.478 sec
 * ratio c/w:     1.342 speedup

