      -----------------------------------------------------------      
     |                   =====================                   |     
     |                           x T B                           |     
     |                   =====================                   |     
     |                         S. Grimme                         |     
     |          Mulliken Center for Theoretical Chemistry        |     
     |                    University of Bonn                     |     
      -----------------------------------------------------------      

   * xtb version 6.5.1 (579679a) compiled by 'ehlert@majestix' on 2022-07-11

   xtb is free software: you can redistribute it and/or modify it under
   the terms of the GNU Lesser General Public License as published by
   the Free Software Foundation, either version 3 of the License, or
   (at your option) any later version.
   
   xtb is distributed in the hope that it will be useful,
   but WITHOUT ANY WARRANTY; without even the implied warranty of
   MERCHANTABILITY or FITNESS FOR A PARTICULAR PURPOSE.  See the
   GNU Lesser General Public License for more details.
   
   Cite this work as:
   * C. Bannwarth, E. Caldeweyher, S. Ehlert, A. Hansen, P. Pracht,
     J. Seibert, S. Spicher, S. Grimme, WIREs Comput. Mol. Sci., 2020, 11,
     e01493. DOI: 10.1002/wcms.1493
   
   for GFN2-xTB:
   * C. Bannwarth, S. Ehlert and S. Grimme., J. Chem. Theory Comput., 2019,
     15, 1652-1671. DOI: 10.1021/acs.jctc.8b01176
   for GFN1-xTB:
   * S. Grimme, C. Bannwarth, P. Shushkov, J. Chem. Theory Comput., 2017,
     13, 1989-2009. DOI: 10.1021/acs.jctc.7b00118
   for GFN0-xTB:
   * P. Pracht, E. Caldeweyher, S. Ehlert, S. Grimme, ChemRxiv, 2019, preprint.
     DOI: 10.26434/chemrxiv.8326202.v1
   for GFN-FF:
   * S. Spicher and S. Grimme, Angew. Chem. Int. Ed., 2020, 59, 15665-15673.
     DOI: 10.1002/anie.202004239
   
   for ALPB and GBSA implicit solvation:
   * S. Ehlert, M. Stahn, S. Spicher, S. Grimme, J. Chem. Theory Comput.,
     2021, 17, 4250-4261. DOI: 10.1021/acs.jctc.1c00471
   
   for DFT-D4:
   * E. Caldeweyher, C. Bannwarth and S. Grimme, J. Chem. Phys., 2017,
     147, 034112. DOI: 10.1063/1.4993215
   * E. Caldeweyher, S. Ehlert, A. Hansen, H. Neugebauer, S. Spicher,
     C. Bannwarth and S. Grimme, J. Chem. Phys., 2019, 150, 154122.
     DOI: 10.1063/1.5090222
   * E. Caldeweyher, J.-M. Mewes, S. Ehlert and S. Grimme, Phys. Chem. Chem. Phys.
     2020, 22, 8499-8512. DOI: 10.1039/D0CP00502A
   
   for sTDA-xTB:
   * S. Grimme and C. Bannwarth, J. Chem. Phys., 2016, 145, 054103.
     DOI: 10.1063/1.4959605
   
   in the mass-spec context:
   * V. Asgeirsson, C. Bauer and S. Grimme, Chem. Sci., 2017, 8, 4879.
     DOI: 10.1039/c7sc00601b
   * J. Koopman and S. Grimme, ACS Omega 2019, 4, 12, 15120-15133.
     DOI: 10.1021/acsomega.9b02011
   
   for metadynamics refer to:
   * S. Grimme, J. Chem. Theory Comput., 2019, 155, 2847-2862
     DOI: 10.1021/acs.jctc.9b00143
   
   for SPH calculations refer to:
   * S. Spicher and S. Grimme, J. Chem. Theory Comput., 2021, 17, 1701-1714
     DOI: 10.1021/acs.jctc.0c01306
   
   with help from (in alphabetical order)
   P. Atkinson, C. Bannwarth, F. Bohle, G. Brandenburg, E. Caldeweyher
   M. Checinski, S. Dohm, S. Ehlert, S. Ehrlich, I. Gerasimov, C. Hölzer
   A. Katbashev, J. Koopman, C. Lavigne, S. Lehtola, F. März, M. Müller,
   F. Musil, H. Neugebauer, J. Pisarek, C. Plett, P. Pracht, F. Pultar,
   J. Seibert, P. Shushkov, S. Spicher, M. Stahn, M. Steiner, T. Strunk,
   J. Stückrath, T. Rose, and J. Unsleber
   
 * started run on 2022/11/17 at 06:54:49.177     

           -------------------------------------------------
          |                Calculation Setup                |
           -------------------------------------------------

          program call               : xtb xtbopt.coord --gfn2 --sp --gbsa water
          hostname                   : cn0363
          coordinate file            : xtbopt.coord
          omp threads                :                     2

   ID    Z sym.   atoms
    1    8 o      1, 4, 7, 10, 13, 16, 19, 22, 25, 28, 31, 34, 37, 40, 43,
                  46, 49, 52, 55, 58, 61, 64, 67, 70, 73, 76, 79, 82, 85, 88,
                  91, 94, 97, 100, 103, 106, 109, 112, 115, 118, 121, 124,
                  127, 130, 133, 136, 139, 142, 145, 148, 151, 154, 157, 160,
                  163, 166, 169, 172, 175, 178, 181, 184, 187, 190, 193, 196,
                  199, 202, 205, 208, 211, 214, 217, 220, 223, 226, 229, 232,
                  235, 238, 241, 244, 247, 250, 253, 256, 259, 262, 265, 268,
                  271, 274, 277, 280, 283, 286, 289, 292, 295, 298, 301, 304,
                  307, 310, 313, 316, 319, 322, 325, 328, 331, 334, 337, 340,
                  343, 346, 349, 352, 355, 358, 361, 364, 367, 370, 373, 376,
                  379, 382, 385, 388, 391, 394, 397, 400, 403, 406, 409, 412,
                  415, 418, 421, 424, 427, 430, 433, 436, 439, 442, 445, 448,
                  451, 454, 457, 460, 463, 466, 469, 472, 475, 478, 481, 484,
                  487, 490, 493, 496, 499, 502, 505, 508, 511, 514, 517, 520,
                  523, 526, 529
    2    1 h      2, 3, 5, 6, 8, 9, 11, 12, 14, 15, 17, 18, 20, 21, 23, 24,
                  26, 27, 29, 30, 32, 33, 35, 36, 38, 39, 41, 42, 44, 45, 47,
                  48, 50, 51, 53, 54, 56, 57, 59, 60, 62, 63, 65, 66, 68, 69,
                  71, 72, 74, 75, 77, 78, 80, 81, 83, 84, 86, 87, 89, 90, 92,
                  93, 95, 96, 98, 99, 101, 102, 104, 105, 107, 108, 110, 111,
                  113, 114, 116, 117, 119, 120, 122, 123, 125, 126, 128, 129,
                  131, 132, 134, 135, 137, 138, 140, 141, 143, 144, 146, 147,
                  149, 150, 152, 153, 155, 156, 158, 159, 161, 162, 164, 165,
                  167, 168, 170, 171, 173, 174, 176, 177, 179, 180, 182, 183,
                  185, 186, 188, 189, 191, 192, 194, 195, 197, 198, 200, 201,
                  203, 204, 206, 207, 209, 210, 212, 213, 215, 216, 218, 219,
                  221, 222, 224, 225, 227, 228, 230, 231, 233, 234, 236, 237,
                  239, 240, 242, 243, 245, 246, 248, 249, 251, 252, 254, 255,
                  257, 258, 260, 261, 263, 264, 266, 267, 269, 270, 272, 273,
                  275, 276, 278, 279, 281, 282, 284, 285, 287, 288, 290, 291,
                  293, 294, 296, 297, 299, 300, 302, 303, 305, 306, 308, 309,
                  311, 312, 314, 315, 317, 318, 320, 321, 323, 324, 326, 327,
                  329, 330, 332, 333, 335, 336, 338, 339, 341, 342, 344, 345,
                  347, 348, 350, 351, 353, 354, 356, 357, 359, 360, 362, 363,
                  365, 366, 368, 369, 371, 372, 374, 375, 377, 378, 380, 381,
                  383, 384, 386, 387, 389, 390, 392, 393, 395, 396, 398, 399,
                  401, 402, 404, 405, 407, 408, 410, 411, 413, 414, 416, 417,
                  419, 420, 422, 423, 425, 426, 428, 429, 431, 432, 434, 435,
                  437, 438, 440, 441, 443, 444, 446, 447, 449, 450, 452, 453,
                  455, 456, 458, 459, 461, 462, 464, 465, 467, 468, 470, 471,
                  473, 474, 476, 477, 479, 480, 482, 483, 485, 486, 488, 489,
                  491, 492, 494, 495, 497, 498, 500, 501, 503, 504, 506, 507,
                  509, 510, 512, 513, 515, 516, 518, 519, 521, 522, 524, 525,
                  527, 528, 530, 531

molecular fragmentation (1/2 indicates fragments):
111222222222222222222222222222222222222222222222222222222222222222222222
222222222222222222222222222222222222222222222222222222222222222222222222
222222222222222222222222222222222222222222222222222222222222222222222222
222222222222222222222222222222222222222222222222222222222222222222222222
222222222222222222222222222222222222222222222222222222222222222222222222
222222222222222222222222222222222222222222222222222222222222222222222222
222222222222222222222222222222222222222222222222222222222222222222222222
222222222222222222222222222
# atoms in fragment 1/2:     3   528
 fragment masses (1/2) :       18.02     3170.69
CMA distance (Bohr)    :   5.927
constraining FC (au)   :  0.0500

           -------------------------------------------------
          |                 G F N 2 - x T B                 |
           -------------------------------------------------

        Reference                      10.1021/acs.jctc.8b01176
      * Hamiltonian:
        H0-scaling (s, p, d)           1.850000    2.230000    2.230000
        zeta-weighting                 0.500000
      * Dispersion:
        s8                             2.700000
        a1                             0.520000
        a2                             5.000000
        s9                             5.000000
      * Repulsion:
        kExp                           1.500000    1.000000
        rExp                           1.000000
      * Coulomb:
        alpha                          2.000000
        third order                    shell-resolved
        anisotropic                    true
        a3                             3.000000
        a5                             4.000000
        cn-shift                       1.200000
        cn-exp                         4.000000
        max-rad                        5.000000

      * Solvation model:               GBSA
        Solvent                        water
        Parameter file                 internal GFN2-xTB/GBSA
        Dielectric constant                8.0200E+01
        Reference state                gsolv [1 M gas/solution]
        Free energy shift                  1.8574E-03 Eh       1.1656E+00 kcal/mol
        Temperature                        2.9815E+02 K
        Density                            1.0000E+00 kg/L
        Solvent mass                       1.8000E+01 g/mol
        Interaction kernel             Still
        Born radius scaling (c1)           1.5524E+00
        Born radii integrator          GBOBC
        Born offset                        2.4628E-02 a0       4.6540E-02 AA
        H-bond correction              true
        Ion screening                  false
        Surface tension                    1.0000E-05 Eh       1.5569E+01 dyn/cm
        Grid points                               230 per atom

          ...................................................
          :                      SETUP                      :
          :.................................................:
          :  # basis functions                1062          :
          :  # atomic orbitals                1062          :
          :  # shells                          708          :
          :  # electrons                      1416          :
          :  max. iterations                   250          :
          :  Hamiltonian                  GFN2-xTB          :
          :  restarted?                      false          :
          :  GBSA solvation                   true          :
          :  PC potential                    false          :
          :  electronic temp.          300.0000000     K    :
          :  accuracy                    1.0000000          :
          :  -> integral cutoff          0.2500000E+02      :
          :  -> integral neglect         0.1000000E-07      :
          :  -> SCF convergence          0.1000000E-05 Eh   :
          :  -> wf. convergence          0.1000000E-03 e    :
          :  Broyden damping             0.4000000          :
          ...................................................

 iter      E             dE          RMSdq      gap      omega  full diag
   1   -906.7542150 -0.906754E+03  0.408E+00    8.50       0.0  T
   2   -906.8169798 -0.627647E-01  0.241E+00    7.86       1.0  T
   3   -906.8424253 -0.254456E-01  0.229E-01    6.88       1.0  T
   4   -906.8464528 -0.402745E-02  0.498E-02    7.12       1.0  T
   5   -906.8465886 -0.135811E-03  0.314E-02    7.06       1.0  T
   6   -906.8466208 -0.322170E-04  0.359E-03    7.08       1.2  T
   7   -906.8466219 -0.107155E-05  0.819E-04    7.08       5.3  T
   8   -906.8466219 -0.317270E-07  0.452E-04    7.08       9.6  T
   9   -906.8466219 -0.180485E-07  0.980E-05    7.08      44.3  T

   *** convergence criteria satisfied after 9 iterations ***

         #    Occupation            Energy/Eh            Energy/eV
      -------------------------------------------------------------
         1        2.0000           -0.6631123             -18.0442
       ...           ...                  ...                  ...
       702        2.0000           -0.3461825              -9.4201
       703        2.0000           -0.3389297              -9.2227
       704        2.0000           -0.3385687              -9.2129
       705        2.0000           -0.3352874              -9.1236
       706        2.0000           -0.3311980              -9.0124
       707        2.0000           -0.3248327              -8.8391
       708        2.0000           -0.3117404              -8.4829 (HOMO)
       709                         -0.0517324              -1.4077 (LUMO)
       710                         -0.0450539              -1.2260
       711                         -0.0281797              -0.7668
       712                         -0.0265373              -0.7221
       713                         -0.0240012              -0.6531
       ...                                ...                  ...
      1062                          0.4875311              13.2664
      -------------------------------------------------------------
                  HL-Gap            0.2600080 Eh            7.0752 eV
             Fermi-level           -0.1817364 Eh           -4.9453 eV

 SCC (total)                   0 d,  0 h,  0 min,  8.469 sec
 SCC setup                      ...        0 min,  0.109 sec (  1.290%)
 Dispersion                     ...        0 min,  0.072 sec (  0.844%)
 classical contributions        ...        0 min,  0.016 sec (  0.185%)
 integral evaluation            ...        0 min,  0.479 sec (  5.656%)
 iterations                     ...        0 min,  2.975 sec ( 35.121%)
 molecular gradient             ...        0 min,  4.791 sec ( 56.568%)
 printout                       ...        0 min,  0.028 sec (  0.335%)

         :::::::::::::::::::::::::::::::::::::::::::::::::::::
         ::                     SUMMARY                     ::
         :::::::::::::::::::::::::::::::::::::::::::::::::::::
         :: total energy            -901.389667764253 Eh    ::
         :: total w/o Gsasa/hb      -901.201096502123 Eh    ::
         :: gradient norm              0.107142776817 Eh/a0 ::
         :: HOMO-LUMO gap              7.075178666818 eV    ::
         ::.................................................::
         :: SCC energy              -906.846621924619 Eh    ::
         :: -> isotropic ES            5.266946502486 Eh    ::
         :: -> anisotropic ES         -1.128010859582 Eh    ::
         :: -> anisotropic XC         -0.086668039581 Eh    ::
         :: -> dispersion             -0.530020730614 Eh    ::
         :: -> Gsolv                  -0.219697006820 Eh    ::
         ::    -> Gelec               -0.031125744690 Eh    ::
         ::    -> Gsasa                0.003897579895 Eh    ::
         ::    -> Ghb                 -0.194326285151 Eh    ::
         ::    -> Gshift               0.001857443127 Eh    ::
         :: repulsion energy           5.362502038987 Eh    ::
         :: add. restraining           0.000000000000 Eh    ::
         :: total charge               0.000000000000 e     ::
         :::::::::::::::::::::::::::::::::::::::::::::::::::::

           -------------------------------------------------
          |                Property Printout                |
           -------------------------------------------------

    * Orbital Energies and Occupations

         #    Occupation            Energy/Eh            Energy/eV
      -------------------------------------------------------------
         1        2.0000           -0.6631123             -18.0442
       ...           ...                  ...                  ...
       696        2.0000           -0.3542308              -9.6391
       697        2.0000           -0.3535800              -9.6214
       698        2.0000           -0.3527109              -9.5978
       699        2.0000           -0.3516011              -9.5676
       700        2.0000           -0.3502559              -9.5309
       701        2.0000           -0.3482906              -9.4775
       702        2.0000           -0.3461825              -9.4201
       703        2.0000           -0.3389297              -9.2227
       704        2.0000           -0.3385687              -9.2129
       705        2.0000           -0.3352874              -9.1236
       706        2.0000           -0.3311980              -9.0124
       707        2.0000           -0.3248327              -8.8391
       708        2.0000           -0.3117404              -8.4829 (HOMO)
       709                         -0.0517324              -1.4077 (LUMO)
       710                         -0.0450539              -1.2260
       711                         -0.0281797              -0.7668
       712                         -0.0265373              -0.7221
       713                         -0.0240012              -0.6531
       714                         -0.0130176              -0.3542
       715                         -0.0094963              -0.2584
       716                         -0.0008742              -0.0238
       717                          0.0018509               0.0504
       718                          0.0082088               0.2234
       719                          0.0090110               0.2452
       ...                                ...                  ...
      1062                          0.4875311              13.2664
      -------------------------------------------------------------
                  HL-Gap            0.2600080 Eh            7.0752 eV
             Fermi-level           -0.1817364 Eh           -4.9453 eV

     #   Z          covCN         q      C6AA      α(0)
     1   8 o        1.606    -0.702    27.757     7.111
     2   1 h        0.803     0.338     0.618     1.235
     3   1 h        0.803     0.337     0.619     1.236
     4   8 o        1.608    -0.670    26.932     7.004
     5   1 h        0.804     0.333     0.630     1.247
     6   1 h        0.804     0.357     0.572     1.188
     7   8 o        1.608    -0.684    27.282     7.049
     8   1 h        0.804     0.337     0.619     1.236
     9   1 h        0.804     0.345     0.601     1.217
    10   8 o        1.608    -0.661    26.698     6.974
    11   1 h        0.805     0.326     0.647     1.264
    12   1 h        0.803     0.340     0.612     1.229
    13   8 o        1.608    -0.667    26.857     6.994
    14   1 h        0.803     0.327     0.644     1.261
    15   1 h        0.805     0.339     0.614     1.231
    16   8 o        1.606    -0.694    27.546     7.083
    17   1 h        0.804     0.349     0.591     1.208
    18   1 h        0.803     0.333     0.629     1.246
    19   8 o        1.606    -0.687    27.372     7.061
    20   1 h        0.803     0.348     0.592     1.209
    21   1 h        0.803     0.343     0.606     1.223
    22   8 o        1.609    -0.660    26.664     6.969
    23   1 h        0.803     0.347     0.595     1.211
    24   1 h        0.805     0.327     0.646     1.263
    25   8 o        1.608    -0.671    26.939     7.005
    26   1 h        0.805     0.342     0.606     1.223
    27   1 h        0.804     0.342     0.607     1.224
    28   8 o        1.608    -0.675    27.064     7.021
    29   1 h        0.804     0.356     0.575     1.191
    30   1 h        0.804     0.323     0.655     1.272
    31   8 o        1.608    -0.652    26.468     6.944
    32   1 h        0.804     0.338     0.616     1.233
    33   1 h        0.804     0.346     0.598     1.215
    34   8 o        1.605    -0.707    27.891     7.128
    35   1 h        0.803     0.333     0.629     1.246
    36   1 h        0.802     0.336     0.623     1.240
    37   8 o        1.608    -0.674    27.034     7.017
    38   1 h        0.804     0.346     0.598     1.215
    39   1 h        0.804     0.345     0.601     1.218
    40   8 o        1.609    -0.670    26.917     7.002
    41   1 h        0.803     0.357     0.573     1.189
    42   1 h        0.805     0.347     0.594     1.211
    43   8 o        1.607    -0.677    27.117     7.028
    44   1 h        0.803     0.324     0.654     1.271
    45   1 h        0.804     0.353     0.582     1.199
    46   8 o        1.610    -0.678    27.128     7.030
    47   1 h        0.804     0.347     0.596     1.212
    48   1 h        0.804     0.338     0.616     1.233
    49   8 o        1.603    -0.703    27.801     7.116
    50   1 h        0.803     0.343     0.604     1.221
    51   1 h        0.803     0.350     0.588     1.205
    52   8 o        1.608    -0.669    26.900     7.000
    53   1 h        0.805     0.313     0.684     1.299
    54   1 h        0.803     0.338     0.619     1.235
    55   8 o        1.605    -0.704    27.812     7.118
    56   1 h        0.803     0.344     0.602     1.218
    57   1 h        0.803     0.352     0.584     1.200
    58   8 o        1.606    -0.701    27.741     7.109
    59   1 h        0.803     0.348     0.594     1.210
    60   1 h        0.802     0.353     0.582     1.199
    61   8 o        1.608    -0.662    26.728     6.978
    62   1 h        0.805     0.331     0.634     1.251
    63   1 h        0.803     0.343     0.604     1.221
    64   8 o        1.604    -0.709    27.956     7.136
    65   1 h        0.802     0.350     0.590     1.206
    66   1 h        0.802     0.349     0.591     1.208
    67   8 o        1.608    -0.680    27.191     7.038
    68   1 h        0.804     0.326     0.649     1.265
    69   1 h        0.803     0.357     0.572     1.188
    70   8 o        1.605    -0.680    27.197     7.038
    71   1 h        0.802     0.341     0.609     1.226
    72   1 h        0.803     0.330     0.638     1.255
    73   8 o        1.610    -0.688    27.405     7.065
    74   1 h        0.804     0.344     0.603     1.220
    75   1 h        0.804     0.342     0.608     1.225
    76   8 o        1.609    -0.664    26.777     6.984
    77   1 h        0.805     0.332     0.632     1.249
    78   1 h        0.805     0.332     0.632     1.248
    79   8 o        1.608    -0.680    27.181     7.036
    80   1 h        0.805     0.326     0.647     1.263
    81   1 h        0.803     0.349     0.590     1.207
    82   8 o        1.610    -0.677    27.117     7.028
    83   1 h        0.804     0.334     0.628     1.245
    84   1 h        0.803     0.333     0.629     1.246
    85   8 o        1.610    -0.652    26.456     6.942
    86   1 h        0.804     0.356     0.575     1.191
    87   1 h        0.806     0.312     0.686     1.301
    88   8 o        1.608    -0.678    27.135     7.031
    89   1 h        0.804     0.335     0.624     1.241
    90   1 h        0.804     0.342     0.607     1.224
    91   8 o        1.609    -0.667    26.849     6.993
    92   1 h        0.804     0.331     0.634     1.251
    93   1 h        0.805     0.336     0.622     1.238
    94   8 o        1.610    -0.641    26.193     6.907
    95   1 h        0.805     0.338     0.618     1.234
    96   1 h        0.805     0.322     0.658     1.274
    97   8 o        1.607    -0.702    27.753     7.110
    98   1 h        0.803     0.340     0.612     1.229
    99   1 h        0.804     0.323     0.655     1.271
   100   8 o        1.607    -0.670    26.927     7.003
   101   1 h        0.804     0.349     0.590     1.207
   102   1 h        0.804     0.338     0.618     1.235
   103   8 o        1.607    -0.674    27.027     7.016
   104   1 h        0.803     0.351     0.586     1.203
   105   1 h        0.804     0.329     0.639     1.256
   106   8 o        1.608    -0.687    27.370     7.061
   107   1 h        0.803     0.350     0.589     1.206
   108   1 h        0.804     0.332     0.633     1.249
   109   8 o        1.607    -0.677    27.107     7.027
   110   1 h        0.804     0.347     0.596     1.213
   111   1 h        0.803     0.345     0.600     1.217
   112   8 o        1.607    -0.691    27.460     7.072
   113   1 h        0.804     0.339     0.614     1.231
   114   1 h        0.804     0.348     0.592     1.209
   115   8 o        1.606    -0.688    27.390     7.063
   116   1 h        0.803     0.344     0.601     1.218
   117   1 h        0.803     0.354     0.579     1.195
   118   8 o        1.608    -0.675    27.043     7.019
   119   1 h        0.804     0.331     0.634     1.250
   120   1 h        0.804     0.334     0.628     1.245
   121   8 o        1.608    -0.678    27.132     7.030
   122   1 h        0.804     0.324     0.653     1.269
   123   1 h        0.803     0.360     0.564     1.180
   124   8 o        1.606    -0.663    26.735     6.978
   125   1 h        0.802     0.341     0.611     1.228
   126   1 h        0.805     0.314     0.681     1.296
   127   8 o        1.608    -0.670    26.919     7.002
   128   1 h        0.804     0.331     0.634     1.251
   129   1 h        0.804     0.317     0.671     1.287
   130   8 o        1.608    -0.683    27.268     7.048
   131   1 h        0.803     0.355     0.577     1.193
   132   1 h        0.804     0.316     0.675     1.290
   133   8 o        1.608    -0.663    26.746     6.980
   134   1 h        0.803     0.329     0.639     1.256
   135   1 h        0.805     0.336     0.621     1.238
   136   8 o        1.606    -0.665    26.806     6.988
   137   1 h        0.806     0.319     0.666     1.282
   138   1 h        0.802     0.346     0.599     1.216
   139   8 o        1.608    -0.670    26.926     7.003
   140   1 h        0.804     0.342     0.607     1.224
   141   1 h        0.804     0.332     0.634     1.250
   142   8 o        1.607    -0.682    27.249     7.045
   143   1 h        0.802     0.361     0.563     1.179
   144   1 h        0.805     0.330     0.637     1.254
   145   8 o        1.609    -0.666    26.820     6.990
   146   1 h        0.805     0.316     0.675     1.290
   147   1 h        0.804     0.350     0.588     1.205
   148   8 o        1.610    -0.641    26.196     6.908
   149   1 h        0.804     0.343     0.604     1.221
   150   1 h        0.805     0.322     0.658     1.275
   151   8 o        1.608    -0.666    26.818     6.989
   152   1 h        0.805     0.325     0.650     1.266
   153   1 h        0.803     0.360     0.565     1.181
   154   8 o        1.608    -0.681    27.207     7.040
   155   1 h        0.803     0.342     0.607     1.224
   156   1 h        0.805     0.316     0.676     1.291
   157   8 o        1.611    -0.627    25.852     6.862
   158   1 h        0.806     0.320     0.664     1.280
   159   1 h        0.805     0.331     0.634     1.251
   160   8 o        1.608    -0.647    26.337     6.926
   161   1 h        0.804     0.348     0.593     1.210
   162   1 h        0.803     0.359     0.567     1.183
   163   8 o        1.608    -0.654    26.525     6.951
   164   1 h        0.805     0.322     0.658     1.274
   165   1 h        0.803     0.347     0.595     1.212
   166   8 o        1.602    -0.686    27.349     7.058
   167   1 h        0.803     0.346     0.599     1.215
   168   1 h        0.805     0.325     0.649     1.266
   169   8 o        1.607    -0.675    27.047     7.019
   170   1 h        0.804     0.335     0.625     1.242
   171   1 h        0.803     0.333     0.630     1.247
   172   8 o        1.609    -0.668    26.862     6.995
   173   1 h        0.804     0.327     0.644     1.261
   174   1 h        0.805     0.328     0.643     1.260
   175   8 o        1.607    -0.680    27.190     7.038
   176   1 h        0.803     0.333     0.631     1.248
   177   1 h        0.803     0.342     0.606     1.223
   178   8 o        1.608    -0.668    26.863     6.995
   179   1 h        0.803     0.352     0.583     1.199
   180   1 h        0.805     0.316     0.674     1.289
   181   8 o        1.607    -0.684    27.297     7.051
   182   1 h        0.803     0.352     0.584     1.201
   183   1 h        0.804     0.349     0.592     1.208
   184   8 o        1.608    -0.675    27.063     7.021
   185   1 h        0.803     0.363     0.560     1.175
   186   1 h        0.805     0.344     0.601     1.218
   187   8 o        1.607    -0.679    27.151     7.033
   188   1 h        0.802     0.365     0.554     1.169
   189   1 h        0.805     0.317     0.673     1.289
   190   8 o        1.605    -0.702    27.767     7.112
   191   1 h        0.803     0.364     0.557     1.172
   192   1 h        0.804     0.330     0.637     1.254
   193   8 o        1.607    -0.666    26.810     6.988
   194   1 h        0.803     0.330     0.639     1.255
   195   1 h        0.804     0.328     0.643     1.259
   196   8 o        1.607    -0.677    27.096     7.025
   197   1 h        0.803     0.354     0.579     1.195
   198   1 h        0.805     0.335     0.625     1.241
   199   8 o        1.607    -0.684    27.297     7.051
   200   1 h        0.803     0.344     0.602     1.219
   201   1 h        0.804     0.348     0.592     1.209
   202   8 o        1.609    -0.646    26.303     6.922
   203   1 h        0.805     0.323     0.655     1.271
   204   1 h        0.804     0.340     0.613     1.230
   205   8 o        1.607    -0.669    26.895     6.999
   206   1 h        0.805     0.332     0.633     1.249
   207   1 h        0.802     0.334     0.627     1.244
   208   8 o        1.608    -0.686    27.332     7.056
   209   1 h        0.804     0.327     0.644     1.261
   210   1 h        0.804     0.340     0.612     1.229
   211   8 o        1.610    -0.660    26.679     6.971
   212   1 h        0.805     0.321     0.661     1.277
   213   1 h        0.805     0.341     0.609     1.226
   214   8 o        1.607    -0.659    26.639     6.966
   215   1 h        0.803     0.341     0.611     1.228
   216   1 h        0.804     0.329     0.639     1.256
   217   8 o        1.606    -0.674    27.034     7.017
   218   1 h        0.805     0.325     0.650     1.266
   219   1 h        0.802     0.335     0.626     1.243
   220   8 o        1.608    -0.668    26.871     6.996
   221   1 h        0.805     0.323     0.655     1.271
   222   1 h        0.803     0.341     0.611     1.228
   223   8 o        1.609    -0.660    26.675     6.971
   224   1 h        0.805     0.337     0.621     1.237
   225   1 h        0.804     0.342     0.608     1.225
   226   8 o        1.608    -0.706    27.871     7.125
   227   1 h        0.804     0.345     0.600     1.216
   228   1 h        0.804     0.346     0.598     1.215
   229   8 o        1.607    -0.692    27.490     7.076
   230   1 h        0.803     0.356     0.576     1.192
   231   1 h        0.804     0.335     0.625     1.242
   232   8 o        1.606    -0.705    27.857     7.123
   233   1 h        0.803     0.342     0.607     1.224
   234   1 h        0.804     0.338     0.618     1.235
   235   8 o        1.607    -0.690    27.435     7.069
   236   1 h        0.805     0.319     0.666     1.282
   237   1 h        0.802     0.360     0.566     1.181
   238   8 o        1.607    -0.675    27.063     7.021
   239   1 h        0.803     0.330     0.638     1.255
   240   1 h        0.804     0.344     0.603     1.220
   241   8 o        1.608    -0.689    27.415     7.067
   242   1 h        0.805     0.328     0.643     1.259
   243   1 h        0.804     0.347     0.595     1.212
   244   8 o        1.608    -0.685    27.303     7.052
   245   1 h        0.804     0.341     0.609     1.226
   246   1 h        0.804     0.342     0.608     1.225
   247   8 o        1.607    -0.683    27.255     7.046
   248   1 h        0.803     0.357     0.571     1.188
   249   1 h        0.804     0.345     0.600     1.216
   250   8 o        1.607    -0.670    26.927     7.003
   251   1 h        0.803     0.331     0.634     1.251
   252   1 h        0.804     0.329     0.639     1.256
   253   8 o        1.609    -0.678    27.139     7.031
   254   1 h        0.804     0.348     0.592     1.209
   255   1 h        0.805     0.324     0.652     1.268
   256   8 o        1.609    -0.673    26.992     7.012
   257   1 h        0.805     0.329     0.640     1.257
   258   1 h        0.805     0.347     0.595     1.212
   259   8 o        1.608    -0.653    26.502     6.948
   260   1 h        0.804     0.336     0.622     1.239
   261   1 h        0.804     0.345     0.600     1.217
   262   8 o        1.610    -0.653    26.500     6.948
   263   1 h        0.804     0.345     0.600     1.216
   264   1 h        0.806     0.319     0.668     1.283
   265   8 o        1.609    -0.666    26.829     6.991
   266   1 h        0.805     0.320     0.664     1.280
   267   1 h        0.804     0.331     0.636     1.253
   268   8 o        1.606    -0.691    27.484     7.076
   269   1 h        0.803     0.348     0.594     1.211
   270   1 h        0.803     0.349     0.590     1.207
   271   8 o        1.607    -0.678    27.132     7.030
   272   1 h        0.803     0.327     0.646     1.263
   273   1 h        0.804     0.332     0.631     1.248
   274   8 o        1.604    -0.725    28.393     7.192
   275   1 h        0.803     0.343     0.605     1.221
   276   1 h        0.802     0.346     0.598     1.215
   277   8 o        1.609    -0.670    26.937     7.005
   278   1 h        0.804     0.342     0.607     1.223
   279   1 h        0.805     0.319     0.667     1.283
   280   8 o        1.607    -0.683    27.275     7.049
   281   1 h        0.804     0.329     0.640     1.257
   282   1 h        0.803     0.351     0.585     1.202
   283   8 o        1.607    -0.701    27.749     7.110
   284   1 h        0.803     0.341     0.609     1.226
   285   1 h        0.804     0.333     0.629     1.246
   286   8 o        1.607    -0.673    27.002     7.013
   287   1 h        0.801     0.352     0.584     1.201
   288   1 h        0.806     0.315     0.676     1.292
   289   8 o        1.607    -0.687    27.380     7.062
   290   1 h        0.804     0.334     0.627     1.244
   291   1 h        0.802     0.363     0.558     1.174
   292   8 o        1.607    -0.685    27.312     7.053
   293   1 h        0.804     0.335     0.625     1.242
   294   1 h        0.804     0.331     0.635     1.252
   295   8 o        1.609    -0.664    26.782     6.985
   296   1 h        0.804     0.340     0.613     1.230
   297   1 h        0.804     0.314     0.680     1.295
   298   8 o        1.608    -0.667    26.849     6.993
   299   1 h        0.805     0.330     0.638     1.255
   300   1 h        0.803     0.337     0.620     1.237
   301   8 o        1.608    -0.666    26.812     6.989
   302   1 h        0.804     0.337     0.619     1.236
   303   1 h        0.804     0.345     0.599     1.216
   304   8 o        1.607    -0.691    27.461     7.073
   305   1 h        0.806     0.306     0.704     1.318
   306   1 h        0.802     0.357     0.573     1.189
   307   8 o        1.606    -0.679    27.153     7.033
   308   1 h        0.802     0.365     0.555     1.171
   309   1 h        0.804     0.334     0.627     1.244
   310   8 o        1.607    -0.680    27.192     7.038
   311   1 h        0.803     0.347     0.596     1.213
   312   1 h        0.803     0.338     0.617     1.234
   313   8 o        1.606    -0.698    27.656     7.098
   314   1 h        0.804     0.325     0.650     1.266
   315   1 h        0.802     0.356     0.574     1.190
   316   8 o        1.607    -0.674    27.021     7.016
   317   1 h        0.803     0.344     0.603     1.219
   318   1 h        0.804     0.346     0.598     1.214
   319   8 o        1.606    -0.698    27.648     7.097
   320   1 h        0.802     0.361     0.564     1.180
   321   1 h        0.804     0.324     0.652     1.268
   322   8 o        1.605    -0.699    27.698     7.103
   323   1 h        0.804     0.337     0.620     1.237
   324   1 h        0.803     0.364     0.558     1.173
   325   8 o        1.609    -0.663    26.754     6.981
   326   1 h        0.805     0.315     0.677     1.292
   327   1 h        0.804     0.332     0.632     1.249
   328   8 o        1.609    -0.670    26.927     7.004
   329   1 h        0.804     0.337     0.621     1.237
   330   1 h        0.805     0.335     0.624     1.241
   331   8 o        1.608    -0.696    27.597     7.090
   332   1 h        0.805     0.330     0.637     1.254
   333   1 h        0.803     0.353     0.582     1.198
   334   8 o        1.607    -0.689    27.414     7.067
   335   1 h        0.804     0.333     0.630     1.247
   336   1 h        0.804     0.344     0.602     1.218
   337   8 o        1.607    -0.682    27.240     7.044
   338   1 h        0.804     0.327     0.644     1.261
   339   1 h        0.803     0.359     0.569     1.185
   340   8 o        1.607    -0.664    26.778     6.984
   341   1 h        0.805     0.327     0.646     1.262
   342   1 h        0.803     0.337     0.621     1.238
   343   8 o        1.610    -0.660    26.680     6.971
   344   1 h        0.805     0.325     0.650     1.266
   345   1 h        0.804     0.340     0.613     1.230
   346   8 o        1.606    -0.688    27.408     7.066
   347   1 h        0.803     0.340     0.613     1.230
   348   1 h        0.803     0.343     0.605     1.222
   349   8 o        1.607    -0.700    27.717     7.105
   350   1 h        0.803     0.352     0.583     1.200
   351   1 h        0.804     0.340     0.613     1.230
   352   8 o        1.608    -0.653    26.487     6.946
   353   1 h        0.803     0.345     0.600     1.217
   354   1 h        0.805     0.316     0.674     1.290
   355   8 o        1.607    -0.678    27.127     7.029
   356   1 h        0.805     0.316     0.674     1.289
   357   1 h        0.803     0.350     0.589     1.205
   358   8 o        1.606    -0.676    27.079     7.023
   359   1 h        0.806     0.313     0.683     1.298
   360   1 h        0.801     0.363     0.560     1.176
   361   8 o        1.607    -0.673    26.994     7.012
   362   1 h        0.804     0.331     0.635     1.252
   363   1 h        0.803     0.342     0.606     1.223
   364   8 o        1.608    -0.669    26.898     7.000
   365   1 h        0.803     0.357     0.572     1.188
   366   1 h        0.805     0.319     0.665     1.281
   367   8 o        1.608    -0.683    27.260     7.047
   368   1 h        0.804     0.339     0.614     1.231
   369   1 h        0.804     0.328     0.644     1.260
   370   8 o        1.608    -0.674    27.037     7.018
   371   1 h        0.804     0.326     0.647     1.263
   372   1 h        0.804     0.330     0.636     1.253
   373   8 o        1.608    -0.670    26.914     7.002
   374   1 h        0.803     0.347     0.595     1.212
   375   1 h        0.804     0.326     0.649     1.265
   376   8 o        1.608    -0.683    27.257     7.046
   377   1 h        0.803     0.345     0.599     1.216
   378   1 h        0.805     0.319     0.666     1.281
   379   8 o        1.606    -0.681    27.205     7.039
   380   1 h        0.802     0.337     0.619     1.236
   381   1 h        0.803     0.343     0.604     1.221
   382   8 o        1.608    -0.672    26.987     7.011
   383   1 h        0.805     0.327     0.646     1.262
   384   1 h        0.803     0.361     0.563     1.179
   385   8 o        1.609    -0.674    27.023     7.016
   386   1 h        0.805     0.334     0.627     1.244
   387   1 h        0.803     0.347     0.596     1.213
   388   8 o        1.608    -0.691    27.460     7.072
   389   1 h        0.804     0.320     0.663     1.279
   390   1 h        0.803     0.337     0.619     1.236
   391   8 o        1.610    -0.662    26.712     6.976
   392   1 h        0.805     0.329     0.641     1.257
   393   1 h        0.805     0.338     0.617     1.234
   394   8 o        1.608    -0.664    26.767     6.983
   395   1 h        0.804     0.345     0.601     1.217
   396   1 h        0.804     0.325     0.651     1.267
   397   8 o        1.607    -0.684    27.279     7.049
   398   1 h        0.804     0.328     0.643     1.259
   399   1 h        0.803     0.350     0.587     1.204
   400   8 o        1.609    -0.661    26.686     6.972
   401   1 h        0.805     0.318     0.669     1.285
   402   1 h        0.804     0.348     0.592     1.208
   403   8 o        1.606    -0.663    26.756     6.981
   404   1 h        0.803     0.338     0.617     1.234
   405   1 h        0.803     0.333     0.631     1.247
   406   8 o        1.610    -0.655    26.536     6.953
   407   1 h        0.805     0.323     0.656     1.272
   408   1 h        0.805     0.335     0.623     1.240
   409   8 o        1.607    -0.675    27.054     7.020
   410   1 h        0.804     0.335     0.624     1.241
   411   1 h        0.803     0.328     0.643     1.259
   412   8 o        1.609    -0.668    26.870     6.996
   413   1 h        0.805     0.320     0.664     1.280
   414   1 h        0.804     0.344     0.602     1.219
   415   8 o        1.605    -0.686    27.354     7.059
   416   1 h        0.801     0.364     0.557     1.173
   417   1 h        0.804     0.328     0.643     1.260
   418   8 o        1.609    -0.663    26.733     6.978
   419   1 h        0.804     0.344     0.602     1.219
   420   1 h        0.805     0.334     0.626     1.243
   421   8 o        1.606    -0.693    27.525     7.081
   422   1 h        0.803     0.347     0.596     1.213
   423   1 h        0.803     0.329     0.640     1.257
   424   8 o        1.608    -0.666    26.819     6.989
   425   1 h        0.803     0.357     0.572     1.188
   426   1 h        0.805     0.315     0.677     1.292
   427   8 o        1.608    -0.682    27.244     7.045
   428   1 h        0.805     0.326     0.647     1.263
   429   1 h        0.803     0.328     0.643     1.260
   430   8 o        1.608    -0.660    26.673     6.970
   431   1 h        0.802     0.351     0.585     1.202
   432   1 h        0.806     0.318     0.670     1.285
   433   8 o        1.605    -0.670    26.925     7.003
   434   1 h        0.802     0.339     0.616     1.233
   435   1 h        0.803     0.325     0.650     1.267
   436   8 o        1.607    -0.662    26.729     6.978
   437   1 h        0.802     0.341     0.610     1.227
   438   1 h        0.805     0.335     0.626     1.242
   439   8 o        1.608    -0.660    26.659     6.969
   440   1 h        0.804     0.328     0.643     1.259
   441   1 h        0.804     0.328     0.643     1.259
   442   8 o        1.605    -0.695    27.568     7.086
   443   1 h        0.804     0.331     0.635     1.252
   444   1 h        0.802     0.360     0.566     1.182
   445   8 o        1.606    -0.678    27.122     7.029
   446   1 h        0.801     0.353     0.582     1.199
   447   1 h        0.806     0.315     0.676     1.291
   448   8 o        1.609    -0.668    26.882     6.998
   449   1 h        0.804     0.331     0.636     1.252
   450   1 h        0.804     0.338     0.616     1.233
   451   8 o        1.607    -0.664    26.776     6.984
   452   1 h        0.804     0.324     0.653     1.269
   453   1 h        0.803     0.364     0.557     1.173
   454   8 o        1.609    -0.668    26.884     6.998
   455   1 h        0.804     0.339     0.614     1.231
   456   1 h        0.805     0.332     0.633     1.250
   457   8 o        1.609    -0.653    26.499     6.948
   458   1 h        0.805     0.311     0.690     1.304
   459   1 h        0.804     0.338     0.616     1.233
   460   8 o        1.608    -0.673    27.006     7.014
   461   1 h        0.802     0.359     0.568     1.184
   462   1 h        0.804     0.357     0.572     1.188
   463   8 o        1.607    -0.675    27.065     7.021
   464   1 h        0.803     0.345     0.600     1.217
   465   1 h        0.804     0.341     0.611     1.228
   466   8 o        1.608    -0.666    26.814     6.989
   467   1 h        0.804     0.339     0.614     1.231
   468   1 h        0.804     0.320     0.663     1.279
   469   8 o        1.608    -0.671    26.963     7.008
   470   1 h        0.805     0.324     0.652     1.269
   471   1 h        0.803     0.337     0.620     1.237
   472   8 o        1.609    -0.645    26.295     6.921
   473   1 h        0.806     0.317     0.672     1.287
   474   1 h        0.803     0.339     0.615     1.232
   475   8 o        1.607    -0.666    26.829     6.991
   476   1 h        0.803     0.331     0.634     1.251
   477   1 h        0.804     0.338     0.617     1.234
   478   8 o        1.609    -0.669    26.897     7.000
   479   1 h        0.804     0.331     0.636     1.253
   480   1 h        0.804     0.331     0.635     1.252
   481   8 o        1.606    -0.690    27.459     7.072
   482   1 h        0.804     0.329     0.641     1.257
   483   1 h        0.803     0.356     0.575     1.191
   484   8 o        1.608    -0.685    27.323     7.055
   485   1 h        0.804     0.355     0.576     1.192
   486   1 h        0.803     0.356     0.574     1.190
   487   8 o        1.610    -0.630    25.907     6.870
   488   1 h        0.806     0.310     0.691     1.306
   489   1 h        0.805     0.338     0.617     1.233
   490   8 o        1.607    -0.677    27.106     7.027
   491   1 h        0.804     0.345     0.600     1.217
   492   1 h        0.804     0.330     0.638     1.255
   493   8 o        1.607    -0.697    27.639     7.095
   494   1 h        0.803     0.353     0.581     1.197
   495   1 h        0.804     0.348     0.593     1.209
   496   8 o        1.606    -0.704    27.826     7.119
   497   1 h        0.803     0.351     0.586     1.203
   498   1 h        0.804     0.328     0.644     1.260
   499   8 o        1.606    -0.682    27.230     7.043
   500   1 h        0.802     0.356     0.575     1.191
   501   1 h        0.804     0.321     0.660     1.276
   502   8 o        1.610    -0.646    26.321     6.924
   503   1 h        0.805     0.324     0.652     1.269
   504   1 h        0.805     0.345     0.601     1.217
   505   8 o        1.608    -0.649    26.392     6.934
   506   1 h        0.804     0.334     0.628     1.244
   507   1 h        0.804     0.330     0.638     1.255
   508   8 o        1.607    -0.673    27.001     7.013
   509   1 h        0.802     0.365     0.554     1.169
   510   1 h        0.806     0.309     0.694     1.308
   511   8 o        1.609    -0.676    27.085     7.024
   512   1 h        0.804     0.340     0.612     1.229
   513   1 h        0.804     0.342     0.607     1.224
   514   8 o        1.612    -0.680    27.186     7.037
   515   1 h        0.804     0.335     0.624     1.241
   516   1 h        0.803     0.341     0.611     1.228
   517   8 o        1.607    -0.688    27.392     7.064
   518   1 h        0.803     0.355     0.576     1.192
   519   1 h        0.805     0.329     0.639     1.256
   520   8 o        1.608    -0.666    26.829     6.991
   521   1 h        0.805     0.324     0.653     1.269
   522   1 h        0.803     0.343     0.606     1.223
   523   8 o        1.607    -0.674    27.034     7.017
   524   1 h        0.805     0.323     0.655     1.271
   525   1 h        0.802     0.346     0.597     1.214
   526   8 o        1.610    -0.629    25.887     6.867
   527   1 h        0.805     0.324     0.653     1.269
   528   1 h        0.805     0.322     0.657     1.273
   529   8 o        1.608    -0.682    27.225     7.042
   530   1 h        0.803     0.331     0.636     1.252
   531   1 h        0.805     0.322     0.658     1.274

 Mol. C6AA /au·bohr⁶  :    1428557.779091
 Mol. C8AA /au·bohr⁸  :   25905475.183991
 Mol. α(0) /au        :       1680.114130


Wiberg/Mayer (AO) data.
largest (>0.10) Wiberg bond orders for each atom

 ---------------------------------------------------------------------------
     #   Z sym  total        # sym  WBO       # sym  WBO       # sym  WBO
 ---------------------------------------------------------------------------
     1   8 o    1.834 --     2 h    0.822     3 h    0.814
     2   1 h    0.886 --     1 o    0.822
     3   1 h    0.886 --     1 o    0.814
     4   8 o    1.869 --     5 h    0.834     6 h    0.816
     5   1 h    0.889 --     4 o    0.834
     6   1 h    0.872 --     4 o    0.816
     7   8 o    1.831 --     8 h    0.828     9 h    0.826
     8   1 h    0.886 --     7 o    0.828
     9   1 h    0.881 --     7 o    0.826
    10   8 o    1.866 --    11 h    0.855    12 h    0.808
    11   1 h    0.894 --    10 o    0.855
    12   1 h    0.884 --    10 o    0.808
    13   8 o    1.851 --    15 h    0.844    14 h    0.829
    14   1 h    0.893 --    13 o    0.829
    15   1 h    0.885 --    13 o    0.844
    16   8 o    1.864 --    18 h    0.808    17 h    0.805
    17   1 h    0.878 --    16 o    0.805
    18   1 h    0.889 --    16 o    0.808
    19   8 o    1.881 --    21 h    0.814    20 h    0.792
    20   1 h    0.879 --    19 o    0.792
    21   1 h    0.883 --    19 o    0.814
    22   8 o    1.834 --    24 h    0.890    23 h    0.828
    23   1 h    0.879 --    22 o    0.828
    24   1 h    0.893 --    22 o    0.890
    25   8 o    1.858 --    26 h    0.844    27 h    0.817
    26   1 h    0.883 --    25 o    0.844
    27   1 h    0.883 --    25 o    0.817
    28   8 o    1.863 --    30 h    0.834    29 h    0.806
    29   1 h    0.873 --    28 o    0.806
    30   1 h    0.895 --    28 o    0.834
    31   8 o    1.894 --    32 h    0.846    33 h    0.829
    32   1 h    0.885 --    31 o    0.846
    33   1 h    0.880 --    31 o    0.829
    34   8 o    1.816 --    35 h    0.809    36 h    0.801
    35   1 h    0.889 --    34 o    0.809
    36   1 h    0.887 --    34 o    0.801
    37   8 o    1.873 --    39 h    0.822    38 h    0.819
    38   1 h    0.880 --    37 o    0.819
    39   1 h    0.881 --    37 o    0.822
    40   8 o    1.898 --    42 h    0.832    41 h    0.801
    41   1 h    0.873 --    40 o    0.801
    42   1 h    0.879 --    40 o    0.832
    43   8 o    1.849 --    44 h    0.828    45 h    0.826
    44   1 h    0.895 --    43 o    0.828
    45   1 h    0.876 --    43 o    0.826
    46   8 o    1.854 --    48 h    0.847    47 h    0.826
    47   1 h    0.880 --    46 o    0.826
    48   1 h    0.885 --    46 o    0.847
    49   8 o    1.857 --    51 h    0.806    50 h    0.780
    50   1 h    0.882 --    49 o    0.780
    51   1 h    0.877 --    49 o    0.806
    52   8 o    1.840 --    53 h    0.865    54 h    0.810
    53   1 h    0.902 --    52 o    0.865
    54   1 h    0.886 --    52 o    0.810
    55   8 o    1.859 --    56 h    0.807    57 h    0.785
    56   1 h    0.881 --    55 o    0.807
    57   1 h    0.876 --    55 o    0.785
    58   8 o    1.858 --    59 h    0.810    60 h    0.795
    59   1 h    0.879 --    58 o    0.810
    60   1 h    0.876 --    58 o    0.795
    61   8 o    1.851 --    62 h    0.861    63 h    0.829
    62   1 h    0.890 --    61 o    0.861
    63   1 h    0.882 --    61 o    0.829
    64   8 o    1.854 --    66 h    0.797    65 h    0.782
    65   1 h    0.878 --    64 o    0.782
    66   1 h    0.878 --    64 o    0.797
    67   8 o    1.846 --    68 h    0.852    69 h    0.814
    68   1 h    0.894 --    67 o    0.852
    69   1 h    0.872 --    67 o    0.814
    70   8 o    1.874 --    72 h    0.826    71 h    0.789
    71   1 h    0.883 --    70 o    0.789
    72   1 h    0.891 --    70 o    0.826
    73   8 o    1.849 --    75 h    0.823    74 h    0.807
    74   1 h    0.882 --    73 o    0.807
    75   1 h    0.883 --    73 o    0.823
    76   8 o    1.831 --    78 h    0.847    77 h    0.846
    77   1 h    0.890 --    76 o    0.846
    78   1 h    0.890 --    76 o    0.847
    79   8 o    1.827 --    80 h    0.857    81 h    0.820
    80   1 h    0.893 --    79 o    0.857
    81   1 h    0.878 --    79 o    0.820
    82   8 o    1.861 --    83 h    0.837    84 h    0.813
    83   1 h    0.889 --    82 o    0.837
    84   1 h    0.889 --    82 o    0.813
    85   8 o    1.839 --    87 h    0.897    86 h    0.830
    86   1 h    0.874 --    85 o    0.830
    87   1 h    0.903 --    85 o    0.897
    88   8 o    1.832 --    89 h    0.851    90 h    0.839
    89   1 h    0.888 --    88 o    0.851
    90   1 h    0.883 --    88 o    0.839
    91   8 o    1.820 --    93 h    0.857    92 h    0.849
    92   1 h    0.890 --    91 o    0.849
    93   1 h    0.887 --    91 o    0.857
    94   8 o    1.832 --    96 h    0.887    95 h    0.866
    95   1 h    0.886 --    94 o    0.866
    96   1 h    0.896 --    94 o    0.887
    97   8 o    1.790 --    99 h    0.838    98 h    0.814
    98   1 h    0.884 --    97 o    0.814
    99   1 h    0.895 --    97 o    0.838
   100   8 o    1.888 --   102 h    0.833   101 h    0.812
   101   1 h    0.878 --   100 o    0.812
   102   1 h    0.886 --   100 o    0.833
   103   8 o    1.877 --   105 h    0.835   104 h    0.803
   104   1 h    0.877 --   103 o    0.803
   105   1 h    0.891 --   103 o    0.835
   106   8 o    1.833 --   108 h    0.855   107 h    0.818
   107   1 h    0.878 --   106 o    0.818
   108   1 h    0.890 --   106 o    0.855
   109   8 o    1.882 --   110 h    0.824   111 h    0.815
   110   1 h    0.880 --   109 o    0.824
   111   1 h    0.881 --   109 o    0.815
   112   8 o    1.844 --   114 h    0.822   113 h    0.815
   113   1 h    0.885 --   112 o    0.815
   114   1 h    0.879 --   112 o    0.822
   115   8 o    1.849 --   116 h    0.826   117 h    0.818
   116   1 h    0.881 --   115 o    0.826
   117   1 h    0.875 --   115 o    0.818
   118   8 o    1.828 --   119 h    0.852   120 h    0.845
   119   1 h    0.890 --   118 o    0.852
   120   1 h    0.889 --   118 o    0.845
   121   8 o    1.864 --   122 h    0.840   123 h    0.792
   122   1 h    0.895 --   121 o    0.840
   123   1 h    0.870 --   121 o    0.792
   124   8 o    1.839 --   126 h    0.888   125 h    0.794
   125   1 h    0.884 --   124 o    0.794
   126   1 h    0.902 --   124 o    0.888
   127   8 o    1.841 --   128 h    0.836   129 h    0.832
   128   1 h    0.890 --   127 o    0.836
   129   1 h    0.899 --   127 o    0.832
   130   8 o    1.832 --   132 h    0.857   131 h    0.812
   131   1 h    0.874 --   130 o    0.812
   132   1 h    0.900 --   130 o    0.857
   133   8 o    1.853 --   135 h    0.843   134 h    0.829
   134   1 h    0.891 --   133 o    0.829
   135   1 h    0.887 --   133 o    0.843
   136   8 o    1.856 --   137 h    0.885   138 h    0.784
   137   1 h    0.898 --   136 o    0.885
   138   1 h    0.881 --   136 o    0.784
   139   8 o    1.859 --   141 h    0.832   140 h    0.827
   140   1 h    0.883 --   139 o    0.827
   141   1 h    0.890 --   139 o    0.832
   142   8 o    1.860 --   144 h    0.854   143 h    0.778
   143   1 h    0.870 --   142 o    0.778
   144   1 h    0.891 --   142 o    0.854
   145   8 o    1.831 --   146 h    0.873   147 h    0.834
   146   1 h    0.900 --   145 o    0.873
   147   1 h    0.878 --   145 o    0.834
   148   8 o    1.846 --   150 h    0.887   149 h    0.846
   149   1 h    0.882 --   148 o    0.846
   150   1 h    0.896 --   148 o    0.887
   151   8 o    1.846 --   152 h    0.870   153 h    0.817
   152   1 h    0.894 --   151 o    0.870
   153   1 h    0.870 --   151 o    0.817
   154   8 o    1.801 --   156 h    0.884   155 h    0.813
   155   1 h    0.883 --   154 o    0.813
   156   1 h    0.900 --   154 o    0.884
   157   8 o    1.847 --   158 h    0.892   159 h    0.867
   158   1 h    0.898 --   157 o    0.892
   159   1 h    0.890 --   157 o    0.867
   160   8 o    1.913 --   162 h    0.841   161 h    0.839
   161   1 h    0.879 --   160 o    0.839
   162   1 h    0.871 --   160 o    0.841
   163   8 o    1.855 --   164 h    0.875   165 h    0.824
   164   1 h    0.896 --   163 o    0.875
   165   1 h    0.880 --   163 o    0.824
   166   8 o    1.844 --   168 h    0.856   167 h    0.767
   167   1 h    0.880 --   166 o    0.767   514 o    0.104
   168   1 h    0.894 --   166 o    0.856
   169   8 o    1.852 --   170 h    0.840   171 h    0.826
   170   1 h    0.888 --   169 o    0.840
   171   1 h    0.889 --   169 o    0.826
   172   8 o    1.799 --   174 h    0.863   173 h    0.855
   173   1 h    0.893 --   172 o    0.855
   174   1 h    0.892 --   172 o    0.863
   175   8 o    1.871 --   176 h    0.824   177 h    0.817
   176   1 h    0.889 --   175 o    0.824
   177   1 h    0.883 --   175 o    0.817
   178   8 o    1.817 --   180 h    0.881   179 h    0.822
   179   1 h    0.876 --   178 o    0.822
   180   1 h    0.900 --   178 o    0.881
   181   8 o    1.882 --   183 h    0.816   182 h    0.807
   182   1 h    0.876 --   181 o    0.807
   183   1 h    0.878 --   181 o    0.816
   184   8 o    1.898 --   186 h    0.842   185 h    0.783
   185   1 h    0.868 --   184 o    0.783
   186   1 h    0.881 --   184 o    0.842
   187   8 o    1.833 --   189 h    0.885   188 h    0.791
   188   1 h    0.866 --   187 o    0.791
   189   1 h    0.900 --   187 o    0.885
   190   8 o    1.853 --   192 h    0.826   191 h    0.768
   191   1 h    0.868 --   190 o    0.768
   192   1 h    0.891 --   190 o    0.826
   193   8 o    1.857 --   195 h    0.848   194 h    0.826
   194   1 h    0.891 --   193 o    0.826
   195   1 h    0.892 --   193 o    0.848
   196   8 o    1.863 --   198 h    0.850   197 h    0.789
   197   1 h    0.874 --   196 o    0.789
   198   1 h    0.888 --   196 o    0.850
   199   8 o    1.878 --   201 h    0.817   200 h    0.806
   200   1 h    0.882 --   199 o    0.806
   201   1 h    0.879 --   199 o    0.817
   202   8 o    1.848 --   203 h    0.884   204 h    0.848
   203   1 h    0.895 --   202 o    0.884
   204   1 h    0.885 --   202 o    0.848
   205   8 o    1.847 --   206 h    0.862   207 h    0.817
   206   1 h    0.890 --   205 o    0.862
   207   1 h    0.888 --   205 o    0.817
   208   8 o    1.829 --   210 h    0.834   209 h    0.820
   209   1 h    0.893 --   208 o    0.820
   210   1 h    0.884 --   208 o    0.834
   211   8 o    1.810 --   212 h    0.878   213 h    0.849
   212   1 h    0.897 --   211 o    0.878
   213   1 h    0.884 --   211 o    0.849
   214   8 o    1.887 --   216 h    0.848   215 h    0.818
   215   1 h    0.884 --   214 o    0.818
   216   1 h    0.892 --   214 o    0.848
   217   8 o    1.849 --   218 h    0.859   219 h    0.808
   218   1 h    0.894 --   217 o    0.859
   219   1 h    0.888 --   217 o    0.808
   220   8 o    1.832 --   221 h    0.865   222 h    0.811
   221   1 h    0.896 --   220 o    0.865
   222   1 h    0.884 --   220 o    0.811
   223   8 o    1.843 --   224 h    0.859   225 h    0.854
   224   1 h    0.887 --   223 o    0.859
   225   1 h    0.883 --   223 o    0.854
   226   8 o    1.830 --   228 h    0.809   227 h    0.802
   227   1 h    0.881 --   226 o    0.802
   228   1 h    0.880 --   226 o    0.809
   229   8 o    1.838 --   231 h    0.848   230 h    0.809
   230   1 h    0.874 --   229 o    0.809
   231   1 h    0.888 --   229 o    0.848
   232   8 o    1.819 --   234 h    0.829   233 h    0.819
   233   1 h    0.883 --   232 o    0.819
   234   1 h    0.886 --   232 o    0.829
   235   8 o    1.836 --   236 h    0.877   237 h    0.775
   236   1 h    0.898 --   235 o    0.877
   237   1 h    0.870 --   235 o    0.775
   238   8 o    1.869 --   240 h    0.831   239 h    0.809
   239   1 h    0.891 --   238 o    0.809
   240   1 h    0.882 --   238 o    0.831
   241   8 o    1.808 --   242 h    0.858   243 h    0.824
   242   1 h    0.892 --   241 o    0.858
   243   1 h    0.880 --   241 o    0.824
   244   8 o    1.836 --   245 h    0.844   246 h    0.838
   245   1 h    0.884 --   244 o    0.844
   246   1 h    0.883 --   244 o    0.838
   247   8 o    1.879 --   249 h    0.821   248 h    0.800
   248   1 h    0.872 --   247 o    0.800
   249   1 h    0.881 --   247 o    0.821
   250   8 o    1.850 --   252 h    0.846   251 h    0.814
   251   1 h    0.890 --   250 o    0.814
   252   1 h    0.891 --   250 o    0.846
   253   8 o    1.824 --   255 h    0.865   254 h    0.831
   254   1 h    0.879 --   253 o    0.831
   255   1 h    0.895 --   253 o    0.865
   256   8 o    1.821 --   257 h    0.862   258 h    0.846
   257   1 h    0.892 --   256 o    0.862
   258   1 h    0.880 --   256 o    0.846
   259   8 o    1.900 --   260 h    0.833   261 h    0.833
   260   1 h    0.887 --   259 o    0.833
   261   1 h    0.881 --   259 o    0.833
   262   8 o    1.828 --   264 h    0.893   263 h    0.841
   263   1 h    0.881 --   262 o    0.841
   264   1 h    0.898 --   262 o    0.893
   265   8 o    1.811 --   266 h    0.869   267 h    0.833
   266   1 h    0.898 --   265 o    0.869
   267   1 h    0.891 --   265 o    0.833
   268   8 o    1.877 --   269 h    0.804   270 h    0.799
   269   1 h    0.879 --   268 o    0.804
   270   1 h    0.878 --   268 o    0.799
   271   8 o    1.840 --   273 h    0.843   272 h    0.809
   272   1 h    0.893 --   271 o    0.809
   273   1 h    0.890 --   271 o    0.843
   274   8 o    1.820 --   275 h    0.805   276 h    0.798
   275   1 h    0.882 --   274 o    0.805
   276   1 h    0.880 --   274 o    0.798
   277   8 o    1.811 --   279 h    0.868   278 h    0.837
   278   1 h    0.883 --   277 o    0.837
   279   1 h    0.898 --   277 o    0.868
   280   8 o    1.836 --   281 h    0.859   282 h    0.810
   281   1 h    0.892 --   280 o    0.859
   282   1 h    0.877 --   280 o    0.810
   283   8 o    1.820 --   285 h    0.835   284 h    0.823
   284   1 h    0.884 --   283 o    0.823
   285   1 h    0.889 --   283 o    0.835
   286   8 o    1.833 --   288 h    0.893   287 h    0.789
   287   1 h    0.876 --   286 o    0.789
   288   1 h    0.900 --   286 o    0.893
   289   8 o    1.871 --   290 h    0.832   291 h    0.782
   290   1 h    0.888 --   289 o    0.832
   291   1 h    0.868 --   289 o    0.782
   292   8 o    1.813 --   293 h    0.842   294 h    0.837
   293   1 h    0.888 --   292 o    0.842
   294   1 h    0.890 --   292 o    0.837
   295   8 o    1.837 --   297 h    0.849   296 h    0.829
   296   1 h    0.884 --   295 o    0.829
   297   1 h    0.901 --   295 o    0.849
   298   8 o    1.856 --   299 h    0.845   300 h    0.827
   299   1 h    0.891 --   298 o    0.845
   300   1 h    0.887 --   298 o    0.827
   301   8 o    1.873 --   302 h    0.837   303 h    0.834
   302   1 h    0.886 --   301 o    0.837
   303   1 h    0.881 --   301 o    0.834
   304   8 o    1.797 --   305 h    0.901   306 h    0.786
   305   1 h    0.907 --   304 o    0.901
   306   1 h    0.873 --   304 o    0.786
   307   8 o    1.897 --   309 h    0.836   308 h    0.784
   308   1 h    0.867 --   307 o    0.784
   309   1 h    0.888 --   307 o    0.836
   310   8 o    1.868 --   312 h    0.818   311 h    0.815
   311   1 h    0.880 --   310 o    0.815
   312   1 h    0.886 --   310 o    0.818
   313   8 o    1.847 --   314 h    0.849   315 h    0.782
   314   1 h    0.894 --   313 o    0.849
   315   1 h    0.873 --   313 o    0.782
   316   8 o    1.892 --   318 h    0.823   317 h    0.809
   317   1 h    0.882 --   316 o    0.809
   318   1 h    0.880 --   316 o    0.823
   319   8 o    1.832 --   321 h    0.864   320 h    0.786
   320   1 h    0.870 --   319 o    0.786
   321   1 h    0.895 --   319 o    0.864
   322   8 o    1.847 --   323 h    0.848   324 h    0.775
   323   1 h    0.887 --   322 o    0.848
   324   1 h    0.868 --   322 o    0.775
   325   8 o    1.826 --   326 h    0.871   327 h    0.824
   326   1 h    0.901 --   325 o    0.871
   327   1 h    0.890 --   325 o    0.824
   328   8 o    1.830 --   330 h    0.864   329 h    0.847
   329   1 h    0.887 --   328 o    0.847
   330   1 h    0.888 --   328 o    0.864
   331   8 o    1.811 --   332 h    0.860   333 h    0.820
   332   1 h    0.891 --   331 o    0.860
   333   1 h    0.875 --   331 o    0.820
   334   8 o    1.820 --   335 h    0.843   336 h    0.827
   335   1 h    0.889 --   334 o    0.843
   336   1 h    0.881 --   334 o    0.827
   337   8 o    1.855 --   338 h    0.839   339 h    0.802
   338   1 h    0.893 --   337 o    0.839
   339   1 h    0.871 --   337 o    0.802
   340   8 o    1.857 --   341 h    0.855   342 h    0.821
   341   1 h    0.893 --   340 o    0.855
   342   1 h    0.887 --   340 o    0.821
   343   8 o    1.808 --   344 h    0.885   345 h    0.854
   344   1 h    0.894 --   343 o    0.885
   345   1 h    0.885 --   343 o    0.854
   346   8 o    1.854 --   347 h    0.817   348 h    0.803
   347   1 h    0.885 --   346 o    0.817
   348   1 h    0.882 --   346 o    0.803
   349   8 o    1.848 --   351 h    0.818   350 h    0.789
   350   1 h    0.876 --   349 o    0.789
   351   1 h    0.884 --   349 o    0.818
   352   8 o    1.845 --   354 h    0.885   353 h    0.823
   353   1 h    0.881 --   352 o    0.823
   354   1 h    0.900 --   352 o    0.885
   355   8 o    1.820 --   356 h    0.877   357 h    0.803
   356   1 h    0.900 --   355 o    0.877
   357   1 h    0.878 --   355 o    0.803
   358   8 o    1.840 --   359 h    0.892   360 h    0.774
   359   1 h    0.902 --   358 o    0.892
   360   1 h    0.869 --   358 o    0.774
   361   8 o    1.835 --   362 h    0.845   363 h    0.827
   362   1 h    0.890 --   361 o    0.845
   363   1 h    0.883 --   361 o    0.827
   364   8 o    1.844 --   366 h    0.877   365 h    0.806
   365   1 h    0.872 --   364 o    0.806
   366   1 h    0.898 --   364 o    0.877
   367   8 o    1.813 --   369 h    0.851   368 h    0.833
   368   1 h    0.885 --   367 o    0.833
   369   1 h    0.893 --   367 o    0.851
   370   8 o    1.827 --   372 h    0.832   371 h    0.832
   371   1 h    0.893 --   370 o    0.832
   372   1 h    0.891 --   370 o    0.832
   373   8 o    1.856 --   375 h    0.851   374 h    0.814
   374   1 h    0.879 --   373 o    0.814
   375   1 h    0.894 --   373 o    0.851
   376   8 o    1.805 --   378 h    0.871   377 h    0.816
   377   1 h    0.881 --   376 o    0.816
   378   1 h    0.898 --   376 o    0.871
   379   8 o    1.848 --   381 h    0.825   380 h    0.819
   380   1 h    0.886 --   379 o    0.819
   381   1 h    0.882 --   379 o    0.825
   382   8 o    1.852 --   383 h    0.862   384 h    0.810
   383   1 h    0.893 --   382 o    0.862
   384   1 h    0.870 --   382 o    0.810
   385   8 o    1.858 --   386 h    0.859   387 h    0.798
   386   1 h    0.888 --   385 o    0.859
   387   1 h    0.880 --   385 o    0.798
   388   8 o    1.786 --   389 h    0.846   390 h    0.828
   389   1 h    0.897 --   388 o    0.846
   390   1 h    0.886 --   388 o    0.828
   391   8 o    1.820 --   392 h    0.877   393 h    0.849
   392   1 h    0.892 --   391 o    0.877
   393   1 h    0.886 --   391 o    0.849
   394   8 o    1.853 --   396 h    0.845   395 h    0.830
   395   1 h    0.881 --   394 o    0.830
   396   1 h    0.894 --   394 o    0.845
   397   8 o    1.831 --   398 h    0.851   399 h    0.820
   398   1 h    0.892 --   397 o    0.851
   399   1 h    0.877 --   397 o    0.820
   400   8 o    1.857 --   401 h    0.858   402 h    0.830
   401   1 h    0.899 --   400 o    0.858
   402   1 h    0.879 --   400 o    0.830
   403   8 o    1.892 --   405 h    0.828   404 h    0.818
   404   1 h    0.886 --   403 o    0.818
   405   1 h    0.889 --   403 o    0.828
   406   8 o    1.813 --   407 h    0.881   408 h    0.858
   407   1 h    0.896 --   406 o    0.881
   408   1 h    0.887 --   406 o    0.858
   409   8 o    1.838 --   410 h    0.835   411 h    0.831
   410   1 h    0.887 --   409 o    0.835
   411   1 h    0.892 --   409 o    0.831
   412   8 o    1.813 --   413 h    0.877   414 h    0.838
   413   1 h    0.898 --   412 o    0.877
   414   1 h    0.882 --   412 o    0.838
   415   8 o    1.883 --   417 h    0.838   416 h    0.783
   416   1 h    0.868 --   415 o    0.783
   417   1 h    0.893 --   415 o    0.838
   418   8 o    1.832 --   420 h    0.876   419 h    0.851
   419   1 h    0.882 --   418 o    0.851
   420   1 h    0.888 --   418 o    0.876
   421   8 o    1.838 --   423 h    0.828   422 h    0.811
   422   1 h    0.880 --   421 o    0.811
   423   1 h    0.892 --   421 o    0.828
   424   8 o    1.850 --   426 h    0.886   425 h    0.797
   425   1 h    0.872 --   424 o    0.797
   426   1 h    0.901 --   424 o    0.886
   427   8 o    1.811 --   428 h    0.862   429 h    0.820
   428   1 h    0.893 --   427 o    0.862
   429   1 h    0.892 --   427 o    0.820
   430   8 o    1.841 --   432 h    0.893   431 h    0.810
   431   1 h    0.876 --   430 o    0.810
   432   1 h    0.899 --   430 o    0.893
   433   8 o    1.881 --   435 h    0.834   434 h    0.806
   434   1 h    0.885 --   433 o    0.806
   435   1 h    0.894 --   433 o    0.834
   436   8 o    1.856 --   438 h    0.863   437 h    0.824
   437   1 h    0.884 --   436 o    0.824
   438   1 h    0.888 --   436 o    0.863
   439   8 o    1.855 --   441 h    0.844   440 h    0.841
   440   1 h    0.892 --   439 o    0.841
   441   1 h    0.892 --   439 o    0.844
   442   8 o    1.862 --   443 h    0.840   444 h    0.779
   443   1 h    0.890 --   442 o    0.840
   444   1 h    0.870 --   442 o    0.779
   445   8 o    1.828 --   447 h    0.893   446 h    0.784
   446   1 h    0.876 --   445 o    0.784
   447   1 h    0.900 --   445 o    0.893
   448   8 o    1.847 --   450 h    0.834   449 h    0.830
   449   1 h    0.890 --   448 o    0.830
   450   1 h    0.885 --   448 o    0.834
   451   8 o    1.884 --   452 h    0.859   453 h    0.804
   452   1 h    0.895 --   451 o    0.859
   453   1 h    0.868 --   451 o    0.804
   454   8 o    1.835 --   456 h    0.871   455 h    0.838
   455   1 h    0.885 --   454 o    0.838
   456   1 h    0.890 --   454 o    0.871
   457   8 o    1.819 --   458 h    0.888   459 h    0.836
   458   1 h    0.903 --   457 o    0.888
   459   1 h    0.885 --   457 o    0.836
   460   8 o    1.910 --   462 h    0.831   461 h    0.794
   461   1 h    0.871 --   460 o    0.794
   462   1 h    0.872 --   460 o    0.831
   463   8 o    1.874 --   465 h    0.831   464 h    0.807
   464   1 h    0.881 --   463 o    0.807
   465   1 h    0.884 --   463 o    0.831
   466   8 o    1.843 --   468 h    0.854   467 h    0.834
   467   1 h    0.885 --   466 o    0.834
   468   1 h    0.897 --   466 o    0.854
   469   8 o    1.821 --   470 h    0.857   471 h    0.827
   470   1 h    0.895 --   469 o    0.857
   471   1 h    0.886 --   469 o    0.827
   472   8 o    1.866 --   473 h    0.887   474 h    0.822
   473   1 h    0.899 --   472 o    0.887
   474   1 h    0.885 --   472 o    0.822
   475   8 o    1.864 --   477 h    0.838   476 h    0.835
   476   1 h    0.890 --   475 o    0.835
   477   1 h    0.886 --   475 o    0.838
   478   8 o    1.823 --   480 h    0.851   479 h    0.851
   479   1 h    0.891 --   478 o    0.851
   480   1 h    0.890 --   478 o    0.851
   481   8 o    1.856 --   482 h    0.838   483 h    0.796
   482   1 h    0.892 --   481 o    0.838
   483   1 h    0.873 --   481 o    0.796
   484   8 o    1.874 --   485 h    0.821   486 h    0.803
   485   1 h    0.874 --   484 o    0.821
   486   1 h    0.873 --   484 o    0.803
   487   8 o    1.849 --   488 h    0.900   489 h    0.851
   488   1 h    0.904 --   487 o    0.900
   489   1 h    0.886 --   487 o    0.851
   490   8 o    1.855 --   492 h    0.827   491 h    0.819
   491   1 h    0.881 --   490 o    0.819
   492   1 h    0.891 --   490 o    0.827
   493   8 o    1.841 --   495 h    0.824   494 h    0.796
   494   1 h    0.875 --   493 o    0.796
   495   1 h    0.879 --   493 o    0.824
   496   8 o    1.834 --   498 h    0.841   497 h    0.793
   497   1 h    0.877 --   496 o    0.793
   498   1 h    0.893 --   496 o    0.841
   499   8 o    1.859 --   501 h    0.853   500 h    0.796
   500   1 h    0.873 --   499 o    0.796
   501   1 h    0.897 --   499 o    0.853
   502   8 o    1.839 --   503 h    0.885   504 h    0.850
   503   1 h    0.895 --   502 o    0.885
   504   1 h    0.881 --   502 o    0.850
   505   8 o    1.881 --   506 h    0.848   507 h    0.839
   506   1 h    0.889 --   505 o    0.848
   507   1 h    0.891 --   505 o    0.839
   508   8 o    1.833 --   510 h    0.893   509 h    0.789
   509   1 h    0.866 --   508 o    0.789
   510   1 h    0.904 --   508 o    0.893
   511   8 o    1.849 --   512 h    0.847   513 h    0.836
   512   1 h    0.884 --   511 o    0.847
   513   1 h    0.883 --   511 o    0.836
   514   8 o    1.854 --   515 h    0.833   516 h    0.822   167 h    0.104
   515   1 h    0.888 --   514 o    0.833
   516   1 h    0.884 --   514 o    0.822
   517   8 o    1.836 --   519 h    0.852   518 h    0.800
   518   1 h    0.874 --   517 o    0.800
   519   1 h    0.892 --   517 o    0.852
   520   8 o    1.828 --   521 h    0.883   522 h    0.825
   521   1 h    0.895 --   520 o    0.883
   522   1 h    0.883 --   520 o    0.825
   523   8 o    1.838 --   524 h    0.870   525 h    0.801
   524   1 h    0.895 --   523 o    0.870
   525   1 h    0.880 --   523 o    0.801
   526   8 o    1.846 --   528 h    0.880   527 h    0.874
   527   1 h    0.895 --   526 o    0.874
   528   1 h    0.896 --   526 o    0.880
   529   8 o    1.792 --   531 h    0.859   530 h    0.830
   530   1 h    0.891 --   529 o    0.830
   531   1 h    0.896 --   529 o    0.859
 ---------------------------------------------------------------------------

Topologies differ in total number of bonds
Writing topology from bond orders to xtbtopo.mol

molecular dipole:
                 x           y           z       tot (Debye)
 q only:        3.463      -1.174       0.284
   full:        4.185      -0.938       0.411      10.950
molecular quadrupole (traceless):
                xx          xy          yy          xz          yz          zz
 q only:       83.955      -9.468     -23.875      50.055     -30.035     -60.079
  q+dip:       97.690      -9.319     -19.042      51.007     -33.198     -78.648
   full:       96.982      -9.076     -18.719      50.801     -34.685     -78.263


           -------------------------------------------------
          | TOTAL ENERGY             -901.389667764253 Eh   |
          | GRADIENT NORM               0.107142776817 Eh/α |
          | HOMO-LUMO GAP               7.075178666818 eV   |
           -------------------------------------------------

------------------------------------------------------------------------
 * finished run on 2022/11/17 at 06:54:58.303     
------------------------------------------------------------------------
 total:
 * wall-time:     0 d,  0 h,  0 min,  9.126 sec
 *  cpu-time:     0 d,  0 h,  0 min, 14.331 sec
 * ratio c/w:     1.570 speedup
 SCF:
 * wall-time:     0 d,  0 h,  0 min,  8.478 sec
 *  cpu-time:     0 d,  0 h,  0 min, 13.245 sec
 * ratio c/w:     1.562 speedup

