531
 energy: -901.162546971986 gnorm: 0.056548801187 xtb: 6.5.1 (579679a)
o           -1.82375573289713       -1.66331667998257       -1.84282452422806
h           -2.59786237587790       -1.07409209184886       -1.96467519442306
h           -2.10732539958871       -2.47263948539554       -1.36755235992256
o            2.76982675272339       -3.32379062892861        2.07384191939514
h            2.51610875646280       -3.91509603736891        2.80722777545371
h            2.50218799205453       -2.41792335337204        2.30401675004017
o            2.29091810835527       -0.66241045564337        2.64280136500843
h            2.02768518197716       -0.58727718691401        3.57835674031082
h            1.97310560484097        0.18335500108863        2.28275555171279
o            1.24004192315258       -3.14310867869173       -3.18188411789392
h            0.85051154219229       -3.16181330605624       -4.06265261907887
h            1.84731534531130       -3.91326365313879       -3.10671304386829
o           -4.08385026961252       -0.86837123383506        4.01359206493078
h           -4.43938995112639       -0.92630241626023        4.92386714837786
h           -4.79019558917997       -0.49999219041213        3.46789390055888
o            2.86647932875670       -5.10218578013392       -2.50984541174380
h            2.75606311030075       -5.06339076713344       -1.53868977134505
h            3.79494886911584       -4.84074896398935       -2.68561441313637
o            0.46933724835610       -2.71999910954631        3.86656303647154
h           -0.20224289933641       -2.01867270291361        4.04312198749097
h            1.28980286363589       -2.45006274979023        4.32352022217666
o            4.10515472133569       -7.05286455305579        0.86516259693260
h            4.73175633900176       -6.88086230211359        0.13536929514079
h            4.60048967018020       -6.89988022494948        1.67215526346215
o           -4.69325063807401       -2.56401058161864       -0.69611773631601
h           -3.97717870490920       -3.16847016783854       -0.45387202809099
h           -4.74072101806995       -2.60600189842279       -1.66737565870603
o           -0.35407858014949        2.10249394263681        4.36838812221377
h           -1.23601234662623        1.86568443430719        4.03304052362655
h           -0.48848595007989        2.72662766843154        5.10460068851009
o           -3.85748402871403        0.00034055246822       -2.33727793375410
h           -4.13667725331104       -0.14493257615360       -3.25436224866988
h           -3.66329128123073        0.95073299469354       -2.26606487916132
o            3.26485390259618        5.57616127675987        2.12895359448188
h            4.03644364471072        5.91947302500874        1.62594973944923
h            3.63295679164510        5.31614134068385        3.00464740783771
o            1.51010747479674        1.94080204733829        2.42522811719424
h            0.80545476477218        1.99551912546185        3.09444443000677
h            1.18112950931835        2.47299442516288        1.68136553530802
o           -2.86297386078190        1.53952011756801        3.67754118150843
h           -3.29134047713886        0.65841157081474        3.69552049454027
h           -3.24813668664758        2.05974591020262        2.96030520895170
o           -1.08328136579642        3.54980444555973       -4.83385497342888
h           -0.68095586272295        3.55852696845035       -5.72547983740668
h           -0.46422976213032        3.05102227763510       -4.27723626587078
o           -1.81177635430884        6.15758953251714       -4.31658458712021
h           -1.54856892252827        5.24021772312799       -4.51037776664063
h           -2.69843958394670        6.11437375422630       -3.92828548654531
o           -3.98198035786344        2.74337875807759       -2.13504553611671
h           -3.93823090842266        3.07438522236756       -3.07391766781111
h           -3.25071232740821        3.21132143026328       -1.68723154006372
o           -0.13183455566877       -0.50861649811189       -4.11695457624085
h            0.03804363717067       -1.16138796085005       -4.80459024414431
h           -1.04039745377489       -0.16261744981259       -4.25597659984322
o            3.85259880826715        2.24433480237717        3.52003335872179
h            4.00656767598253        1.37523281871016        3.94835081098359
h            2.91645875961945        2.25439847234354        3.21321530618708
o            5.19876039577441       -3.99758061331629        1.05530239009240
h            4.37702779231215       -3.71874139748610        1.50294986856069
h            5.56925175510121       -3.18422958117627        0.64037598318754
o           -4.12639766276513        5.97040853998308       -2.80043993258332
h           -4.65412378840427        6.54370826589420       -2.23110556440439
h           -4.77575551741959        5.41513979879935       -3.27206560032711
o            1.03675124451302        1.87586481566264       -4.03340577119233
h            1.53024078232861        1.87335184589568       -3.17463109096720
h            0.59806128041385        0.99307141396584       -4.05197160237014
o            4.45932210557738        4.74891718410915        4.34205061595741
h            5.35722217527282        4.96294002855294        4.04687650344255
h            4.35696025727417        3.78313372121207        4.21833990473467
o            8.64734321562506       -1.96343784613775        1.52278239442077
h            9.03173702066170       -1.66404716221437        2.38231146257621
h            9.37564308215542       -2.39907105172110        1.03804638089289
o           -5.73411219700603        0.18603977793957       -0.44044407073706
h           -5.15618206512443        0.06931882126904       -1.21431175143959
h           -6.47443030902133       -0.43465692537376       -0.55987157335696
o            1.14830801176327       -2.55488370926540       -0.50288677114356
h            2.03862126566292       -2.20048448234541       -0.37387825781258
h            1.05497670152252       -2.79393036548747       -1.43519845554643
o           -2.76846482835009       -2.13107255038551        6.86001364804796
h           -3.66905157219627       -1.80292057153008        6.98702327216437
h           -2.77587117986296       -2.57067796880023        5.98785934926404
o           -3.81071199475342        3.59743483914075       -4.56223519462940
h           -2.85466327195297        3.57143319735317       -4.73042412922533
h           -4.22415734239496        2.91601996156020       -5.13569274672556
o           -6.34777829617155        4.65543171928261       -3.74044860817211
h           -6.35094144387804        3.73000261184131       -3.44888551562257
h           -6.39079984138055        4.62769932965577       -4.69644402707751
o            5.45479946051993        1.28013231963329        6.43787492821297
h            4.56834114596260        1.62143744326783        6.64241677023605
h            5.89354897651370        1.97776557090868        5.92005786705415
o            4.45813608298723       -3.33092297716648       -5.28783923900986
h            3.81379402366762       -4.02788660940475       -5.49808720330352
h            3.96724898203003       -2.50824008969291       -5.40405063522798
o           -9.67839012856719       -3.82948667981161       -1.95928495282334
h           -9.52803579711661       -4.51559439415642       -1.29796157297908
h          -10.36071116746375       -3.24896243787082       -1.61678686339941
o           -1.19440474188679        2.20540048858936       -2.22532301764132
h           -1.66691894344832        2.10133976734411       -1.37454166017402
h           -0.62301287169879        2.98880227800758       -2.13081385940927
o           -0.02878293122974       -5.27115859775750       -0.94218213838718
h            0.84261595722440       -5.05704723742201       -0.56210372464970
h           -0.00905028146046       -5.07763331391223       -1.89783899752423
o            1.32297307775863        0.14272683505827        4.98789651013752
h            0.61164276835362        0.78287853826657        4.78155314198129
h            1.05282645692196       -0.34983024234360        5.78115432984147
o            1.42646133325718       -7.13108318959906       -3.53073588412878
h            2.08632844523642       -6.51582075988135       -3.15360383231775
h            1.10249932661351       -7.65831007788432       -2.78313315788888
o            4.87168279301959       -1.42028924062956        2.10715330110430
h            4.07319422990092       -1.03660267362682        2.51323797762913
h            5.56526183467160       -0.73114480036651        2.14240289693416
o           -6.25408174606455       -2.76340585771913        1.52873465226833
h           -6.78244207194486       -1.94788177798110        1.61982128721791
h           -5.77413051499334       -2.69473719879002        0.68620110323630
o            3.63013230400720       -1.22803031696676       -0.32544616950593
h            4.08854036907747       -1.59688231224570        0.45339280213533
h            3.54100342457615       -0.28594428387105       -0.07452298148616
o            2.36360498881187        6.56712662272138       -3.65731225258537
h            2.15897338959658        5.96595130879636       -4.38835731346130
h            1.51408223432784        6.77331575499168       -3.23271455427807
o            2.42629412759530       -5.03560856361094        0.08920841702332
h            2.94901917299859       -5.77469732644080        0.44060918072149
h            2.47340224032506       -4.31399256436031        0.74721770627509
o            1.11709274345932       -1.25951005734657        7.27845447052631
h            0.52694367591177       -2.03189280388671        7.47980501854576
h            0.96470853629711       -0.59559067854294        7.95329325191699
o            4.36914801254354       -0.17555298401277        4.50255384386613
h            3.74343958419470       -0.84811129481470        4.81568091811550
h            4.80753178667133        0.19800644292948        5.29067608894655
o           -1.73359646386219        0.39014593120317        6.52950138421213
h           -1.50129149621447        0.11584044495282        5.62149267275420
h           -2.07929631688889       -0.42855630773992        6.91972958700798
o            3.22803087011258        4.39773238909114       -2.29923169918429
h            3.10448335207534        5.29192067703123       -2.67597402603073
h            3.87562813553050        3.94424350816448       -2.85532262929146
o           -0.09636211235984        6.76936568485837       -2.47255283910386
h           -0.49056760748661        7.30619687765238       -1.78537921445768
h           -0.76727468741441        6.64202024237297       -3.19647933764013
o           -2.39491860010668       -4.03086734912815       -0.83649920479218
h           -1.52009840146967       -4.36620033761677       -0.57509978464381
h           -2.66309476932579       -4.62568874884223       -1.56215002816820
o           -5.14257122628757        0.78337424762085        2.15043471238893
h           -4.58028730475454        0.22685087785358        1.55759259799099
h           -4.95383150949785        1.70128729005942        1.93776508291988
o            9.18723796343510        2.44532960012930       -1.98322669220216
h           10.14145015150610        2.39599877720610       -1.85739282297639
h            8.81380446158110        1.83234497790016       -1.32759546812949
o           -2.39674378683721        1.91884893727461       -6.99199069300366
h           -3.36602953290949        1.89662962733602       -6.95002358859697
h           -2.12523499232708        2.75079626178904       -7.38418271981700
o           -7.92577536736986        4.34642042875167       -1.40870993310403
h           -7.63161112736146        4.89265820427341       -2.14559148143828
h           -7.61573547883433        3.44394794848073       -1.62159221195320
o            0.31968917864029        1.68453276201406        7.70189185194089
h           -0.40188455431421        1.15462201947769        7.30098818983579
h            0.01899992053727        2.59267535865922        7.59942538274769
o           -9.53863468123323        2.03386878410382       -2.61694280630760
h           -9.66286379630785        2.49747040159216       -3.44582641880653
h          -10.01635769171197        2.51605566326760       -1.93194069476035
o           -1.35218064574846       -0.87922805712797        4.16386122148914
h           -2.26588526457771       -1.19574771156210        4.11102992639073
h           -1.19478156745147       -0.34074556818668        3.35948650121674
o            7.40493732299151       -0.44599070792244        4.82822943415126
h            6.96132031394932        0.10575047598876        5.47979772060034
h            6.85510470510372       -1.24692558701398        4.71883964319966
o           10.15937874554287        2.62870595081642        1.25860484363030
h            9.74175556308858        3.54351282804326        1.24988930793895
h           10.81067242121781        2.64111607836477        0.54278713084205
o          -10.34042833524557        1.19512993851933        3.13959912241710
h           -9.68610838725133        0.83234923757691        3.76023969483580
h          -11.02990238147790        0.50277554535414        3.04297488808173
o           -0.55215503877292       -0.14715920774703       -7.03476531083525
h           -1.17498420798833        0.58722857021881       -7.14574505343902
h            0.31479353439456        0.26219677957435       -6.93917327340375
o           -2.85546183717856       -3.15743656126225        1.83634002322956
h           -2.89525220048695       -3.17452795827645        2.81282024153454
h           -1.92133708634380       -3.32529860758852        1.60438090635010
o            4.06241036590153        7.20828872993592       -1.58038526527639
h            3.25564207685106        6.89808160881632       -1.12334009127983
h            3.73925973628230        7.57875688676505       -2.40638779444263
o           -5.37678529305764        4.09940986846862       -0.21840842063656
h           -6.14555078503378        3.53715591723301        0.00215579009991
h           -4.94156827343572        3.66829404186669       -0.97603905104580
o           -7.45985320279649       -0.41781143163673        1.97835373415442
h           -6.64199545897532        0.13074293817027        1.93913895159227
h           -7.99410778933018       -0.21211247662066        1.19911079474976
o           -5.76149008446598        6.70198269560982       -0.66386023040877
h           -5.76147268256760        5.71976206143734       -0.58009496358060
h           -6.55210920461446        6.98913821196804       -0.20120809603263
o           -7.07928383420482        2.21142857103030        0.45528486785978
h           -6.52101672149932        1.48014358587639        0.08513902280116
h           -7.99207556141844        1.87326714010371        0.42339696041864
o            8.72879672526785        0.64736842013904        0.15660935727046
h            9.15928832902836        1.39325254123786        0.61913565495847
h            9.42128904322045       -0.01713697880983        0.01220121536798
o            3.72410230368886        1.18413548473933        0.82939839595106
h            3.39656381137674        2.08176930735937        0.58958752800001
h            3.72551936705752        1.15942941413168        1.79131576980707
o            5.35255972130544       -1.58212033451541       -2.45297526242013
h            4.99793006610681       -1.04455826008886       -3.19383015148571
h            4.80735549598791       -1.41471770424668       -1.66462123636134
o           -0.66418714587866        4.01610304209789        6.26632583772870
h           -1.33561851618522        4.65009245057825        6.00141905810605
h            0.20941264137124        4.39017304419249        6.06615801839987
o           -5.21697319348440       -0.91585692082953        6.45800246784554
h           -5.57500689946701       -0.02786057421499        6.33908990697796
h           -5.98532146499948       -1.52587066973430        6.38534006868673
o           -2.44742631063480        1.58570946758270        0.02370743120038
h           -2.92677437336264        2.24541547677670        0.55981792486172
h           -2.90888778402219        0.73586164092868        0.11597286734024
o            7.14318225057679       -2.25870040254447       -4.58753032478251
h            6.34568794196596       -2.61795042821439       -4.99113716633697
h            7.26564781071477       -2.72241234752275       -3.74950189103205
o           -2.98215794582398       -3.48640780924130        4.49466563009811
h           -3.96178533313696       -3.49219443740425        4.43713972753547
h           -2.69581990378962       -4.41285521078825        4.47866633468271
o            5.13824400288866        0.06511957335866       -6.85919864272368
h            4.94997808405533        0.98713789041609       -7.08089694955539
h            6.11034647650026        0.02114623183824       -6.68821885418691
o            2.81434441569315       -1.21032451320976       -6.29082585245560
h            3.59615508545925       -1.13797104392253       -6.85348204145418
h            2.42352991385187       -0.31211548454275       -6.31335845866516
o           -8.54142934675149       -0.51706915072800       -5.06683033101432
h           -8.12691927600813       -1.31623476008387       -5.41842497239467
h           -9.16576285592758       -0.79173742384469       -4.37865607286133
o            6.01121254389739        0.61747973731187       -0.33032851175319
h            5.30051935733325        0.90996376297617        0.26958073008930
h            6.11209412313803       -0.34036689022182       -0.18208591820686
o            5.89557512132597       -5.83524264012322       -0.77180108849474
h            5.60352667282137       -5.13569353992569       -0.15094032229633
h            5.78463864061816       -5.44263045624868       -1.65211376192149
o          -10.96384504780682       -1.14047760189000       -0.10771932180590
h          -10.46184919248015       -0.32844697202758        0.11420823090401
h          -10.42409006288335       -1.86802841818998        0.25371987726068
o           -3.68501071851546        2.46951572768585        5.98748042219907
h           -3.13679840787702        2.01093055683202        6.63386037532976
h           -3.35425982330172        2.12482277306533        5.12273413202793
o            4.46410752893327        0.12157498902077       -4.28153006307202
h            4.66789245092685        0.05430758266128       -5.24057753989463
h            3.53271331684525       -0.11175437043154       -4.12897486112608
o           -0.81300759057167        6.28506299679037        0.39953640683231
h           -1.07248443269792        5.95132888605320        1.26935595763264
h           -1.21996862251510        5.66166060732792       -0.23109232455984
o            7.60962171800176        0.09664877703307       -5.94088894332184
h            7.54561902063984       -0.71980343681877       -5.41795299973822
h            7.50266876322446        0.83683022326139       -5.32070225246080
o           -0.25694580366111       -3.66923058187953        1.47130984979606
h            0.27338191433627       -3.28492085173444        0.74536580954709
h            0.11796954585510       -3.35103370850097        2.31455536256213
o           -9.29122193518787       -2.96813138132574        0.98283683831542
h           -9.06644430774182       -3.89676077887003        0.76221680258366
h           -9.32008144161024       -2.88803183695689        1.94855797281873
o           -7.50517747479184        2.08072635915628       -5.12521658859763
h           -7.33764854203467        2.07820117909086       -4.16835881327202
h           -7.97814753951088        1.25550091041819       -5.30261959923831
o            2.20056513123786        4.21674286978305       -5.14683536769199
h            3.13608962284275        4.08194567518896       -4.95013969614082
h            1.72509002565108        3.56283180575085       -4.61482607694996
o            6.90551574972646        0.32486810225969        2.26122295691037
h            7.27302576002993        0.19068673400881        3.15373633610586
h            7.61369254382396        0.26512726390213        1.59916547153412
o           11.70832916543555        1.74849506957981       -0.89193063224944
h           11.55807098357598        0.79385258184877       -0.78043036619405
h           12.62130501113252        1.86162977598333       -1.15472116786833
o            1.87670230978487        6.35025019384240       -0.17694157148362
h            2.23750394861121        6.29073308476418        0.71248367319811
h            0.91317630677811        6.41458193547370       -0.06712182197274
o            5.89556198682691        2.74276517163409        1.89749537255575
h            5.12172600892153        2.64260784012658        2.49096714139541
h            6.38807417303322        1.90243326899769        2.00634778955682
o           -0.50192830733264       -5.33279658963868       -3.62261687300428
h            0.15574081485068       -6.05459772987214       -3.73952685035794
h           -1.33736358332328       -5.75468490209725       -3.36389785820726
o            7.48910817568263       -4.19932680829869        2.38799167784929
h            6.61218925994036       -4.25649839919454        1.94806668236404
h            7.87825276817892       -3.34879674260844        2.07616078537996
o            1.54735551454067       -7.24582636145342        2.08198399683988
h            1.82618003867261       -6.60848791768400        2.76395480296865
h            2.34437540009552       -7.45475748546924        1.58407204223429
o           -8.54770215036920       -5.40920761704986        0.18978411449227
h           -8.21910218175591       -5.76056424415177        1.03014607992627
h           -7.72907489311905       -5.26241170806875       -0.33118246807362
o           -7.30922742387143       -2.37936617234950        5.71593728839227
h           -6.74481986513525       -2.83843925715815        5.06479275750362
h           -7.69030223121614       -1.60234893873851        5.27097424627426
o           -2.06104853668216       -6.04524788623988        4.07988206218060
h           -1.66883739246999       -6.12303797312272        3.17247329946721
h           -2.47047140829716       -6.88576808065854        4.27887771341844
o           -1.76202770112404       -3.01611916307332       -4.07856468060262
h           -1.21955150135361       -3.81491216986376       -3.98559222222838
h           -1.53306512496666       -2.41768258909457       -3.32970639147978
o            8.44348728443800       -5.14489438137169       -0.08681333774594
h            8.23211650344866       -4.96942664865111        0.84636010557733
h            7.66994923490472       -5.63643392626821       -0.42144632899964
o           -6.65712452987164       -0.38603362478493       -3.07207366878205
h           -6.80601784575756       -1.26392208163695       -2.68415063657216
h           -7.25717190470102       -0.34566690722985       -3.83224930535506
o           -2.87945843455222       -6.03460903332672       -2.56449438647380
h           -3.78132212498001       -6.07647142134281       -2.91248592438836
h           -2.81015053778262       -6.60993213625009       -1.77670369816280
o            9.76779641507229       -1.32344659941468        3.80039214101063
h           10.38371450962940       -0.65416700300807        3.45009238931039
h            9.07615588514073       -0.86722260584145        4.30975906875331
o            0.31580208230061       -7.91124138541810       -1.05831289061302
h            0.81671648082761       -8.17492934815402       -0.28537572542387
h            0.14505114554261       -6.94442143141712       -0.95590893031382
o           -0.90725186042785       -6.21070890778860        1.70929947041600
h           -0.65242156507025       -5.27542819036136        1.53162570780004
h           -0.06080130825893       -6.68541429414673        1.80993084787986
o           -3.49390440744589       -0.76762267108222        0.81859108755334
h           -4.06604369426459       -1.16824466071369        0.13560565211875
h           -3.21548939377629       -1.53358238621858        1.35778695362872
o            0.06968697233439       -4.84424695816473        5.34483106032240
h           -0.68105361011374       -5.36384062345854        5.01907859424446
h            0.07200136382002       -4.01442445055350        4.80782360274447
o            6.52822891513015       -2.00037351071138       -0.05390762029840
h            6.95171032444058       -2.39207816847001       -0.84929234760532
h            7.25158751531914       -1.86206769184279        0.58146376045349
o            6.76758872372297        5.09558688214626        2.73969542311899
h            6.50741273386161        4.19711228340406        2.42225367847068
h            6.35801602502174        5.71174993748046        2.11523311215473
o           -8.27437138322815       -0.12626925908532        4.43255991955999
h           -7.65330322964916        0.48023761874503        4.86444345829126
h           -7.93986756426234       -0.21196535623460        3.50399879200907
o            0.06716230766905        3.35313076440625        0.59790420032847
h            0.12378918311509        4.04131484765864        1.26694331265695
h            0.26785942884854        3.76711074189856       -0.26100431658480
o          -11.80184950025894       -0.97046511986299        2.57789401623077
h          -11.77724899704139       -1.06186974268297        1.61117090022055
h          -11.27421815521137       -1.69444550749445        2.93781720333791
o           -6.69609273815620       -5.35038834040662        2.22574864070147
h           -5.86726258805253       -5.68375148847843        1.85561871494120
h           -6.73773348809282       -4.43487306204559        1.88377473942898
o          -10.22161756346821        3.52148039208730       -0.22892641386110
h          -10.12797683265620        3.74315500162107        0.71540261192692
h           -9.47008808329327        3.96319768450641       -0.66212472346982
o            5.32240587350306       -4.22255325254378       -2.91156299837370
h            5.17935340147497       -4.11434389938311       -3.86763938647194
h            5.41458234465122       -3.30067972717253       -2.59272804085412
o            2.29564299191680       -5.29630713302398        3.88433596702291
h            3.07245984414603       -5.16110646726755        4.44481008642354
h            1.51798484056581       -5.21911632058585        4.47872051827772
o           -4.42621090494900       -3.99628134943672       -6.10487147590774
h           -3.86280852051996       -4.63102265794719       -5.65841127232905
h           -3.84267024978846       -3.28737793010654       -6.41279717103929
o           -3.71298147732032        3.22634817556888        1.66796024745178
h           -3.04084388827941        3.87824327048822        1.96307157757217
h           -4.33990610405635        3.71227584578587        1.09211136677730
o            4.84323400295918        1.85093764327545       -2.30320279351549
h            5.33541241479588        1.29991541889775       -1.65426538682207
h            4.81407542146417        1.34163116942738       -3.13285448214307
o            0.60918455978176       -2.67187683341105       -5.89873766183231
h            1.45737131378927       -2.22122091572189       -6.08888812559074
h            0.02232116372920       -2.44144315789023       -6.62232204540040
o           -2.36072042637926       -7.32335842136048       -0.25609722264024
h           -1.74997425154252       -7.96915665774519       -0.63006678654408
h           -1.82729211476905       -6.87414400103726        0.43665708588843
o            9.75721375535433       -1.33209407921246       -2.88680070287101
h            9.90525192631955       -1.41938028011426       -3.82874828637998
h            8.94335935496131       -0.76995883596531       -2.78896445424788
o           10.94574119078634       -0.90009055599241       -0.52169208789872
h           11.05906343317266       -1.80174951233892       -0.17853295713619
h           10.63210468588432       -1.03227896672795       -1.43863010562816
o           -4.25703982274458       -5.34072175820352        0.90996550217582
h           -3.74218083011123       -4.56143230840360        1.21145957890423
h           -3.63059702626381       -5.98841693641239        0.57519392233534
o           -5.57839342965285        5.31391898189001        2.82713535580669
h           -4.80981958235912        5.54609071125006        2.27960757850466
h           -6.34842477471205        5.59992768005496        2.30614473944277
o           -7.93507085370735       -1.25675844690141       -0.62013940136504
h           -8.52726311266539       -1.09265487382661       -1.37422826750337
h           -8.31756374142100       -1.97806089038156       -0.09737239056583
o           -6.18118380152792       -4.95938857928229       -0.98880892756103
h           -5.47185797163697       -5.04546962239624       -0.32165781085769
h           -5.88262854652698       -5.39090062414794       -1.80214548270217
o           -9.45038818232086        3.75180531501835        2.42239468975720
h           -8.56332145222011        3.47885532894214        2.73646025071948
h          -10.04906688327718        3.10845450730690        2.82152272522715
o            4.97555685428253        3.67738101142343       -4.44660632195671
h            5.34905814553010        4.52589703420058       -4.11736837950250
h            5.67793090871838        3.02651385090881       -4.24909007248168
o            5.35641055254770        6.20816771702427        0.61854333481354
h            5.11622677653139        6.86692833230657       -0.04461248996118