 Entering Gaussian System
 *********************************************
 Gaussian 98:
 frequency output generated by the xtb code
 *********************************************
                         Standard orientation:
 --------------------------------------------------------------------
  Center     Atomic     Atomic              Coordinates (Angstroms)
  Number     Number      Type              X           Y           Z
 --------------------------------------------------------------------
    1          6             0       -0.550586   -0.635093    0.834219
    2          6             0       -1.627956    0.094934   -1.237120
    3          6             0       -0.810786   -0.248946   -2.475122
    4          6             0        0.825541   -0.435576    0.384510
    5          1             0       -0.636474   -1.529918    1.453401
    6          1             0       -2.685048    0.153080   -1.501630
    7          1             0       -1.246307   -1.096321   -2.996657
    8          1             0        1.449145   -1.245940    0.063200
    9          1             0       -0.892782    0.246709    1.389705
   10          1             0       -1.312421    1.056455   -0.828275
   11          1             0       -0.796156    0.602249   -3.148472
   12          1             0        0.208462   -0.495289   -2.196273
   13          8             0       -1.537979   -0.893983   -0.215652
   14          7             0        1.339539    0.855769    0.276547
   15          1             0        2.336384    0.905387    0.451031
   16          1             0        0.842334    1.530036    0.847691
   17          8             0        1.006279   -4.314421    0.473389
   18          1             0        0.613198   -4.023695    1.311282
   19          1             0        0.356702   -4.077305   -0.209064
   20          8             0       -3.583054   -0.982316    1.732876
   21          1             0       -2.962993   -0.848948    0.996977
   22          1             0       -3.172625   -0.553862    2.503738
   23          8             0       -0.773590   -3.253881   -1.384185
   24          1             0       -0.946630   -2.396525   -0.945363
   25          1             0       -1.661658   -3.612606   -1.515993
   26          8             0       -3.525099   -3.477725   -1.127074
   27          1             0       -4.223278   -4.096732   -1.343656
   28          1             0       -3.967945   -2.600919   -1.053121
   29          8             0       -3.073586    3.436122   -2.564966
   30          1             0       -2.997295    3.692685   -3.483813
   31          1             0       -2.190940    3.540469   -2.173833
   32          8             0        1.426495   -2.651102   -2.900586
   33          1             0        0.608992   -2.866947   -2.405854
   34          1             0        1.566245   -3.369680   -3.518219
   35          8             0       -0.473266   -3.539731    2.696535
   36          1             0       -0.446491   -4.259658    3.328222
   37          1             0       -1.376370   -3.580901    2.280775
   38          8             0        4.197647    0.960395    0.963832
   39          1             0        5.018278    1.053963    1.448311
   40          1             0        4.372441    0.283425    0.244764
   41          8             0        1.181067    2.861396    2.641362
   42          1             0        1.502545    3.435155    3.338080
   43          1             0        0.197442    2.776374    2.799964
   44          8             0       -2.537042    2.945741    0.548188
   45          1             0       -1.823230    3.101949   -0.106876
   46          1             0       -3.090329    3.728263    0.514595
   47          8             0       -4.953974   -1.232386   -0.700071
   48          1             0       -4.876832   -1.191107    0.261835
   49          1             0       -4.887889   -0.307182   -0.988101
   50          8             0        4.549264   -0.726363   -0.975071
   51          1             0        3.979642   -0.498302   -1.740220
   52          1             0        4.201732   -1.590901   -0.686473
   53          8             0       -2.871033   -3.590820    1.603578
   54          1             0       -3.250023   -2.709340    1.793751
   55          1             0       -2.967327   -3.691957    0.642117
   56          8             0        3.051283   -2.912079   -0.610176
   57          1             0        2.607552   -2.852001   -1.469794
   58          1             0        2.472731   -3.488082   -0.073878
   59          8             0        1.424837    4.322721    0.276158
   60          1             0        2.252248    4.061873   -0.151102
   61          1             0        1.391169    3.838590    1.118668
   62          8             0       -2.131766    0.127783    3.808830
   63          1             0       -1.271726   -0.371815    3.907586
   64          1             0       -2.548215    0.102786    4.670959
   65          8             0        3.654620    2.986906   -0.895980
   66          1             0        4.286679    2.716919   -1.590184
   67          1             0        3.844304    2.392158   -0.149842
   68          8             0        0.101477   -1.189818    4.084937
   69          1             0        0.036028   -2.022921    3.589130
   70          1             0        0.903878   -0.734317    3.777265
   71          8             0        1.465796    1.959760   -2.176976
   72          1             0        1.293362    1.452705   -1.348118
   73          1             0        2.222448    2.525352   -1.932804
   74          8             0        2.238209    0.327076    3.156480
   75          1             0        1.875468    1.219601    3.027158
   76          1             0        2.948602    0.242300    2.511531
   77          8             0       -0.596136    3.502016   -1.269095
   78          1             0        0.039238    3.994660   -0.702649
   79          1             0       -0.012428    2.929699   -1.803150
   80          8             0       -1.381584    2.620057    2.999083
   81          1             0       -1.848174    2.746754    2.151967
   82          1             0       -1.667224    1.748694    3.333807
   83          8             0       -4.468868    1.511949   -1.025411
   84          1             0       -4.203495    2.120666   -1.728620
   85          1             0       -3.946247    1.789959   -0.260864
   86          8             0        2.916841   -0.159283   -3.085900
   87          1             0        2.299285    0.579677   -2.910691
   88          1             0        2.382226   -0.961500   -3.153984
   89          8             0        5.168159    1.597505   -2.686907
   90          1             0        4.498141    1.135649   -3.206313
   91          1             0        5.584723    0.913942   -2.152353
 --------------------------------------------------------------------
     1 basis functions        1 primitive gaussians
     1 alpha electrons        1 beta electrons
 
 Harmonic frequencies (cm**-1), IR intensities (km*mol⁻¹),
 Raman scattering activities (A**4/amu), Raman depolarization ratios,
 reduced masses (AMU), force constants (mDyne/A) and normal coordinates:
                      1                      2                      3
                        a                      a                      a 
 Frequencies --    20.2464                22.4696                27.5537
 Red. masses --    13.8934                14.0389                14.2836
 Frc consts  --     0.0000                 0.0000                 0.0000
 IR Inten    --     0.2876                 2.2800                 1.1287
 Raman Activ --     0.0000                 0.0000                 0.0000
 Depolar     --     0.0000                 0.0000                 0.0000
 Atom AN      X      Y      Z        X      Y      Z        X      Y      Z
   1   6     0.05  -0.05   0.04     0.03  -0.01   0.06     0.01  -0.03   0.07
   2   6    -0.01   0.09   0.12    -0.01  -0.02   0.08     0.02  -0.03   0.06
   3   6    -0.11   0.09   0.05     0.02   0.04   0.08     0.01  -0.06   0.05
   4   6     0.04  -0.13  -0.03     0.02   0.08   0.06     0.01  -0.02   0.07
   5   1     0.01  -0.02   0.00     0.03  -0.01   0.01     0.00  -0.01   0.02
   6   1    -0.01   0.05   0.05    -0.00  -0.02   0.02     0.01  -0.00   0.02
   7   1    -0.05   0.03   0.02     0.01   0.01   0.01    -0.00  -0.02   0.02
   8   1    -0.01  -0.05  -0.03     0.02   0.03   0.02     0.00  -0.00   0.02
   9   1     0.04  -0.01   0.02    -0.00  -0.01   0.02    -0.00  -0.01   0.02
  10   1     0.02   0.01   0.04    -0.02  -0.00   0.03     0.01  -0.01   0.01
  11   1    -0.04   0.03   0.02     0.00   0.02   0.03     0.00  -0.02   0.01
  12   1    -0.03   0.01  -0.01     0.01   0.02   0.02     0.00  -0.02   0.01
  13   8    -0.01   0.05   0.08     0.04  -0.04   0.07     0.01  -0.03   0.07
  14   7     0.13  -0.18  -0.02    -0.06   0.12   0.06    -0.02  -0.01   0.03
  15   1     0.04  -0.07  -0.03    -0.02   0.05   0.03    -0.00   0.00   0.01
  16   1     0.06  -0.05   0.02    -0.04   0.03   0.01    -0.01  -0.00   0.00
  17   8     0.09   0.23   0.00    -0.09  -0.18  -0.09     0.16   0.24   0.23
  18   1     0.02   0.04   0.00    -0.02  -0.04  -0.02     0.02   0.04   0.05
  19   1     0.01   0.05   0.00    -0.02  -0.03  -0.02     0.04   0.03   0.05
  20   8     0.01   0.02   0.07     0.03  -0.08   0.06    -0.06  -0.01  -0.03
  21   1     0.01   0.01   0.02     0.01  -0.02   0.02    -0.00  -0.01   0.00
  22   1     0.00   0.00   0.02     0.01  -0.02   0.02    -0.03   0.00  -0.00
  23   8    -0.02   0.08   0.01    -0.04  -0.00  -0.03     0.09  -0.04   0.13
  24   1    -0.01   0.02   0.00     0.00  -0.00   0.00     0.01  -0.01   0.03
  25   1    -0.00   0.01   0.00    -0.01   0.01  -0.01     0.02  -0.01   0.02
  26   8    -0.01   0.06   0.05    -0.04   0.06  -0.02     0.05   0.05  -0.08
  27   1    -0.01   0.02   0.02    -0.01   0.02  -0.01     0.01   0.02  -0.03
  28   1     0.00   0.02   0.01    -0.01   0.02   0.01     0.02   0.01  -0.02
  29   8     0.10  -0.23  -0.31     0.27  -0.50  -0.39     0.08   0.09  -0.02
  30   1     0.06  -0.08  -0.08     0.11  -0.19  -0.11     0.03   0.03  -0.00
  31   1     0.01  -0.03  -0.04     0.04  -0.07  -0.05     0.02   0.02   0.00
  32   8    -0.05   0.10  -0.02    -0.07   0.04  -0.06     0.05  -0.04   0.10
  33   1    -0.01   0.02   0.00    -0.02   0.01  -0.02     0.02  -0.01   0.03
  34   1    -0.04   0.05  -0.03    -0.00   0.00  -0.00     0.01  -0.01   0.03
  35   8     0.02   0.01   0.04     0.02  -0.06  -0.05    -0.18  -0.04   0.11
  36   1     0.01  -0.01   0.00     0.00  -0.01  -0.01    -0.05  -0.02   0.02
  37   1     0.00   0.00   0.01     0.00  -0.02  -0.01    -0.04  -0.01   0.01
  38   8     0.13  -0.14   0.09    -0.07   0.08  -0.07    -0.05   0.03  -0.20
  39   1     0.04  -0.04   0.01    -0.02   0.01  -0.01    -0.02   0.00  -0.03
  40   1     0.02  -0.03   0.01    -0.02   0.02  -0.02     0.00   0.02  -0.06
  41   8    -0.14  -0.10  -0.07     0.09   0.03   0.10     0.11  -0.15   0.05
  42   1    -0.03  -0.03  -0.02     0.01   0.00   0.03     0.03  -0.04   0.02
  43   1    -0.04  -0.02  -0.02     0.02   0.00   0.01     0.03  -0.03   0.01
  44   8    -0.16   0.13  -0.07     0.03   0.06  -0.03     0.03  -0.00   0.02
  45   1    -0.03   0.03  -0.01     0.01   0.02  -0.01     0.01   0.00   0.00
  46   1    -0.02   0.05  -0.00     0.02   0.03   0.02     0.01   0.00   0.01
  47   8     0.01   0.08   0.05     0.00   0.07   0.07     0.05   0.06  -0.10
  48   1     0.01   0.02   0.01     0.01   0.01   0.02     0.01   0.01  -0.03
  49   1    -0.01   0.02   0.01     0.00   0.02   0.02     0.01   0.02  -0.02
  50   8    -0.01  -0.02  -0.04    -0.04   0.04  -0.03     0.10   0.10  -0.24
  51   1    -0.01   0.00  -0.00    -0.01   0.01  -0.01     0.01   0.01  -0.05
  52   1     0.02  -0.02  -0.03    -0.02   0.02   0.00     0.04   0.02  -0.05
  53   8     0.02   0.02   0.04     0.01  -0.08  -0.03    -0.10  -0.02  -0.05
  54   1     0.00   0.00   0.01     0.00  -0.02   0.00    -0.02  -0.00  -0.01
  55   1     0.00   0.01   0.01    -0.00  -0.01  -0.01    -0.01   0.00  -0.01
  56   8     0.31  -0.27  -0.29    -0.28   0.21   0.10     0.18   0.08   0.02
  57   1     0.05  -0.04  -0.05    -0.05   0.04   0.01     0.03   0.01   0.01
  58   1     0.06  -0.02  -0.04    -0.05   0.01   0.00     0.05   0.04   0.03
  59   8    -0.05   0.00   0.01     0.04   0.03   0.08     0.04  -0.05   0.08
  60   1    -0.01  -0.00   0.01     0.01   0.01   0.01     0.00  -0.00   0.01
  61   1    -0.03  -0.01  -0.00     0.02   0.01   0.02     0.02  -0.02   0.02
  62   8     0.02  -0.00   0.06     0.02  -0.02   0.04    -0.16   0.02   0.03
  63   1     0.01   0.00   0.01     0.00  -0.01   0.01    -0.05  -0.00   0.02
  64   1     0.01   0.00   0.02     0.01   0.00   0.01    -0.05   0.02   0.00
  65   8    -0.02  -0.07   0.15     0.02   0.09  -0.05    -0.04   0.04  -0.15
  66   1    -0.01  -0.01   0.03     0.00   0.02  -0.01    -0.01   0.02  -0.05
  67   1     0.00  -0.01   0.04     0.00   0.02  -0.02    -0.00   0.00  -0.05
  68   8     0.03   0.01   0.04    -0.01  -0.08   0.04    -0.23  -0.07   0.15
  69   1     0.00   0.00   0.01    -0.00  -0.02   0.00    -0.06  -0.02   0.04
  70   1     0.01  -0.00   0.01    -0.00  -0.02   0.01    -0.05  -0.03   0.04
  71   8    -0.05   0.03   0.07     0.02   0.04   0.04    -0.05  -0.05   0.01
  72   1    -0.00  -0.00   0.01     0.00   0.01   0.01    -0.01  -0.01   0.00
  73   1    -0.01   0.01   0.02     0.01   0.01   0.01    -0.01  -0.01   0.00
  74   8     0.05  -0.02  -0.01    -0.03  -0.03   0.05    -0.13  -0.24   0.05
  75   1    -0.00  -0.01  -0.00     0.00  -0.00   0.01    -0.00  -0.05   0.00
  76   1     0.03   0.01   0.01    -0.02  -0.02   0.01    -0.04  -0.10   0.01
  77   8    -0.06   0.04   0.00     0.05   0.06   0.02     0.03   0.01   0.05
  78   1    -0.02   0.01   0.00     0.01   0.02   0.01     0.01  -0.00   0.02
  79   1    -0.01   0.00   0.01     0.02   0.01   0.01     0.01   0.00   0.01
  80   8    -0.14  -0.01  -0.09     0.06  -0.06  -0.05     0.09  -0.06  -0.02
  81   1    -0.04  -0.00  -0.02     0.02  -0.01  -0.01     0.02  -0.01  -0.00
  82   1    -0.03  -0.00  -0.02     0.01  -0.01  -0.01     0.00  -0.01   0.00
  83   8    -0.08   0.08  -0.09    -0.00   0.04   0.01     0.06   0.06  -0.08
  84   1    -0.01  -0.01  -0.04     0.02  -0.03  -0.03     0.02   0.02  -0.02
  85   1    -0.03   0.05  -0.03     0.01   0.03  -0.01     0.01   0.01  -0.02
  86   8    -0.05   0.06   0.00    -0.03   0.04  -0.03    -0.06   0.01  -0.13
  87   1    -0.01   0.01   0.00    -0.00   0.01   0.00    -0.02  -0.00  -0.02
  88   1    -0.01   0.01   0.00    -0.01   0.01  -0.01    -0.01  -0.00  -0.01
  89   8    -0.04   0.03   0.07    -0.03   0.04  -0.06    -0.10   0.13  -0.27
  90   1    -0.01   0.01   0.01    -0.01   0.01  -0.01    -0.03   0.03  -0.06
  91   1    -0.01   0.00   0.01    -0.00   0.01  -0.01    -0.02   0.04  -0.07
                      4                      5                      6
                        a                      a                      a 
 Frequencies --    32.6876                35.6535                37.8866
 Red. masses --    13.4615                14.0507                13.8245
 Frc consts  --     0.0000                 0.0000                 0.0000
 IR Inten    --     1.5136                 1.3563                 0.8114
 Raman Activ --     0.0000                 0.0000                 0.0000
 Depolar     --     0.0000                 0.0000                 0.0000
 Atom AN      X      Y      Z        X      Y      Z        X      Y      Z
   1   6    -0.20   0.10  -0.10    -0.03   0.03   0.02     0.11  -0.06   0.02
   2   6    -0.10   0.00  -0.18    -0.07  -0.01   0.03    -0.04   0.01   0.12
   3   6     0.00  -0.01  -0.11    -0.14  -0.05  -0.00    -0.12   0.08   0.05
   4   6    -0.16  -0.01  -0.04    -0.03  -0.03  -0.02     0.07   0.05  -0.06
   5   1    -0.08   0.04  -0.01    -0.01   0.02   0.02     0.06  -0.03  -0.01
   6   1    -0.02  -0.01  -0.08    -0.02   0.00   0.02    -0.02   0.00   0.06
   7   1     0.02  -0.01  -0.03    -0.05  -0.02   0.02    -0.04   0.02   0.02
   8   1    -0.06  -0.02   0.00    -0.02  -0.02  -0.00     0.03   0.03  -0.03
   9   1    -0.05   0.05  -0.06     0.00   0.02  -0.00     0.03  -0.03   0.03
  10   1    -0.05   0.01  -0.06    -0.01  -0.00  -0.00    -0.01  -0.00   0.04
  11   1     0.01  -0.01  -0.04    -0.05  -0.02  -0.01    -0.06   0.03   0.02
  12   1    -0.00   0.01  -0.01    -0.03  -0.01  -0.02    -0.03   0.03  -0.01
  13   8    -0.17   0.06  -0.15    -0.06   0.01   0.05     0.06  -0.04   0.08
  14   7    -0.05  -0.05  -0.02     0.01  -0.06  -0.06    -0.02   0.09  -0.07
  15   1    -0.01  -0.04   0.00     0.01  -0.03  -0.03    -0.01   0.04  -0.01
  16   1    -0.01  -0.00  -0.01     0.02  -0.01  -0.01    -0.02   0.01  -0.02
  17   8     0.05   0.21   0.04     0.07  -0.10   0.06     0.02   0.02  -0.06
  18   1     0.00   0.04   0.01     0.01  -0.03   0.01     0.01   0.00  -0.01
  19   1     0.01   0.04   0.01     0.02  -0.02   0.01     0.01   0.01  -0.02
  20   8    -0.12   0.07  -0.00    -0.02  -0.01   0.08     0.10  -0.22   0.08
  21   1    -0.05   0.03  -0.02    -0.01   0.01   0.02     0.03  -0.05   0.02
  22   1    -0.02   0.02  -0.01     0.01  -0.02   0.03     0.01  -0.03   0.02
  23   8     0.00   0.05  -0.02     0.06   0.01   0.11     0.03   0.04  -0.07
  24   1    -0.02   0.01  -0.01     0.01  -0.00   0.03     0.01   0.00  -0.01
  25   1     0.01  -0.00  -0.01     0.02   0.02  -0.01     0.01   0.01  -0.02
  26   8    -0.01  -0.00  -0.04    -0.01   0.30  -0.25     0.03   0.04  -0.06
  27   1     0.00  -0.01  -0.01    -0.01   0.08  -0.07     0.01   0.01  -0.03
  28   1    -0.01  -0.01  -0.01    -0.00   0.07  -0.03     0.00   0.01   0.01
  29   8     0.04  -0.44   0.08    -0.07   0.02  -0.08    -0.14  -0.03   0.10
  30   1     0.01  -0.17   0.00    -0.01  -0.00  -0.02    -0.07  -0.00   0.02
  31   1     0.01  -0.07   0.02    -0.02  -0.00  -0.02    -0.02  -0.01  -0.00
  32   8     0.07   0.03   0.06     0.11  -0.02   0.21     0.02   0.12  -0.04
  33   1     0.02   0.01   0.01     0.02   0.00   0.05     0.01   0.03  -0.01
  34   1     0.02   0.01   0.01     0.03  -0.01   0.06    -0.00   0.04  -0.03
  35   8    -0.07   0.07  -0.02    -0.06  -0.08  -0.06     0.01  -0.05  -0.03
  36   1    -0.02   0.02  -0.01    -0.04  -0.02  -0.01     0.02  -0.02  -0.01
  37   1    -0.02   0.02  -0.01    -0.00  -0.01  -0.04     0.00  -0.03  -0.01
  38   8    -0.04  -0.05  -0.01     0.03   0.14   0.01    -0.10   0.02   0.05
  39   1    -0.01  -0.00   0.00     0.01   0.06  -0.00    -0.04   0.00   0.03
  40   1     0.00  -0.01  -0.01     0.02   0.02   0.02    -0.01   0.00   0.02
  41   8     0.11  -0.01   0.02    -0.03  -0.03  -0.12     0.02   0.04  -0.10
  42   1     0.04  -0.01   0.00    -0.00  -0.01  -0.04     0.02   0.01  -0.03
  43   1     0.03   0.00   0.02    -0.00  -0.02  -0.02     0.01   0.02  -0.02
  44   8     0.13  -0.06   0.12    -0.00   0.05   0.04     0.08   0.18  -0.02
  45   1     0.03  -0.01   0.03    -0.01   0.00  -0.00     0.01   0.03  -0.02
  46   1     0.02  -0.02   0.02     0.02   0.03   0.03     0.02   0.04  -0.02
  47   8    -0.12  -0.09   0.02    -0.05   0.22   0.05     0.01  -0.01   0.16
  48   1    -0.05  -0.04   0.01    -0.01   0.04   0.01     0.02  -0.02   0.04
  49   1    -0.02  -0.01   0.03    -0.02   0.06   0.03    -0.01   0.00   0.05
  50   8     0.10   0.02  -0.03     0.10   0.01   0.14     0.03  -0.00   0.09
  51   1     0.03   0.00  -0.01     0.02  -0.01   0.04     0.01   0.00   0.02
  52   1     0.03   0.00  -0.01     0.03   0.01   0.05     0.01  -0.01   0.01
  53   8    -0.06   0.09  -0.04     0.01   0.02  -0.26     0.04  -0.22  -0.06
  54   1    -0.02   0.02  -0.01    -0.00  -0.01  -0.04     0.01  -0.06   0.00
  55   1    -0.01   0.02  -0.01     0.00   0.03  -0.07     0.01  -0.03  -0.02
  56   8     0.18  -0.01  -0.02     0.08   0.03   0.24     0.07  -0.06  -0.08
  57   1     0.03   0.00   0.00     0.03   0.00   0.06     0.01  -0.00  -0.02
  58   1     0.03   0.02   0.01     0.02  -0.00   0.05     0.01  -0.01  -0.02
  59   8     0.03   0.00   0.03    -0.10   0.00  -0.11     0.03  -0.04  -0.16
  60   1     0.01   0.00   0.01    -0.03   0.00  -0.03     0.01  -0.01  -0.04
  61   1     0.01   0.00   0.01    -0.02  -0.00  -0.03     0.01  -0.00  -0.04
  62   8    -0.03   0.07  -0.05     0.14  -0.16   0.08    -0.12   0.15  -0.00
  63   1    -0.01   0.02  -0.02     0.04  -0.03   0.01    -0.04   0.02   0.01
  64   1    -0.01   0.01  -0.01     0.05  -0.04   0.03    -0.04   0.06  -0.01
  65   8     0.01  -0.02   0.03    -0.11   0.01  -0.09     0.08  -0.04  -0.08
  66   1     0.01   0.00   0.01    -0.02   0.00  -0.02     0.03  -0.02  -0.01
  67   1    -0.01  -0.01   0.00    -0.02   0.01  -0.02     0.01  -0.00  -0.01
  68   8    -0.03   0.07  -0.09     0.19  -0.12  -0.06    -0.27  -0.07   0.12
  69   1    -0.01   0.01  -0.02     0.04  -0.03  -0.02    -0.07  -0.01   0.02
  70   1    -0.00   0.01  -0.02     0.04  -0.03  -0.02    -0.07  -0.01   0.03
  71   8     0.06  -0.03   0.00    -0.08  -0.08  -0.07     0.07   0.01  -0.12
  72   1     0.01  -0.01  -0.00    -0.02  -0.02  -0.02     0.01   0.01  -0.03
  73   1     0.01  -0.01   0.01    -0.02  -0.01  -0.02     0.02   0.00  -0.03
  74   8     0.04  -0.03  -0.05     0.09   0.00  -0.11    -0.32  -0.08  -0.00
  75   1     0.01  -0.01  -0.01     0.01  -0.01  -0.02    -0.05  -0.01  -0.01
  76   1     0.01  -0.01  -0.01     0.03   0.02  -0.02    -0.07  -0.04   0.01
  77   8     0.06  -0.06   0.04    -0.08  -0.07  -0.08     0.01  -0.00  -0.17
  78   1     0.01  -0.01   0.01    -0.02  -0.01  -0.03     0.01  -0.00  -0.04
  79   1     0.02  -0.01   0.01    -0.02  -0.02  -0.02    -0.00  -0.00  -0.04
  80   8     0.12   0.07   0.13     0.00  -0.13   0.02     0.03   0.12  -0.01
  81   1     0.03   0.02   0.03    -0.01  -0.03   0.01     0.01   0.04  -0.00
  82   1     0.03   0.02   0.03     0.01  -0.04   0.00    -0.00   0.03  -0.01
  83   8    -0.11  -0.09   0.34    -0.07   0.18   0.08    -0.05   0.03   0.27
  84   1    -0.01  -0.04   0.08    -0.02   0.03   0.01    -0.02   0.00   0.06
  85   1    -0.01  -0.04   0.08     0.00   0.05   0.01    -0.00   0.02   0.06
  86   8     0.09   0.01  -0.01     0.06  -0.08   0.14     0.12   0.00   0.02
  87   1     0.02   0.00  -0.00     0.01  -0.02   0.02     0.03   0.00  -0.01
  88   1     0.02   0.00   0.00     0.02  -0.03   0.05     0.02   0.00   0.01
  89   8     0.10   0.05   0.06    -0.00  -0.02   0.01     0.19  -0.10   0.06
  90   1     0.03   0.02   0.00     0.00  -0.02   0.02     0.05  -0.03   0.01
  91   1     0.02   0.01   0.02     0.02   0.01   0.01     0.03  -0.02   0.03
                      7                      8                      9
                        a                      a                      a 
 Frequencies --    42.5654                45.5709                47.4006
 Red. masses --    14.1834                13.9298                14.0789
 Frc consts  --     0.0000                 0.0000                 0.0000
 IR Inten    --     0.7829                 0.2157                 0.8610
 Raman Activ --     0.0000                 0.0000                 0.0000
 Depolar     --     0.0000                 0.0000                 0.0000
 Atom AN      X      Y      Z        X      Y      Z        X      Y      Z
   1   6     0.13   0.01  -0.04    -0.08  -0.15  -0.06    -0.15   0.01   0.01
   2   6     0.05   0.05   0.01    -0.06  -0.12  -0.06    -0.08  -0.00  -0.03
   3   6     0.02   0.06  -0.01    -0.01  -0.06  -0.04    -0.05  -0.02  -0.00
   4   6     0.10   0.02  -0.11    -0.08  -0.07  -0.04    -0.12  -0.10   0.05
   5   1     0.05  -0.00  -0.02    -0.01  -0.05  -0.03    -0.06   0.01   0.02
   6   1     0.01   0.01   0.01    -0.02  -0.04  -0.03    -0.02   0.00  -0.02
   7   1     0.00   0.02  -0.00     0.01  -0.02  -0.02    -0.01  -0.01   0.00
   8   1     0.03   0.01  -0.03    -0.01  -0.01  -0.02    -0.05  -0.04   0.03
   9   1     0.04  -0.00   0.00    -0.03  -0.05  -0.01    -0.03   0.02  -0.01
  10   1     0.02   0.01   0.00    -0.03  -0.03  -0.01    -0.02  -0.00  -0.01
  11   1    -0.00   0.02  -0.00    -0.00  -0.01  -0.00    -0.02  -0.01  -0.01
  12   1     0.01   0.02  -0.01    -0.00  -0.01  -0.00    -0.01   0.00   0.00
  13   8     0.08   0.04   0.01    -0.08  -0.15  -0.09    -0.14   0.01  -0.01
  14   7     0.09   0.03  -0.13    -0.16  -0.04   0.02    -0.02  -0.15   0.04
  15   1     0.03   0.01  -0.04    -0.05   0.01   0.02    -0.00  -0.06   0.01
  16   1     0.03   0.01  -0.03    -0.06  -0.02   0.01     0.01  -0.03   0.00
  17   8    -0.11   0.07  -0.04     0.04   0.12  -0.05     0.07  -0.13  -0.13
  18   1    -0.04   0.00  -0.01    -0.00   0.01  -0.01     0.04  -0.03  -0.02
  19   1    -0.02   0.02  -0.02     0.01   0.01  -0.02     0.01  -0.02  -0.02
  20   8     0.08   0.24   0.00    -0.01  -0.10   0.06    -0.10  -0.04   0.08
  21   1     0.03   0.04   0.01    -0.01  -0.04   0.00    -0.04  -0.00   0.01
  22   1     0.03   0.04   0.01     0.01  -0.01   0.00    -0.02   0.00   0.01
  23   8    -0.08   0.04  -0.07    -0.08  -0.13  -0.10    -0.01   0.02   0.02
  24   1    -0.01   0.01  -0.02    -0.03  -0.03  -0.03    -0.01   0.00   0.01
  25   1    -0.02   0.00   0.01    -0.02  -0.05  -0.00     0.00  -0.00   0.01
  26   8    -0.07  -0.09   0.18    -0.12  -0.03   0.24    -0.01   0.06   0.21
  27   1    -0.01  -0.03   0.05    -0.05   0.00   0.07    -0.01   0.01   0.07
  28   1    -0.02  -0.02   0.04    -0.01   0.00   0.04     0.00   0.02   0.04
  29   8    -0.09  -0.03  -0.01     0.06   0.14  -0.13    -0.01   0.13  -0.03
  30   1    -0.02  -0.01  -0.00     0.01   0.07  -0.02    -0.02   0.07   0.00
  31   1    -0.02  -0.01  -0.00     0.01   0.04  -0.03     0.01   0.00  -0.02
  32   8     0.05   0.07   0.05     0.04  -0.03   0.04    -0.00   0.06  -0.01
  33   1     0.00   0.02  -0.00     0.01  -0.02  -0.00    -0.00   0.01  -0.00
  34   1     0.02   0.02   0.01     0.02   0.00  -0.00     0.01   0.00   0.01
  35   8    -0.20  -0.06  -0.04    -0.00  -0.11  -0.01     0.26  -0.07  -0.01
  36   1    -0.05  -0.02  -0.02     0.02  -0.03  -0.00     0.07  -0.02  -0.01
  37   1    -0.06   0.01   0.01    -0.01  -0.03   0.02     0.06  -0.01   0.01
  38   8     0.07   0.10  -0.03    -0.17   0.15   0.05    -0.01  -0.15  -0.10
  39   1     0.01   0.03   0.00    -0.04   0.06   0.01    -0.02  -0.04  -0.00
  40   1     0.03   0.02  -0.00    -0.03   0.03   0.02     0.02  -0.02  -0.04
  41   8     0.02  -0.19  -0.07     0.21   0.07  -0.00    -0.09  -0.11  -0.06
  42   1     0.02  -0.06  -0.01     0.05   0.02  -0.00    -0.02  -0.03  -0.02
  43   1     0.00  -0.03  -0.02     0.05   0.01  -0.00    -0.02  -0.02  -0.01
  44   8    -0.11  -0.09  -0.02     0.19  -0.02  -0.07     0.01   0.08  -0.09
  45   1    -0.03  -0.02  -0.01     0.04   0.01  -0.03     0.01  -0.00  -0.02
  46   1    -0.03  -0.02  -0.00     0.05  -0.00   0.01     0.02   0.03  -0.03
  47   8    -0.04  -0.09   0.13    -0.00   0.13   0.02    -0.05   0.10   0.03
  48   1     0.02   0.01   0.03    -0.02   0.03   0.01    -0.03   0.02   0.01
  49   1    -0.01  -0.03   0.00     0.01   0.03   0.01    -0.01   0.03   0.01
  50   8     0.14   0.01   0.04    -0.07   0.10   0.13     0.27  -0.02  -0.18
  51   1     0.04   0.00   0.01    -0.02   0.02   0.03     0.07  -0.01  -0.05
  52   1     0.02   0.01   0.02    -0.00   0.01   0.02     0.05   0.01  -0.03
  53   8    -0.29   0.14   0.20    -0.10  -0.12   0.20     0.19   0.03   0.15
  54   1    -0.04   0.05   0.03    -0.02  -0.03   0.05     0.03  -0.00   0.04
  55   1    -0.07   0.02   0.05    -0.03  -0.03   0.05     0.03   0.01   0.04
  56   8    -0.05   0.12   0.13     0.19  -0.10  -0.07    -0.11   0.27   0.07
  57   1    -0.00   0.03   0.02     0.04  -0.02  -0.01    -0.02   0.06   0.01
  58   1    -0.02   0.03   0.02     0.03  -0.00  -0.01    -0.00   0.02  -0.00
  59   8    -0.09  -0.07  -0.01    -0.04   0.15   0.02    -0.07  -0.05  -0.02
  60   1    -0.02   0.00  -0.00    -0.01   0.04  -0.00    -0.01  -0.01   0.00
  61   1    -0.01  -0.02  -0.00     0.00   0.02   0.00    -0.03  -0.02  -0.01
  62   8     0.10  -0.02   0.09     0.11   0.00  -0.08    -0.06   0.04   0.00
  63   1     0.02  -0.02   0.02     0.02  -0.01  -0.02    -0.02   0.01  -0.01
  64   1     0.03  -0.01   0.02     0.03   0.01  -0.02    -0.01   0.02   0.00
  65   8     0.03   0.12   0.00    -0.13   0.09   0.01    -0.01   0.00   0.11
  66   1     0.01   0.03   0.01    -0.02   0.02   0.02     0.01   0.02   0.03
  67   1     0.01   0.03   0.00    -0.05   0.02   0.01    -0.01  -0.02   0.01
  68   8    -0.00  -0.19   0.03     0.04  -0.09  -0.07    -0.09  -0.01  -0.03
  69   1    -0.03  -0.04   0.00     0.01  -0.02  -0.02    -0.00  -0.01  -0.00
  70   1    -0.00  -0.06  -0.01     0.01  -0.02  -0.02    -0.02   0.00   0.01
  71   8     0.08   0.09  -0.11    -0.06   0.00   0.05     0.12  -0.15   0.06
  72   1     0.02   0.02  -0.03    -0.03  -0.00   0.01     0.02  -0.04   0.01
  73   1     0.01   0.03  -0.03    -0.01  -0.00   0.03     0.02  -0.03   0.03
  74   8    -0.04  -0.25  -0.15    -0.01  -0.03  -0.05    -0.01  -0.05   0.10
  75   1    -0.01  -0.06  -0.03     0.01   0.00   0.00    -0.01  -0.02   0.00
  76   1    -0.00  -0.06  -0.03     0.00  -0.00  -0.01    -0.02  -0.04   0.01
  77   8    -0.07  -0.09  -0.04     0.04   0.17  -0.08     0.05  -0.13  -0.12
  78   1    -0.02  -0.02  -0.00     0.01   0.04  -0.01     0.01  -0.03  -0.03
  79   1    -0.01  -0.01  -0.02     0.01   0.03  -0.01     0.02  -0.04  -0.02
  80   8     0.02  -0.06  -0.07     0.21  -0.03  -0.09    -0.09   0.03  -0.05
  81   1    -0.01  -0.02  -0.01     0.06  -0.01  -0.03    -0.02   0.01  -0.01
  82   1     0.01  -0.01  -0.00     0.05  -0.01  -0.02    -0.03   0.01  -0.01
  83   8    -0.05  -0.12  -0.10     0.10   0.13  -0.06    -0.04   0.12  -0.02
  84   1    -0.01  -0.02  -0.02     0.02   0.02  -0.02    -0.01   0.02  -0.01
  85   1    -0.03  -0.03  -0.02     0.05   0.03  -0.03    -0.00   0.03  -0.01
  86   8     0.14   0.05   0.05    -0.01   0.04   0.08     0.18  -0.01  -0.08
  87   1     0.04   0.02  -0.00    -0.00   0.01   0.01     0.05  -0.00   0.00
  88   1     0.03   0.01   0.01     0.00   0.01   0.02     0.04   0.00  -0.02
  89   8     0.12   0.09   0.09     0.01   0.06   0.17     0.10   0.21   0.05
  90   1     0.04   0.02   0.02     0.01   0.02   0.03     0.04   0.05  -0.00
  91   1     0.03   0.03   0.03    -0.02   0.01   0.05     0.03   0.05   0.00
                     10                     11                     12
                        a                      a                      a 
 Frequencies --    51.7684                52.8252                53.9929
 Red. masses --    13.9167                14.0471                14.3716
 Frc consts  --     0.0000                 0.0000                 0.0000
 IR Inten    --     0.2123                 3.7022                 0.9482
 Raman Activ --     0.0000                 0.0000                 0.0000
 Depolar     --     0.0000                 0.0000                 0.0000
 Atom AN      X      Y      Z        X      Y      Z        X      Y      Z
   1   6     0.01  -0.07   0.04    -0.08   0.06   0.00     0.03  -0.04   0.04
   2   6     0.06   0.08   0.06    -0.10   0.10   0.03     0.03  -0.02   0.04
   3   6    -0.00   0.07   0.03    -0.14   0.13  -0.00     0.06   0.01   0.05
   4   6     0.03  -0.13   0.06    -0.08   0.07   0.00     0.03  -0.06   0.05
   5   1    -0.01  -0.03  -0.00    -0.02   0.01  -0.00     0.00  -0.01   0.01
   6   1     0.02   0.05   0.03    -0.03   0.03   0.02     0.01  -0.01   0.01
   7   1    -0.02   0.03   0.00    -0.04   0.03   0.00     0.02   0.01   0.01
   8   1    -0.01  -0.04   0.00    -0.02   0.02  -0.00     0.01  -0.02   0.02
   9   1     0.01  -0.02   0.02    -0.02   0.01   0.00     0.01  -0.01   0.01
  10   1     0.04   0.01   0.03    -0.02   0.03   0.01     0.01  -0.01   0.02
  11   1     0.01   0.03   0.02    -0.05   0.04   0.00     0.02   0.01   0.02
  12   1    -0.00  -0.00  -0.00    -0.03   0.04  -0.01     0.01  -0.00   0.02
  13   8     0.01   0.02   0.01    -0.09   0.09   0.00     0.04  -0.04   0.04
  14   7     0.10  -0.16   0.11    -0.08   0.08   0.02     0.05  -0.07   0.03
  15   1     0.03  -0.06   0.01    -0.02   0.02   0.01     0.01  -0.02   0.01
  16   1     0.05  -0.04   0.05    -0.02   0.02   0.01     0.02  -0.01   0.01
  17   8    -0.12  -0.09   0.03    -0.04   0.14   0.04    -0.12   0.24   0.09
  18   1    -0.03  -0.02   0.01    -0.01   0.03   0.01    -0.05   0.05   0.02
  19   1    -0.02  -0.01   0.00    -0.01   0.04   0.01    -0.03   0.03   0.01
  20   8     0.00  -0.07  -0.06    -0.08  -0.22  -0.03     0.04  -0.24   0.02
  21   1    -0.00  -0.02  -0.02    -0.02  -0.04  -0.01     0.01  -0.06   0.01
  22   1    -0.01  -0.00  -0.02    -0.02  -0.05  -0.01     0.01  -0.06   0.01
  23   8     0.01   0.04  -0.02    -0.03   0.12   0.02    -0.12  -0.03  -0.06
  24   1     0.00   0.01  -0.01    -0.02   0.03  -0.00    -0.02  -0.01  -0.01
  25   1     0.00   0.01  -0.01    -0.00   0.01   0.01    -0.03  -0.00  -0.01
  26   8     0.05  -0.10  -0.12     0.01  -0.14   0.09    -0.13  -0.06  -0.06
  27   1     0.02  -0.03  -0.04     0.00  -0.03   0.02    -0.04  -0.00  -0.04
  28   1     0.01  -0.03  -0.03     0.01  -0.03   0.01    -0.02  -0.01  -0.00
  29   8    -0.22  -0.03   0.01    -0.01   0.05  -0.01     0.06   0.02   0.07
  30   1    -0.07  -0.03  -0.01    -0.00   0.04   0.01     0.00   0.02   0.02
  31   1    -0.05   0.01  -0.02    -0.00   0.01   0.00     0.02  -0.01   0.00
  32   8     0.02   0.04   0.04    -0.01   0.19   0.10    -0.07  -0.04  -0.03
  33   1     0.00   0.01   0.00    -0.00   0.04   0.02    -0.02  -0.01  -0.01
  34   1     0.01   0.02   0.00    -0.01   0.06   0.01    -0.01  -0.02   0.00
  35   8    -0.10  -0.02   0.04     0.01   0.04   0.09    -0.27   0.08   0.04
  36   1    -0.03   0.00   0.02     0.02   0.01   0.03    -0.05   0.03   0.02
  37   1    -0.02  -0.01   0.00     0.00  -0.01   0.03    -0.06  -0.01   0.00
  38   8     0.15  -0.05  -0.05    -0.04   0.01  -0.03     0.10   0.01  -0.07
  39   1     0.04  -0.00  -0.02    -0.01   0.02  -0.01     0.03  -0.00  -0.03
  40   1     0.04  -0.01  -0.01     0.00  -0.00  -0.00     0.02   0.01  -0.03
  41   8     0.25  -0.07  -0.07     0.08  -0.00   0.14    -0.18   0.07  -0.12
  42   1     0.07  -0.01  -0.02    -0.01   0.00   0.05    -0.05   0.03  -0.04
  43   1     0.06   0.00  -0.02     0.02  -0.02   0.00    -0.04   0.00  -0.01
  44   8    -0.01   0.14  -0.06    -0.15   0.04  -0.06     0.10   0.06  -0.00
  45   1    -0.01   0.04  -0.03    -0.03   0.02  -0.01     0.03  -0.00   0.00
  46   1    -0.01   0.03  -0.01    -0.03   0.02  -0.01     0.03   0.02  -0.02
  47   8     0.04  -0.12  -0.08     0.01  -0.06  -0.11     0.00   0.02   0.03
  48   1     0.00  -0.04  -0.02    -0.01  -0.02  -0.03     0.01  -0.00   0.01
  49   1     0.01  -0.03  -0.01    -0.01  -0.01  -0.03     0.01   0.01   0.02
  50   8     0.09  -0.11  -0.02     0.10  -0.02   0.05     0.04   0.03  -0.11
  51   1     0.01  -0.02   0.00     0.02   0.00   0.02     0.02   0.00  -0.04
  52   1     0.01  -0.02   0.01     0.02  -0.00   0.01     0.00   0.01  -0.02
  53   8    -0.05  -0.09  -0.07     0.00  -0.19   0.10    -0.25  -0.30  -0.02
  54   1    -0.01  -0.02  -0.02    -0.01  -0.05   0.02    -0.05  -0.07  -0.00
  55   1    -0.01  -0.02  -0.02     0.01  -0.05   0.03    -0.05  -0.07  -0.01
  56   8    -0.12   0.02   0.14     0.01   0.06   0.07    -0.08   0.12  -0.01
  57   1    -0.02   0.00   0.03    -0.00   0.02   0.02    -0.02   0.02  -0.00
  58   1    -0.03  -0.01   0.02    -0.00   0.02   0.02    -0.02   0.04   0.01
  59   8    -0.11   0.06  -0.04     0.16  -0.17   0.03    -0.00   0.13  -0.08
  60   1    -0.03   0.03  -0.01     0.04  -0.04   0.00     0.00   0.03  -0.01
  61   1    -0.01   0.00  -0.01     0.05  -0.03   0.02    -0.02   0.02  -0.02
  62   8     0.03   0.18  -0.18    -0.05  -0.17  -0.07     0.00  -0.14   0.01
  63   1    -0.00   0.04  -0.04     0.00  -0.02  -0.02     0.02  -0.01   0.00
  64   1     0.00   0.06  -0.05    -0.00  -0.04  -0.01     0.00  -0.04   0.00
  65   8    -0.07   0.05   0.10     0.14  -0.12  -0.19     0.04   0.10   0.06
  66   1    -0.02   0.02   0.02     0.04  -0.04  -0.04     0.01   0.03   0.02
  67   1    -0.01   0.01   0.02     0.03  -0.03  -0.05     0.01   0.02   0.01
  68   8    -0.03   0.08  -0.09     0.11   0.10  -0.06     0.16   0.09  -0.01
  69   1    -0.01   0.01  -0.01     0.03   0.02  -0.00     0.03   0.02  -0.00
  70   1     0.01   0.00  -0.01     0.03   0.02  -0.02     0.04   0.02  -0.01
  71   8    -0.09   0.01   0.20    -0.01   0.05   0.00     0.17  -0.09   0.03
  72   1    -0.02  -0.00   0.05    -0.01   0.02   0.00     0.03  -0.03   0.00
  73   1    -0.02   0.00   0.05     0.01   0.00  -0.00     0.03  -0.02   0.02
  74   8     0.20  -0.08   0.10     0.18   0.01  -0.03     0.11   0.21   0.01
  75   1     0.06  -0.02   0.01     0.04   0.00   0.01     0.00   0.04  -0.01
  76   1     0.04  -0.04   0.02     0.03   0.01  -0.03     0.03   0.06   0.01
  77   8    -0.10   0.16  -0.14    -0.00   0.07   0.07     0.11  -0.12  -0.07
  78   1    -0.03   0.04  -0.03     0.01  -0.00   0.02     0.02  -0.01  -0.03
  79   1    -0.02   0.02  -0.01    -0.01   0.02   0.01     0.03  -0.03  -0.01
  80   8     0.22   0.12  -0.18     0.03  -0.22  -0.18    -0.14  -0.06   0.09
  81   1     0.05   0.04  -0.04    -0.01  -0.04  -0.03    -0.03  -0.01   0.02
  82   1     0.04   0.04  -0.05    -0.00  -0.05  -0.04    -0.03  -0.02   0.01
  83   8    -0.02  -0.07   0.12    -0.18   0.04  -0.09     0.08   0.02   0.09
  84   1    -0.02  -0.01   0.03    -0.04   0.01  -0.02     0.02   0.00   0.02
  85   1    -0.01  -0.00   0.03    -0.05   0.01  -0.02     0.02   0.01   0.02
  86   8    -0.06   0.06   0.13     0.06   0.06   0.12     0.09  -0.05  -0.15
  87   1    -0.02   0.01   0.05     0.02   0.02   0.02     0.03  -0.01  -0.02
  88   1    -0.01   0.01   0.03     0.01   0.02   0.03     0.01  -0.01  -0.03
  89   8    -0.14   0.10   0.02     0.22  -0.18  -0.11     0.05   0.13   0.05
  90   1    -0.05   0.01   0.03     0.04  -0.05  -0.01     0.02   0.04  -0.01
  91   1    -0.00   0.03  -0.01     0.06  -0.04  -0.02    -0.00   0.02   0.01
                     13                     14                     15
                        a                      a                      a 
 Frequencies --    55.6281                56.2541                59.6713
 Red. masses --    14.2513                13.8342                14.3614
 Frc consts  --     0.0000                 0.0000                 0.0000
 IR Inten    --     3.3657                 2.5458                 0.4738
 Raman Activ --     0.0000                 0.0000                 0.0000
 Depolar     --     0.0000                 0.0000                 0.0000
 Atom AN      X      Y      Z        X      Y      Z        X      Y      Z
   1   6     0.00  -0.05   0.08    -0.00  -0.13   0.04     0.04  -0.01  -0.03
   2   6    -0.04  -0.09   0.08     0.03   0.02   0.08     0.03  -0.04  -0.04
   3   6    -0.03  -0.02   0.07    -0.06   0.03   0.02     0.06  -0.03  -0.03
   4   6    -0.00   0.03   0.09     0.01  -0.15   0.09     0.04   0.05  -0.01
   5   1     0.01  -0.01   0.02    -0.01  -0.05  -0.00     0.02  -0.01  -0.01
   6   1    -0.01  -0.04   0.03     0.01   0.04   0.04     0.01  -0.02  -0.01
   7   1     0.00  -0.01   0.02    -0.04   0.02   0.00     0.02  -0.01  -0.01
   8   1     0.01   0.02   0.02    -0.00  -0.04   0.01     0.02   0.02  -0.01
   9   1    -0.01  -0.02   0.02     0.00  -0.04   0.03     0.00  -0.01  -0.01
  10   1    -0.02  -0.02   0.03     0.04  -0.01   0.03    -0.00  -0.01  -0.01
  11   1    -0.03  -0.00   0.02    -0.01   0.02   0.02     0.02  -0.01  -0.01
  12   1    -0.00   0.01   0.01    -0.02  -0.01  -0.02     0.02  -0.00  -0.00
  13   8     0.02  -0.11   0.08     0.00  -0.05   0.02     0.06  -0.04  -0.04
  14   7    -0.07   0.06   0.12     0.04  -0.17   0.14     0.01   0.07   0.09
  15   1    -0.02   0.03   0.05     0.01  -0.05   0.04     0.00   0.02   0.03
  16   1    -0.04   0.01   0.02     0.02  -0.05   0.04    -0.00   0.01   0.03
  17   8     0.01   0.11   0.03    -0.05   0.02  -0.21     0.03   0.11  -0.13
  18   1    -0.00   0.03   0.00    -0.01  -0.00  -0.05     0.00   0.02  -0.03
  19   1     0.00   0.01   0.00    -0.01   0.01  -0.05     0.00   0.01  -0.03
  20   8    -0.02   0.11   0.05    -0.05   0.10  -0.04     0.09  -0.03   0.02
  21   1    -0.00   0.02   0.01    -0.01   0.01  -0.01     0.02  -0.01   0.00
  22   1     0.00   0.02   0.01    -0.01   0.03  -0.01     0.02   0.00  -0.00
  23   8     0.03  -0.03  -0.06    -0.05   0.03  -0.19    -0.12  -0.05  -0.10
  24   1     0.01  -0.01  -0.00    -0.01   0.00  -0.04    -0.02  -0.01  -0.02
  25   1     0.01   0.00  -0.03    -0.01   0.00  -0.03    -0.03  -0.01  -0.02
  26   8    -0.00   0.15  -0.16    -0.04  -0.03   0.03    -0.17   0.07   0.00
  27   1     0.01   0.03  -0.04    -0.01  -0.01   0.02    -0.04   0.02   0.00
  28   1    -0.02   0.03  -0.02    -0.01  -0.01  -0.00    -0.05   0.01   0.02
  29   8    -0.13   0.05  -0.03     0.12  -0.02   0.09    -0.09   0.02  -0.06
  30   1    -0.05   0.05   0.00     0.06  -0.04   0.02    -0.04   0.02  -0.01
  31   1    -0.02  -0.02  -0.02     0.02  -0.02   0.04    -0.02   0.01  -0.03
  32   8    -0.05   0.06  -0.15     0.07   0.02  -0.06     0.06  -0.10   0.08
  33   1    -0.01   0.01  -0.03     0.01   0.01  -0.03     0.00  -0.02   0.01
  34   1    -0.02   0.02  -0.05     0.02   0.01  -0.02     0.03  -0.03   0.03
  35   8    -0.06   0.11   0.00     0.02  -0.04  -0.12    -0.01   0.03  -0.15
  36   1    -0.02   0.02  -0.00     0.01  -0.02  -0.04     0.01   0.01  -0.04
  37   1    -0.01   0.03  -0.01    -0.00  -0.00  -0.01    -0.01  -0.00  -0.03
  38   8    -0.08  -0.06  -0.00     0.04   0.26  -0.04     0.04  -0.00   0.12
  39   1    -0.02  -0.02  -0.00     0.01   0.10  -0.01     0.01  -0.00   0.04
  40   1    -0.03  -0.01  -0.01     0.02   0.05   0.01     0.02   0.00   0.03
  41   8     0.24   0.15   0.17     0.01   0.08  -0.12    -0.09  -0.04   0.30
  42   1     0.03   0.05   0.05     0.01   0.04  -0.04    -0.03  -0.00   0.08
  43   1     0.06   0.02   0.02     0.00   0.02  -0.02    -0.03   0.01   0.05
  44   8    -0.08  -0.19  -0.06    -0.18   0.00   0.13     0.06   0.02  -0.11
  45   1    -0.03  -0.05  -0.02    -0.03  -0.02   0.04     0.01   0.01  -0.03
  46   1    -0.02  -0.05  -0.00    -0.04   0.01   0.01     0.01  -0.00  -0.03
  47   8    -0.13   0.00   0.09    -0.04  -0.02  -0.05    -0.17   0.02   0.21
  48   1    -0.01   0.01   0.02    -0.01   0.01  -0.01    -0.01   0.01   0.05
  49   1    -0.04  -0.00   0.01    -0.01  -0.01  -0.02    -0.02  -0.00   0.04
  50   8    -0.03   0.01  -0.05     0.07   0.06   0.15     0.13   0.09   0.07
  51   1     0.00   0.00  -0.02     0.02   0.01   0.03     0.02   0.02   0.02
  52   1    -0.01  -0.00  -0.02     0.02   0.02   0.03     0.04   0.02   0.02
  53   8    -0.00   0.11  -0.16    -0.05   0.08   0.03    -0.05  -0.06  -0.05
  54   1    -0.01   0.02  -0.02    -0.01   0.02   0.00    -0.00  -0.01  -0.00
  55   1     0.00   0.04  -0.04    -0.01   0.02   0.01    -0.02  -0.01  -0.01
  56   8    -0.02  -0.00  -0.18     0.07   0.00  -0.04     0.14   0.07   0.02
  57   1    -0.01   0.00  -0.04     0.03   0.01  -0.01     0.04   0.02   0.00
  58   1    -0.01   0.01  -0.03     0.01  -0.00  -0.02     0.03   0.02   0.00
  59   8    -0.14  -0.16  -0.05     0.10   0.12  -0.10    -0.03  -0.34   0.12
  60   1    -0.03  -0.02  -0.01     0.02   0.03  -0.04    -0.00  -0.08   0.04
  61   1    -0.00  -0.01   0.01     0.03   0.02  -0.03    -0.00  -0.06   0.05
  62   8     0.07   0.03   0.06    -0.02   0.06  -0.02     0.05   0.10  -0.04
  63   1     0.02   0.01   0.02    -0.01   0.00  -0.00     0.01   0.02  -0.02
  64   1     0.02   0.02   0.02    -0.01   0.02  -0.01     0.01   0.02  -0.01
  65   8     0.02   0.01   0.05    -0.01   0.01  -0.26     0.08  -0.09   0.01
  66   1     0.02   0.01   0.02    -0.00  -0.00  -0.06    -0.00  -0.02  -0.02
  67   1    -0.01  -0.00   0.01    -0.00   0.01  -0.06     0.04  -0.02  -0.00
  68   8     0.08   0.06   0.12    -0.07  -0.04  -0.01     0.02   0.03  -0.10
  69   1     0.02   0.02   0.02    -0.01  -0.00  -0.01     0.00   0.01  -0.03
  70   1     0.02   0.02   0.03    -0.02  -0.00   0.02     0.01   0.00  -0.01
  71   8     0.08  -0.10   0.05    -0.05  -0.18   0.15     0.00  -0.03   0.04
  72   1     0.01  -0.02   0.02     0.00  -0.05   0.04     0.00   0.01   0.02
  73   1     0.01  -0.02   0.02    -0.01  -0.04   0.03     0.00  -0.00  -0.01
  74   8     0.07   0.08   0.16    -0.04   0.13   0.22     0.09   0.01   0.11
  75   1     0.04   0.03   0.04    -0.01   0.03   0.03     0.01  -0.00   0.05
  76   1     0.00  -0.00   0.02     0.00   0.02   0.07     0.02   0.03   0.01
  77   8    -0.09  -0.23  -0.09    -0.01  -0.21   0.23    -0.01   0.06  -0.15
  78   1    -0.03  -0.06  -0.02     0.00  -0.02   0.03    -0.00  -0.02  -0.01
  79   1    -0.02  -0.05  -0.02    -0.00  -0.05   0.06    -0.00   0.01  -0.03
  80   8     0.21  -0.09  -0.17     0.03   0.08   0.03    -0.15   0.19   0.02
  81   1     0.04  -0.03  -0.04    -0.01   0.02   0.02    -0.01   0.03  -0.01
  82   1     0.04  -0.01  -0.02     0.01   0.02   0.01    -0.03   0.04  -0.00
  83   8    -0.10  -0.07  -0.15    -0.02  -0.01  -0.06     0.05  -0.05   0.01
  84   1    -0.03  -0.01  -0.03     0.01   0.00  -0.00    -0.00  -0.01  -0.00
  85   1    -0.02  -0.02  -0.04    -0.04  -0.00   0.00     0.03  -0.01  -0.01
  86   8     0.09   0.02  -0.12     0.09  -0.04   0.10    -0.02  -0.06   0.13
  87   1     0.03   0.00  -0.01     0.01  -0.02   0.03    -0.01  -0.02   0.03
  88   1     0.02   0.01  -0.03     0.03  -0.01   0.02     0.00  -0.02   0.03
  89   8     0.15   0.02   0.17     0.03  -0.05  -0.20    -0.16   0.04  -0.32
  90   1     0.05   0.02   0.01    -0.00  -0.04  -0.02    -0.06  -0.02  -0.03
  91   1     0.00  -0.01   0.05     0.04   0.01  -0.05     0.02   0.03  -0.10
                     16                     17                     18
                        a                      a                      a 
 Frequencies --    60.5786                61.2736                64.6358
 Red. masses --    14.0658                14.2167                14.2522
 Frc consts  --     0.0000                 0.0000                 0.0000
 IR Inten    --     1.1186                 0.5762                 2.4927
 Raman Activ --     0.0000                 0.0000                 0.0000
 Depolar     --     0.0000                 0.0000                 0.0000
 Atom AN      X      Y      Z        X      Y      Z        X      Y      Z
   1   6    -0.04   0.10   0.06     0.04   0.01  -0.03    -0.06  -0.08   0.00
   2   6     0.04   0.04  -0.00    -0.10  -0.10   0.01    -0.08  -0.11   0.01
   3   6     0.16   0.01   0.08    -0.04  -0.04   0.02    -0.02  -0.02   0.03
   4   6    -0.02  -0.00   0.09     0.02   0.01  -0.10    -0.06  -0.05   0.00
   5   1    -0.03   0.04   0.03     0.03   0.01   0.00    -0.01  -0.02   0.00
   6   1     0.02   0.00  -0.03    -0.03  -0.07  -0.00    -0.02  -0.05  -0.01
   7   1     0.06   0.01   0.01     0.01  -0.02   0.01     0.01  -0.01  -0.00
   8   1    -0.02  -0.01   0.04     0.01   0.00  -0.02    -0.01  -0.01   0.01
   9   1    -0.00   0.04  -0.00     0.01   0.01  -0.02    -0.02  -0.03  -0.00
  10   1    -0.00   0.02  -0.00    -0.06  -0.02  -0.00    -0.05  -0.03   0.01
  11   1     0.07   0.00   0.02    -0.03  -0.01   0.00    -0.02  -0.00   0.01
  12   1     0.03  -0.00   0.05    -0.01   0.02   0.01    -0.00   0.01   0.01
  13   8    -0.03   0.10   0.05    -0.00  -0.08   0.03    -0.05  -0.13  -0.00
  14   7     0.06  -0.04   0.05     0.04   0.00  -0.09    -0.09  -0.04   0.02
  15   1     0.02  -0.03   0.01     0.01  -0.00  -0.02    -0.02  -0.01   0.00
  16   1     0.03   0.00   0.01     0.01   0.00  -0.02    -0.02  -0.01   0.01
  17   8     0.05   0.02  -0.10     0.07  -0.07   0.02     0.02  -0.04   0.07
  18   1     0.02  -0.00  -0.02     0.02  -0.01   0.00    -0.02  -0.01   0.01
  19   1     0.00   0.00  -0.01     0.01  -0.03   0.01     0.02  -0.01   0.00
  20   8    -0.08   0.07  -0.01     0.06  -0.13   0.04     0.01   0.08   0.15
  21   1    -0.02   0.03   0.00     0.02  -0.04   0.01    -0.00   0.00   0.03
  22   1    -0.02  -0.01   0.01     0.01  -0.01   0.00     0.02   0.01   0.03
  23   8    -0.14   0.04   0.09    -0.10  -0.13   0.09     0.21  -0.02  -0.09
  24   1    -0.03   0.01   0.03    -0.02  -0.03   0.03     0.04  -0.01  -0.01
  25   1    -0.04   0.02   0.02    -0.03  -0.02   0.00     0.06  -0.01  -0.02
  26   8    -0.15  -0.03  -0.03    -0.19   0.04  -0.10     0.20   0.06  -0.02
  27   1    -0.03  -0.02  -0.00    -0.04   0.00  -0.02     0.06   0.01  -0.02
  28   1    -0.05  -0.02   0.00    -0.06   0.00   0.01     0.05   0.01   0.00
  29   8    -0.09  -0.02   0.04     0.19   0.05   0.09     0.00   0.00  -0.00
  30   1    -0.06   0.01   0.01     0.05   0.07   0.04    -0.01   0.04   0.01
  31   1    -0.01   0.02  -0.01     0.04   0.01   0.04    -0.00   0.02   0.01
  32   8    -0.09  -0.01   0.11    -0.07   0.01   0.18     0.17   0.14  -0.08
  33   1    -0.02   0.00   0.03    -0.02  -0.01   0.04     0.04   0.02  -0.03
  34   1    -0.02  -0.01   0.04    -0.01   0.01   0.04     0.05   0.05  -0.03
  35   8     0.08  -0.04  -0.07     0.03   0.02  -0.04    -0.18  -0.06  -0.05
  36   1     0.01  -0.02  -0.03     0.00   0.01  -0.00    -0.05  -0.01  -0.01
  37   1     0.02   0.01  -0.02     0.02  -0.01  -0.03    -0.05  -0.01  -0.00
  38   8     0.04  -0.02   0.05     0.05  -0.07  -0.05    -0.08  -0.28   0.08
  39   1     0.01  -0.01   0.02     0.01  -0.02  -0.01    -0.03  -0.08   0.03
  40   1     0.02   0.00   0.01     0.01  -0.01  -0.02    -0.01  -0.05   0.00
  41   8    -0.00   0.06  -0.19     0.07   0.01  -0.07    -0.10   0.12  -0.09
  42   1    -0.01   0.03  -0.05     0.02  -0.01  -0.01    -0.02   0.03  -0.03
  43   1     0.00  -0.01  -0.04     0.01   0.02  -0.03    -0.03   0.04  -0.02
  44   8     0.17  -0.12  -0.16    -0.22  -0.07  -0.02     0.01  -0.09  -0.06
  45   1     0.04   0.01  -0.03    -0.03  -0.01   0.02     0.01   0.01  -0.00
  46   1     0.02  -0.05  -0.02    -0.06  -0.03  -0.03    -0.02  -0.04  -0.01
  47   8    -0.20  -0.11   0.10    -0.24  -0.06   0.23     0.09  -0.03   0.08
  48   1    -0.03  -0.02   0.02    -0.00   0.00   0.05     0.01  -0.00   0.02
  49   1    -0.03  -0.03   0.01    -0.06  -0.02   0.03     0.01  -0.01   0.02
  50   8     0.04   0.04  -0.02     0.09  -0.03  -0.07     0.09  -0.03  -0.10
  51   1    -0.00   0.01   0.00     0.01  -0.01  -0.01     0.02   0.01  -0.01
  52   1     0.02   0.01  -0.01     0.02  -0.01  -0.01     0.01  -0.00  -0.02
  53   8     0.07   0.11  -0.08     0.08  -0.13  -0.17    -0.23   0.01   0.05
  54   1     0.01   0.02  -0.02     0.01  -0.04  -0.02    -0.04   0.01   0.02
  55   1    -0.00   0.02  -0.02     0.00  -0.02  -0.04    -0.03   0.02   0.01
  56   8     0.08   0.02  -0.03     0.05   0.01   0.07    -0.07   0.12   0.08
  57   1     0.01   0.02  -0.00     0.00   0.01   0.02    -0.01   0.02   0.01
  58   1     0.02   0.00  -0.01     0.02  -0.01   0.02    -0.01   0.02   0.02
  59   8     0.13   0.18  -0.16     0.14   0.20   0.08     0.17   0.08  -0.09
  60   1     0.03   0.03  -0.03     0.03   0.04   0.01     0.04  -0.01  -0.01
  61   1     0.02   0.03  -0.05     0.03   0.04   0.01     0.02   0.02  -0.02
  62   8    -0.06  -0.19   0.10    -0.00   0.18  -0.08     0.19   0.05   0.06
  63   1    -0.02  -0.05   0.03    -0.01   0.04  -0.02     0.04   0.00   0.01
  64   1    -0.01  -0.04   0.03     0.00   0.06  -0.02     0.05   0.02   0.02
  65   8     0.11  -0.02  -0.00     0.03   0.06   0.09     0.03  -0.25   0.03
  66   1     0.02  -0.01  -0.00     0.01   0.02   0.02     0.01  -0.06   0.00
  67   1     0.02  -0.00   0.00     0.00   0.01   0.02     0.01  -0.07   0.01
  68   8    -0.03  -0.14   0.12    -0.05   0.08  -0.08     0.10  -0.11  -0.01
  69   1     0.00  -0.03   0.01    -0.01   0.02  -0.01     0.01  -0.02  -0.02
  70   1    -0.02  -0.01   0.04    -0.01   0.01  -0.02     0.02  -0.02  -0.01
  71   8     0.02   0.08   0.11     0.04   0.11  -0.02    -0.13   0.06   0.07
  72   1     0.00   0.02   0.03     0.01   0.02  -0.01    -0.04   0.01   0.01
  73   1     0.01   0.01   0.03     0.01   0.03  -0.00    -0.02  -0.00   0.02
  74   8    -0.14   0.06   0.14    -0.01  -0.03  -0.14    -0.09   0.11  -0.02
  75   1    -0.02   0.02   0.01     0.01  -0.00  -0.03    -0.03   0.03  -0.00
  76   1    -0.03  -0.01   0.05     0.00  -0.01  -0.03    -0.03   0.03  -0.01
  77   8     0.06   0.26  -0.15     0.06  -0.03   0.31    -0.01   0.20   0.06
  78   1     0.01   0.07  -0.04     0.02   0.00   0.06     0.01   0.05   0.00
  79   1     0.02   0.04  -0.01     0.01   0.01   0.06    -0.01   0.03   0.02
  80   8     0.04  -0.29  -0.13     0.04   0.15  -0.13    -0.09   0.12   0.01
  81   1     0.01  -0.07  -0.04    -0.01   0.03  -0.02    -0.02   0.01  -0.00
  82   1     0.00  -0.06  -0.02     0.01   0.04  -0.02     0.00   0.02   0.01
  83   8     0.02  -0.15   0.00    -0.07  -0.10  -0.21    -0.04  -0.04  -0.05
  84   1    -0.01  -0.03   0.00     0.00  -0.03  -0.05    -0.01  -0.02  -0.02
  85   1     0.02  -0.05  -0.01    -0.03  -0.03  -0.04     0.00  -0.02  -0.02
  86   8    -0.07   0.04   0.06    -0.03   0.02   0.04    -0.00   0.18   0.01
  87   1    -0.01   0.01   0.02     0.00   0.01   0.00    -0.01   0.04   0.01
  88   1    -0.02   0.01   0.02    -0.02   0.01   0.02     0.01   0.04  -0.00
  89   8     0.01  -0.03  -0.09     0.02   0.06   0.09     0.05  -0.00  -0.15
  90   1    -0.01  -0.00  -0.01     0.01   0.02   0.01    -0.01  -0.00  -0.01
  91   1     0.00  -0.01  -0.03    -0.01   0.01   0.02     0.04   0.00  -0.06
                     19                     20                     21
                        a                      a                      a 
 Frequencies --    68.2648                69.4434                71.9796
 Red. masses --    14.2480                14.1815                14.2423
 Frc consts  --     0.0000                 0.0000                 0.0000
 IR Inten    --     2.1408                 0.8959                 2.1150
 Raman Activ --     0.0000                 0.0000                 0.0000
 Depolar     --     0.0000                 0.0000                 0.0000
 Atom AN      X      Y      Z        X      Y      Z        X      Y      Z
   1   6    -0.05  -0.06   0.05     0.01  -0.05  -0.05    -0.03   0.07  -0.06
   2   6    -0.00  -0.03   0.04    -0.03  -0.11  -0.05    -0.04  -0.01  -0.08
   3   6     0.05  -0.01   0.07     0.01  -0.05  -0.04    -0.06  -0.05  -0.09
   4   6    -0.04  -0.08   0.08     0.01  -0.08  -0.06    -0.01  -0.04  -0.07
   5   1    -0.02  -0.02   0.01     0.00  -0.01  -0.00    -0.02   0.04   0.00
   6   1     0.00  -0.01   0.00    -0.01  -0.05  -0.02    -0.01  -0.00  -0.02
   7   1     0.02  -0.00   0.01     0.02  -0.01  -0.02    -0.02  -0.02  -0.01
   8   1    -0.01  -0.03   0.03    -0.00  -0.03  -0.02    -0.02  -0.03  -0.01
   9   1    -0.01  -0.02   0.01     0.00  -0.01  -0.03     0.00   0.04  -0.04
  10   1    -0.01  -0.01   0.02    -0.03  -0.02  -0.01    -0.01   0.00  -0.04
  11   1     0.02  -0.00   0.02    -0.00  -0.01  -0.00    -0.03  -0.02  -0.03
  12   1     0.01  -0.01   0.03     0.00  -0.00  -0.00    -0.02  -0.01  -0.03
  13   8    -0.05  -0.04   0.04     0.01  -0.11  -0.04    -0.03   0.03  -0.05
  14   7    -0.04  -0.09   0.06     0.05  -0.10  -0.05     0.11  -0.09  -0.06
  15   1    -0.01  -0.02   0.01     0.01  -0.04  -0.02     0.03  -0.05  -0.01
  16   1    -0.01  -0.02   0.01     0.02  -0.03   0.00     0.05  -0.01  -0.02
  17   8     0.10  -0.02   0.11    -0.17   0.06   0.02     0.03   0.15   0.07
  18   1     0.02  -0.02   0.03    -0.04   0.04   0.00     0.01   0.03   0.02
  19   1     0.02  -0.01   0.03    -0.04   0.01  -0.00    -0.00   0.02   0.02
  20   8    -0.06   0.08   0.01     0.02  -0.04   0.06     0.05  -0.09   0.02
  21   1    -0.02   0.02  -0.00     0.01  -0.01   0.02     0.00  -0.01   0.00
  22   1    -0.00   0.02  -0.00    -0.01  -0.01   0.02     0.01  -0.01   0.00
  23   8     0.05  -0.05   0.12     0.06  -0.01  -0.22     0.01   0.00   0.03
  24   1     0.01  -0.01   0.03     0.02  -0.01  -0.04     0.00   0.01  -0.00
  25   1     0.01  -0.01   0.01     0.01   0.00  -0.06     0.00   0.00   0.01
  26   8     0.02   0.03  -0.07     0.05   0.16  -0.01     0.02   0.00  -0.00
  27   1     0.01  -0.00  -0.02     0.02   0.03   0.01     0.00   0.01  -0.00
  28   1    -0.01  -0.00  -0.01     0.00   0.03   0.02     0.01   0.00   0.00
  29   8    -0.01  -0.01   0.08     0.01   0.01  -0.04     0.04   0.02  -0.01
  30   1    -0.03   0.02   0.02    -0.00   0.04  -0.00     0.02   0.02   0.00
  31   1     0.01   0.00  -0.00    -0.00   0.02  -0.00     0.01  -0.01   0.00
  32   8    -0.10   0.05  -0.05     0.10   0.04  -0.17    -0.10  -0.03  -0.15
  33   1    -0.01   0.00   0.00     0.02   0.00  -0.05    -0.02  -0.01  -0.02
  34   1    -0.03   0.02  -0.02     0.03   0.02  -0.06    -0.02  -0.02  -0.02
  35   8    -0.02  -0.17   0.08     0.04   0.25   0.13     0.01   0.02   0.09
  36   1    -0.03  -0.04   0.02     0.03   0.06   0.03     0.01   0.00   0.02
  37   1     0.00  -0.02   0.01     0.01   0.03   0.02     0.01  -0.00   0.01
  38   8     0.01   0.26   0.00     0.06   0.12  -0.11     0.15   0.05   0.45
  39   1     0.02   0.08  -0.03     0.02   0.06  -0.03     0.05   0.00   0.10
  40   1    -0.02   0.06   0.00     0.02   0.01  -0.01     0.02   0.03   0.09
  41   8    -0.14  -0.24  -0.02    -0.07  -0.23  -0.07     0.12  -0.07  -0.15
  42   1    -0.02  -0.07  -0.01    -0.01  -0.06  -0.02     0.04  -0.02  -0.04
  43   1    -0.04  -0.02  -0.01    -0.02  -0.05  -0.00     0.03  -0.01  -0.03
  44   8     0.03   0.09  -0.14     0.15  -0.21  -0.04    -0.03  -0.07   0.02
  45   1     0.02   0.02  -0.02     0.03  -0.02  -0.01    -0.01  -0.02   0.01
  46   1    -0.01   0.01  -0.07     0.02  -0.06   0.02    -0.00  -0.01   0.01
  47   8    -0.10  -0.08   0.04    -0.09   0.04   0.16     0.04   0.03   0.00
  48   1    -0.03  -0.02   0.01    -0.00   0.01   0.04     0.01   0.00   0.00
  49   1    -0.02  -0.02   0.01    -0.02   0.01   0.03     0.00   0.01   0.00
  50   8    -0.27   0.19   0.02     0.05  -0.11   0.10    -0.16   0.29   0.17
  51   1    -0.06   0.04  -0.01     0.02  -0.01   0.03    -0.03   0.07   0.04
  52   1    -0.06   0.04   0.00    -0.01  -0.02   0.02    -0.04   0.07   0.03
  53   8     0.03   0.08  -0.07     0.13  -0.00  -0.04     0.06  -0.07  -0.01
  54   1     0.00   0.02  -0.01     0.02  -0.01   0.00     0.01  -0.02   0.00
  55   1     0.01   0.03  -0.02     0.04   0.02  -0.01     0.02  -0.01  -0.00
  56   8    -0.06   0.06  -0.08    -0.13  -0.02   0.01    -0.18   0.31  -0.04
  57   1    -0.02   0.01  -0.02    -0.01  -0.01  -0.01    -0.03   0.05  -0.02
  58   1    -0.00   0.01  -0.01    -0.04  -0.00  -0.01    -0.03   0.06  -0.01
  59   8     0.07  -0.07   0.09     0.01   0.02   0.08     0.08  -0.05  -0.11
  60   1     0.02  -0.00   0.02    -0.00   0.01   0.01     0.02  -0.03  -0.03
  61   1     0.01  -0.04   0.01    -0.00  -0.02   0.00     0.02  -0.01  -0.03
  62   8     0.12   0.08  -0.10    -0.23   0.01   0.18     0.01   0.03  -0.02
  63   1     0.03   0.01  -0.03    -0.04   0.03   0.04     0.00   0.00   0.01
  64   1     0.04   0.02  -0.02    -0.06  -0.01   0.05    -0.00   0.02  -0.01
  65   8     0.07   0.04  -0.17    -0.07   0.03  -0.13     0.03  -0.17   0.15
  66   1     0.03   0.00  -0.03    -0.01   0.01  -0.03    -0.00  -0.06   0.03
  67   1     0.00   0.02  -0.03    -0.02   0.01  -0.03     0.03  -0.01   0.06
  68   8     0.06  -0.06  -0.12    -0.07   0.27   0.12    -0.04  -0.01   0.09
  69   1     0.01  -0.03  -0.01    -0.02   0.06   0.04    -0.02  -0.00   0.02
  70   1     0.03  -0.04  -0.02    -0.01   0.05   0.03    -0.01  -0.01   0.02
  71   8     0.04  -0.01   0.08    -0.12   0.05   0.02    -0.01  -0.05  -0.02
  72   1    -0.00  -0.01   0.01    -0.02   0.00   0.00     0.01  -0.02  -0.00
  73   1     0.02  -0.01   0.03    -0.03   0.01   0.00    -0.00  -0.01  -0.01
  74   8     0.17  -0.13  -0.01     0.13  -0.10  -0.01    -0.03  -0.11  -0.02
  75   1     0.00  -0.05  -0.00     0.02  -0.03  -0.02    -0.00  -0.03  -0.01
  76   1     0.05   0.00   0.00     0.03  -0.03  -0.01     0.02  -0.01   0.03
  77   8     0.09   0.11  -0.06     0.00   0.18   0.00    -0.00  -0.11   0.05
  78   1     0.02   0.02  -0.00     0.00   0.04   0.01     0.01  -0.02   0.00
  79   1     0.03   0.02  -0.00    -0.00   0.03   0.01    -0.01  -0.03   0.01
  80   8    -0.18   0.20  -0.03    -0.06  -0.10   0.05     0.14  -0.04  -0.06
  81   1    -0.03   0.05  -0.02     0.00  -0.04   0.00     0.02  -0.01  -0.01
  82   1    -0.03   0.04  -0.02    -0.03  -0.01   0.03     0.03  -0.01  -0.01
  83   8     0.00  -0.09   0.03     0.04  -0.02  -0.02    -0.05   0.04  -0.03
  84   1    -0.00  -0.02   0.01     0.00  -0.01  -0.01    -0.01   0.01  -0.01
  85   1    -0.00  -0.02   0.01     0.04  -0.02  -0.02    -0.00   0.01  -0.01
  86   8    -0.02   0.09  -0.16     0.04   0.09   0.14    -0.03  -0.01  -0.04
  87   1     0.00   0.03  -0.02    -0.00   0.01   0.02    -0.02  -0.01  -0.02
  88   1    -0.01   0.03  -0.04     0.02   0.02   0.01    -0.00  -0.01  -0.02
  89   8     0.26  -0.14   0.10     0.04  -0.04   0.01    -0.13   0.03  -0.14
  90   1     0.07   0.01  -0.02     0.00  -0.03   0.03    -0.03  -0.00  -0.02
  91   1    -0.01  -0.06   0.06     0.04   0.01   0.00    -0.01   0.01  -0.04
                     22                     23                     24
                        a                      a                      a 
 Frequencies --    74.0029                75.5185                76.7027
 Red. masses --    13.0122                13.8680                14.2851
 Frc consts  --     0.0000                 0.0000                 0.0000
 IR Inten    --     3.8746                 1.3505                 1.2593
 Raman Activ --     0.0000                 0.0000                 0.0000
 Depolar     --     0.0000                 0.0000                 0.0000
 Atom AN      X      Y      Z        X      Y      Z        X      Y      Z
   1   6     0.17  -0.18  -0.01     0.03  -0.04  -0.02    -0.03  -0.06  -0.03
   2   6    -0.04  -0.08   0.12    -0.07   0.03   0.05     0.05   0.08  -0.04
   3   6    -0.27  -0.03  -0.04    -0.20   0.07  -0.04     0.03   0.07  -0.06
   4   6     0.11  -0.03  -0.11     0.02  -0.01  -0.06    -0.03  -0.00   0.01
   5   1     0.08  -0.07  -0.03     0.02  -0.02  -0.01    -0.01  -0.03  -0.03
   6   1    -0.02  -0.01   0.09    -0.03   0.02   0.04     0.02   0.05  -0.01
   7   1    -0.10  -0.01   0.01    -0.06   0.02   0.00    -0.01   0.04  -0.03
   8   1     0.05   0.01  -0.07     0.01   0.00  -0.03     0.00   0.01  -0.00
   9   1     0.04  -0.08   0.03     0.01  -0.02   0.01    -0.02  -0.03   0.01
  10   1     0.02  -0.03   0.04    -0.00   0.00   0.02     0.03   0.01  -0.00
  11   1    -0.13  -0.01  -0.01    -0.09   0.02  -0.01     0.03   0.03  -0.00
  12   1    -0.06   0.01  -0.07    -0.04   0.03  -0.05     0.00  -0.01  -0.02
  13   8     0.12  -0.18   0.05     0.00  -0.01   0.00    -0.02   0.03  -0.09
  14   7     0.01   0.02  -0.03     0.02  -0.00   0.01    -0.11   0.03   0.00
  15   1     0.00   0.02  -0.02     0.00   0.00   0.01    -0.03   0.02   0.01
  16   1    -0.01  -0.02   0.01    -0.00  -0.01   0.00    -0.04   0.00  -0.01
  17   8     0.09   0.01   0.12    -0.06  -0.15   0.01    -0.19   0.26   0.06
  18   1     0.02  -0.00   0.03    -0.02  -0.03   0.00    -0.04   0.04   0.03
  19   1     0.01  -0.02   0.03     0.00  -0.01  -0.00    -0.05   0.07   0.02
  20   8    -0.05   0.16  -0.27    -0.03   0.04  -0.02     0.07   0.01  -0.03
  21   1     0.01   0.01  -0.05    -0.00  -0.00  -0.00    -0.01   0.01  -0.02
  22   1    -0.01   0.03  -0.06    -0.01   0.00  -0.00     0.04  -0.01  -0.01
  23   8    -0.05  -0.21   0.07     0.15   0.08  -0.05    -0.06   0.09  -0.18
  24   1    -0.01  -0.05   0.01     0.03   0.02  -0.01    -0.02   0.02  -0.05
  25   1    -0.02  -0.05   0.01     0.04   0.02  -0.01    -0.01   0.01  -0.05
  26   8    -0.12  -0.06   0.01     0.16   0.12   0.06    -0.03   0.00  -0.08
  27   1    -0.03  -0.02   0.03     0.05   0.02   0.01    -0.00  -0.01   0.00
  28   1    -0.03  -0.01  -0.02     0.02   0.02   0.02    -0.02  -0.01  -0.01
  29   8     0.02  -0.07   0.06     0.10  -0.06   0.19     0.05   0.00   0.06
  30   1    -0.00  -0.04   0.01    -0.04   0.11   0.08     0.01   0.00   0.02
  31   1     0.00   0.00   0.01     0.04  -0.03   0.01     0.02  -0.00   0.01
  32   8    -0.21   0.13  -0.01     0.15   0.04   0.01     0.09  -0.09  -0.04
  33   1    -0.04   0.00   0.01     0.03   0.02  -0.00     0.01  -0.01  -0.02
  34   1    -0.06   0.06  -0.03     0.02   0.02  -0.01     0.03  -0.03   0.00
  35   8     0.03  -0.03   0.12    -0.03  -0.01   0.00     0.07  -0.10   0.33
  36   1    -0.01  -0.01   0.03    -0.01   0.00   0.01    -0.00  -0.04   0.06
  37   1     0.01   0.01   0.02    -0.01   0.00   0.01     0.03  -0.01   0.05
  38   8     0.02  -0.04   0.04     0.03   0.08   0.02    -0.18  -0.07  -0.05
  39   1    -0.00  -0.01   0.02     0.01   0.01  -0.00    -0.06  -0.02   0.01
  40   1     0.02  -0.01   0.01    -0.01   0.02   0.01    -0.03  -0.02  -0.01
  41   8    -0.05   0.07   0.05    -0.00   0.03   0.08    -0.05  -0.02  -0.01
  42   1    -0.01   0.02   0.01    -0.03   0.01   0.03    -0.01  -0.01   0.00
  43   1    -0.01   0.01   0.02    -0.00  -0.01  -0.01    -0.02   0.01  -0.01
  44   8     0.18  -0.06   0.01     0.08  -0.06  -0.23    -0.09   0.15  -0.05
  45   1     0.04  -0.00  -0.00     0.04  -0.01  -0.04    -0.01   0.02  -0.00
  46   1     0.03  -0.02   0.00     0.02  -0.02  -0.07    -0.02   0.04  -0.04
  47   8    -0.11   0.02  -0.20    -0.09  -0.04   0.06    -0.09  -0.06   0.06
  48   1    -0.01   0.01  -0.05    -0.01  -0.01   0.01    -0.02  -0.01   0.01
  49   1    -0.04   0.00  -0.05    -0.04  -0.01   0.01    -0.01  -0.02   0.01
  50   8     0.18  -0.01   0.04    -0.18   0.01   0.05     0.05  -0.08   0.01
  51   1     0.04   0.01   0.01    -0.03  -0.01  -0.00     0.02  -0.02   0.00
  52   1     0.04   0.00   0.00    -0.04   0.00   0.01     0.01  -0.02   0.01
  53   8     0.06   0.18  -0.00    -0.07   0.03   0.10     0.27   0.07  -0.12
  54   1     0.01   0.05  -0.02    -0.02   0.01   0.02     0.05   0.01  -0.03
  55   1     0.01   0.02   0.00     0.00   0.02   0.02     0.06   0.01  -0.03
  56   8    -0.09   0.14  -0.08     0.04  -0.19   0.10    -0.04   0.01   0.07
  57   1    -0.03   0.03  -0.01     0.02  -0.04   0.02     0.00  -0.01   0.01
  58   1    -0.00   0.02  -0.01     0.00  -0.04   0.02    -0.03   0.02   0.02
  59   8     0.03   0.02   0.03     0.07   0.07   0.11     0.01   0.08   0.06
  60   1     0.01  -0.01   0.01     0.02   0.02   0.03    -0.00   0.01   0.01
  61   1    -0.00   0.01   0.01     0.01   0.01   0.03    -0.00   0.01   0.01
  62   8    -0.02  -0.09  -0.16    -0.05  -0.05  -0.01     0.30  -0.06  -0.15
  63   1    -0.00  -0.01  -0.03    -0.01  -0.01  -0.01     0.07  -0.02   0.00
  64   1    -0.02  -0.04  -0.05    -0.01  -0.00   0.00     0.05   0.01  -0.05
  65   8    -0.02  -0.05   0.03     0.04   0.14   0.10    -0.07   0.00   0.01
  66   1    -0.00  -0.00   0.01    -0.01   0.03   0.01    -0.02   0.01   0.00
  67   1     0.00  -0.01   0.01     0.02   0.03   0.02    -0.02  -0.01  -0.00
  68   8     0.04   0.04   0.02    -0.01   0.01  -0.05     0.15  -0.15   0.31
  69   1     0.02   0.00   0.02    -0.00   0.00  -0.01     0.03  -0.04   0.07
  70   1     0.01   0.01  -0.00    -0.00   0.00  -0.01     0.03  -0.03   0.05
  71   8    -0.03   0.00  -0.02     0.19  -0.09  -0.01     0.00  -0.06  -0.04
  72   1    -0.02   0.00  -0.01     0.04  -0.02  -0.00    -0.01  -0.01  -0.01
  73   1    -0.01  -0.00  -0.00     0.04  -0.01   0.01    -0.00  -0.01  -0.00
  74   8    -0.01   0.07  -0.05     0.00   0.04  -0.01    -0.11  -0.05   0.00
  75   1    -0.00   0.02  -0.00     0.00   0.01   0.01    -0.03  -0.01  -0.00
  76   1    -0.00   0.03  -0.02     0.01   0.02   0.01    -0.04  -0.02  -0.01
  77   8     0.05   0.11  -0.05     0.24  -0.03  -0.06     0.06   0.01   0.04
  78   1     0.02   0.02  -0.01     0.05  -0.01  -0.00     0.01   0.00   0.01
  79   1     0.01   0.02  -0.01     0.06  -0.01  -0.01     0.02   0.01   0.01
  80   8    -0.03  -0.01   0.10    -0.03  -0.12  -0.22    -0.06   0.06  -0.08
  81   1     0.01  -0.00   0.01    -0.00  -0.03  -0.06    -0.02   0.02  -0.01
  82   1    -0.00  -0.01   0.01    -0.02  -0.02  -0.05     0.01  -0.00  -0.04
  83   8    -0.05   0.05   0.08    -0.25   0.01   0.07     0.03  -0.06   0.00
  84   1     0.01   0.01   0.03    -0.04  -0.01   0.01     0.00  -0.01   0.00
  85   1    -0.01  -0.01   0.03    -0.04  -0.01   0.01    -0.01   0.00   0.01
  86   8     0.05   0.01   0.14     0.03  -0.10  -0.14     0.03  -0.09   0.03
  87   1     0.01   0.01   0.02     0.01  -0.03  -0.02     0.00  -0.02   0.00
  88   1     0.01   0.01   0.03     0.01  -0.03  -0.02     0.01  -0.02   0.00
  89   8     0.03   0.08  -0.03    -0.28   0.12  -0.14    -0.10   0.02  -0.02
  90   1     0.00   0.00   0.01    -0.07   0.01  -0.02    -0.02  -0.01   0.01
  91   1     0.04   0.03  -0.02    -0.04   0.04  -0.05    -0.00   0.02  -0.01
                     25                     26                     27
                        a                      a                      a 
 Frequencies --    78.5041                81.9358                83.4870
 Red. masses --    14.1073                14.2928                13.2117
 Frc consts  --     0.0000                 0.0000                 0.0000
 IR Inten    --     0.9208                 0.6259                 0.9496
 Raman Activ --     0.0000                 0.0000                 0.0000
 Depolar     --     0.0000                 0.0000                 0.0000
 Atom AN      X      Y      Z        X      Y      Z        X      Y      Z
   1   6    -0.08   0.10   0.05     0.02  -0.07  -0.03    -0.06   0.02  -0.01
   2   6    -0.05   0.05   0.01    -0.07  -0.01   0.03    -0.13  -0.11  -0.00
   3   6    -0.13  -0.05  -0.01    -0.14   0.03  -0.03     0.19   0.10   0.15
   4   6    -0.07   0.04   0.04     0.00  -0.06  -0.07    -0.06   0.02  -0.02
   5   1    -0.03   0.04   0.02     0.01  -0.03  -0.02    -0.01   0.02   0.02
   6   1    -0.02   0.03   0.01    -0.02   0.00   0.02    -0.03  -0.11  -0.05
   7   1    -0.05  -0.02   0.02    -0.04   0.01  -0.00     0.13   0.01   0.00
   8   1    -0.03   0.00   0.01    -0.00  -0.02  -0.03    -0.01   0.00   0.02
   9   1    -0.01   0.04   0.00     0.01  -0.03   0.00    -0.02   0.02  -0.02
  10   1     0.01   0.01  -0.01    -0.01  -0.01   0.01    -0.13  -0.01   0.01
  11   1    -0.04  -0.03  -0.02    -0.06   0.01  -0.01     0.05   0.04   0.06
  12   1    -0.03  -0.02  -0.02    -0.03   0.02  -0.03     0.05   0.07   0.10
  13   8    -0.09   0.10   0.06    -0.03  -0.05  -0.01    -0.07  -0.09   0.02
  14   7    -0.03   0.02  -0.00     0.02  -0.07  -0.01    -0.04   0.02   0.02
  15   1    -0.01  -0.00  -0.01     0.00  -0.02   0.00    -0.01   0.00   0.02
  16   1     0.00   0.01  -0.00     0.00  -0.02   0.01    -0.02   0.01  -0.01
  17   8     0.06   0.03  -0.05    -0.14  -0.01  -0.12    -0.04  -0.03   0.06
  18   1     0.02   0.01  -0.01    -0.03   0.01  -0.03    -0.01  -0.00   0.02
  19   1     0.01   0.00  -0.01    -0.03   0.00  -0.03    -0.01  -0.01   0.02
  20   8     0.05   0.03   0.20     0.07   0.06   0.07    -0.07  -0.04   0.03
  21   1     0.01   0.03   0.05     0.02   0.02   0.02    -0.02  -0.02   0.00
  22   1     0.01   0.00   0.05     0.02   0.01   0.02    -0.01  -0.00  -0.00
  23   8    -0.04   0.06   0.12    -0.17  -0.02  -0.13    -0.01  -0.05   0.01
  24   1    -0.01   0.01   0.03    -0.05  -0.01  -0.02    -0.01  -0.02   0.01
  25   1    -0.01   0.01   0.03    -0.04  -0.02  -0.03    -0.00  -0.01  -0.01
  26   8     0.03  -0.27  -0.16    -0.14  -0.27  -0.10    -0.01  -0.00  -0.01
  27   1    -0.00  -0.05  -0.05    -0.06  -0.05   0.01    -0.01   0.01   0.01
  28   1     0.03  -0.06  -0.04    -0.00  -0.05  -0.04     0.01   0.01  -0.02
  29   8     0.10   0.02   0.04     0.01  -0.00  -0.05    -0.04  -0.01  -0.03
  30   1     0.00   0.07   0.03    -0.01   0.05   0.00    -0.02   0.04   0.00
  31   1     0.03   0.00  -0.00     0.00  -0.00  -0.01    -0.01  -0.02  -0.01
  32   8    -0.21  -0.02  -0.12     0.10   0.13   0.33    -0.09   0.17  -0.00
  33   1    -0.04   0.00  -0.00     0.01   0.03   0.05    -0.01   0.02   0.01
  34   1    -0.08  -0.01  -0.04     0.05   0.04   0.08    -0.03   0.06  -0.03
  35   8    -0.04   0.07  -0.13     0.07   0.12  -0.03     0.01  -0.04   0.11
  36   1    -0.01   0.02  -0.04     0.02   0.03  -0.01    -0.00  -0.02   0.02
  37   1    -0.01   0.01  -0.04     0.02   0.02  -0.01     0.01  -0.01   0.02
  38   8    -0.05   0.08  -0.06     0.01  -0.01   0.03    -0.04   0.05  -0.04
  39   1    -0.02   0.05  -0.01     0.01  -0.02   0.00    -0.01   0.01  -0.01
  40   1     0.01   0.00   0.00    -0.01   0.01  -0.01    -0.01  -0.00   0.00
  41   8    -0.02  -0.05   0.05    -0.02  -0.05   0.00    -0.03  -0.07  -0.13
  42   1    -0.00  -0.02   0.02     0.01  -0.01  -0.01     0.02  -0.02  -0.04
  43   1    -0.01   0.00   0.00    -0.00   0.00   0.01    -0.01   0.00  -0.01
  44   8     0.11  -0.10  -0.14     0.13  -0.16  -0.00     0.03  -0.15   0.05
  45   1     0.03  -0.01  -0.02     0.02  -0.02  -0.01     0.00  -0.03   0.01
  46   1     0.02  -0.03  -0.04     0.03  -0.04   0.01    -0.01  -0.05   0.01
  47   8     0.31  -0.12  -0.01     0.25   0.00  -0.11     0.08   0.11  -0.17
  48   1     0.06  -0.03  -0.00     0.05   0.00  -0.03    -0.01   0.01  -0.04
  49   1     0.04  -0.03  -0.01     0.03   0.00  -0.02     0.00   0.03  -0.03
  50   8     0.18  -0.08   0.14    -0.19   0.13  -0.14     0.01  -0.11   0.13
  51   1     0.05  -0.02   0.03    -0.05   0.02  -0.04     0.02  -0.01   0.03
  52   1     0.04  -0.02   0.02    -0.03   0.03  -0.02    -0.01  -0.03   0.02
  53   8    -0.05  -0.01  -0.11     0.11   0.06  -0.13     0.06  -0.01  -0.00
  54   1    -0.01  -0.00  -0.02     0.02   0.01  -0.03     0.00  -0.01   0.00
  55   1    -0.02  -0.01  -0.03     0.01  -0.00  -0.03     0.01   0.00  -0.00
  56   8    -0.04   0.03  -0.21     0.09  -0.03   0.27    -0.00  -0.17  -0.08
  57   1    -0.02   0.01  -0.05     0.02   0.01   0.07    -0.01  -0.02  -0.01
  58   1    -0.00   0.01  -0.05     0.01  -0.01   0.05    -0.01  -0.03  -0.02
  59   8     0.01   0.08   0.13     0.01  -0.08  -0.01    -0.03  -0.07  -0.14
  60   1    -0.00   0.02   0.02     0.00  -0.02   0.00     0.01   0.01  -0.02
  61   1     0.00   0.01   0.03    -0.00  -0.02  -0.00    -0.01  -0.02  -0.04
  62   8     0.10   0.12   0.19     0.06   0.07   0.12     0.10   0.03  -0.07
  63   1     0.02   0.02   0.03     0.01   0.02   0.04     0.02   0.00  -0.01
  64   1     0.04   0.04   0.05     0.01   0.02   0.03     0.02   0.01  -0.02
  65   8    -0.13   0.05  -0.03     0.04  -0.03   0.00     0.28   0.22   0.05
  66   1    -0.03   0.02  -0.01     0.01  -0.01   0.00     0.04   0.04  -0.01
  67   1    -0.03   0.01  -0.01     0.01  -0.00   0.00     0.05   0.03  -0.00
  68   8     0.03  -0.04   0.05     0.03   0.03   0.17     0.04  -0.04   0.07
  69   1    -0.01   0.00  -0.00     0.00   0.02   0.03     0.00  -0.01   0.02
  70   1     0.01  -0.01   0.01     0.00   0.01   0.04     0.01  -0.02   0.01
  71   8    -0.01  -0.11  -0.05     0.02   0.01   0.02     0.24   0.16   0.11
  72   1    -0.01  -0.02  -0.01     0.00  -0.01   0.00     0.05   0.05   0.04
  73   1    -0.01  -0.03  -0.00     0.01  -0.00   0.01     0.06   0.05   0.02
  74   8     0.00  -0.05  -0.01    -0.01   0.01   0.10    -0.00  -0.07  -0.07
  75   1    -0.00  -0.01  -0.00    -0.00  -0.00   0.01    -0.01  -0.02  -0.02
  76   1    -0.00  -0.01  -0.01    -0.00  -0.01   0.03     0.01  -0.01  -0.01
  77   8     0.14   0.07  -0.04     0.01   0.01  -0.05    -0.06  -0.16  -0.05
  78   1     0.03   0.01  -0.00     0.00  -0.00  -0.01    -0.02  -0.03  -0.02
  79   1     0.03   0.01  -0.01     0.00  -0.00  -0.01    -0.00  -0.03  -0.01
  80   8    -0.05   0.10  -0.04    -0.01   0.08   0.10    -0.01   0.13   0.13
  81   1     0.00   0.00  -0.02     0.01  -0.00   0.01     0.00   0.02   0.03
  82   1    -0.01   0.03   0.00     0.01   0.02   0.03     0.01   0.02   0.02
  83   8    -0.09  -0.00  -0.07    -0.11   0.09  -0.03    -0.12   0.07  -0.05
  84   1    -0.01  -0.01  -0.02    -0.02   0.02  -0.01    -0.01   0.01  -0.01
  85   1    -0.01  -0.01  -0.02    -0.01   0.00  -0.01    -0.01  -0.01  -0.02
  86   8     0.08  -0.17   0.19    -0.07   0.09  -0.23     0.01   0.05   0.16
  87   1     0.02  -0.04   0.03    -0.01   0.03  -0.04     0.02   0.02   0.04
  88   1     0.02  -0.04   0.03    -0.02   0.02  -0.02    -0.01   0.02   0.04
  89   8    -0.08   0.05   0.02     0.08  -0.01   0.02    -0.17   0.05  -0.23
  90   1    -0.02  -0.02   0.03     0.03   0.03  -0.03    -0.07  -0.02   0.01
  91   1     0.02   0.03   0.00    -0.03  -0.03   0.02     0.03   0.04  -0.08
                     28                     29                     30
                        a                      a                      a 
 Frequencies --    85.5659                86.8104                90.2338
 Red. masses --    13.2745                14.1625                14.1072
 Frc consts  --     0.0000                 0.0000                 0.0000
 IR Inten    --     0.7689                 3.0598                 2.8051
 Raman Activ --     0.0000                 0.0000                 0.0000
 Depolar     --     0.0000                 0.0000                 0.0000
 Atom AN      X      Y      Z        X      Y      Z        X      Y      Z
   1   6     0.01  -0.10   0.13     0.01   0.04  -0.04    -0.03   0.14   0.10
   2   6    -0.05  -0.10   0.19    -0.08  -0.14  -0.05    -0.03   0.01   0.05
   3   6     0.13   0.03   0.27     0.01  -0.08  -0.00    -0.10  -0.03   0.01
   4   6    -0.02  -0.02   0.05     0.01   0.05  -0.04    -0.02   0.07   0.13
   5   1     0.03  -0.03   0.03     0.01   0.03   0.01    -0.02   0.06   0.05
   6   1    -0.01  -0.07   0.02    -0.02  -0.08  -0.02    -0.01   0.01   0.03
   7   1     0.06   0.02   0.04     0.04  -0.04  -0.00    -0.04  -0.02   0.02
   8   1     0.01   0.00   0.04     0.01   0.01  -0.00    -0.01   0.01   0.05
   9   1     0.00  -0.04   0.05    -0.01   0.02  -0.03    -0.01   0.06   0.00
  10   1    -0.06  -0.02   0.07    -0.06  -0.02  -0.02     0.00   0.01   0.00
  11   1     0.06   0.02   0.10    -0.01  -0.03  -0.01    -0.05  -0.02  -0.01
  12   1     0.03   0.00   0.12     0.01   0.01   0.02    -0.02   0.00  -0.02
  13   8    -0.04  -0.13   0.20     0.03  -0.11  -0.01     0.01   0.06   0.10
  14   7    -0.15   0.02  -0.10     0.02   0.05  -0.00    -0.01   0.06  -0.03
  15   1    -0.04   0.03  -0.02     0.00   0.01   0.01    -0.00   0.02  -0.01
  16   1    -0.06   0.01  -0.05    -0.00   0.01  -0.00     0.00   0.03  -0.03
  17   8    -0.04   0.07  -0.13     0.10  -0.09  -0.04    -0.04  -0.12  -0.04
  18   1    -0.01   0.02  -0.03     0.02   0.03  -0.03    -0.00  -0.00  -0.02
  19   1    -0.01   0.01  -0.03     0.03  -0.05  -0.02     0.00  -0.02  -0.01
  20   8    -0.17   0.11   0.05    -0.02   0.01  -0.07    -0.07  -0.08  -0.11
  21   1    -0.03   0.02   0.03    -0.01  -0.02  -0.02    -0.02  -0.03  -0.03
  22   1    -0.05   0.01   0.02     0.02  -0.01  -0.02    -0.01  -0.02  -0.03
  23   8    -0.04   0.01  -0.14     0.03  -0.15   0.00     0.04   0.12   0.06
  24   1    -0.01  -0.01  -0.01     0.02  -0.04   0.00     0.01   0.02   0.03
  25   1    -0.01  -0.00  -0.04     0.00  -0.03   0.01     0.01   0.04   0.01
  26   8    -0.02  -0.13  -0.06    -0.00   0.01   0.05     0.02   0.00   0.03
  27   1    -0.01  -0.04   0.01    -0.01   0.01   0.01     0.03  -0.02  -0.01
  28   1    -0.00  -0.03  -0.02     0.01   0.01  -0.01    -0.03  -0.02   0.01
[...]
  35   8    -0.00   0.00  -0.00     0.00  -0.00   0.00    -0.01   0.18  -0.15
  36   1     0.00  -0.00   0.00    -0.00   0.00  -0.00     0.05  -0.72   0.64
  37   1     0.00   0.00   0.00     0.00  -0.00   0.00    -0.02   0.02  -0.03
  38   8    -0.00   0.00   0.00     0.00   0.00   0.00     0.00   0.00   0.00
  39   1     0.00  -0.00   0.00    -0.00  -0.00  -0.00    -0.01  -0.00  -0.00
  40   1     0.00  -0.01  -0.00     0.00  -0.00   0.00     0.00   0.00   0.00
  41   8     0.00   0.00   0.00     0.00   0.00   0.00     0.00   0.01   0.01
  42   1    -0.00  -0.00  -0.00    -0.01  -0.01  -0.01    -0.01  -0.02  -0.03
  43   1    -0.00  -0.00   0.00     0.00   0.00   0.00     0.00   0.00   0.00
  44   8     0.00   0.00  -0.00     0.13  -0.19   0.01     0.00  -0.00   0.00
  45   1    -0.00  -0.00   0.00     0.04  -0.02  -0.02     0.00  -0.00  -0.00
  46   1     0.00  -0.00   0.00    -0.57   0.78  -0.02    -0.00   0.00  -0.00
  47   8    -0.00   0.00  -0.00     0.00   0.00  -0.00     0.00  -0.00   0.00
  48   1     0.00  -0.00   0.00    -0.00  -0.00  -0.00    -0.00  -0.00  -0.00
  49   1    -0.00  -0.00   0.00    -0.00  -0.00   0.00     0.00   0.00  -0.00
  50   8    -0.00  -0.00  -0.00    -0.00   0.00  -0.00    -0.00  -0.00   0.00
  51   1     0.01  -0.01   0.01     0.00  -0.00   0.00    -0.00   0.00  -0.00
  52   1     0.01   0.02  -0.01     0.00  -0.00  -0.00     0.00   0.00  -0.00
  53   8    -0.00   0.00  -0.00    -0.00   0.00   0.00     0.00  -0.00   0.00
  54   1     0.00  -0.00  -0.00     0.00  -0.00  -0.00     0.00  -0.00  -0.00
  55   1     0.00   0.00   0.00    -0.00  -0.00  -0.00    -0.00   0.00   0.00
  56   8    -0.00  -0.00  -0.00     0.00   0.00   0.00    -0.00  -0.00   0.00
  57   1     0.00  -0.00   0.00    -0.00  -0.00  -0.00    -0.00   0.00  -0.00
  58   1     0.00   0.00  -0.00    -0.00  -0.00   0.00     0.00   0.00  -0.00
  59   8     0.00  -0.00  -0.00    -0.00   0.00  -0.00    -0.00   0.00  -0.00
  60   1    -0.01   0.00   0.00     0.00  -0.00  -0.00     0.00  -0.00  -0.00
  61   1     0.00  -0.00   0.00     0.00  -0.00   0.00    -0.00  -0.00   0.00
  62   8    -0.00   0.00  -0.00    -0.00   0.00   0.00    -0.00  -0.00   0.01
  63   1     0.00  -0.00   0.00     0.00  -0.00   0.00    -0.00   0.00   0.00
  64   1    -0.00  -0.00   0.00     0.00   0.00  -0.01     0.02   0.00  -0.04
  65   8     0.00  -0.00  -0.01    -0.00   0.00   0.00    -0.00   0.00   0.00
  66   1    -0.02   0.01   0.02     0.00  -0.00  -0.00     0.00   0.00  -0.00
  67   1     0.00  -0.01   0.01     0.00  -0.00   0.00     0.00   0.00   0.00
  68   8    -0.00  -0.00   0.00    -0.00   0.00   0.00    -0.00  -0.01  -0.00
  69   1     0.00   0.00   0.00    -0.00  -0.00  -0.00     0.00   0.03   0.01
  70   1     0.00   0.00  -0.00     0.00   0.00  -0.00    -0.00  -0.00  -0.00
  71   8     0.00   0.00  -0.00    -0.00  -0.00  -0.00    -0.00  -0.00  -0.00
  72   1    -0.00  -0.00   0.00    -0.00  -0.00   0.00    -0.00  -0.00   0.00
  73   1    -0.00  -0.00  -0.00     0.00   0.00   0.00     0.00   0.00   0.00
  74   8    -0.00   0.00   0.00    -0.00   0.00   0.00    -0.00  -0.00   0.00
  75   1     0.00  -0.00   0.00     0.00  -0.00   0.00    -0.00   0.00  -0.00
  76   1     0.00  -0.00  -0.00     0.00  -0.00  -0.00     0.00  -0.00  -0.00
  77   8     0.00  -0.00  -0.00    -0.00  -0.00   0.00    -0.00  -0.00  -0.00
  78   1    -0.00  -0.00  -0.00     0.00  -0.00  -0.00     0.00   0.00   0.00
  79   1    -0.00   0.00   0.00    -0.00   0.00   0.00    -0.00   0.00   0.00
  80   8     0.00   0.00  -0.00    -0.00   0.00  -0.01     0.00   0.00   0.00
  81   1     0.00  -0.00   0.00     0.02  -0.01   0.03    -0.00   0.00  -0.00
  82   1    -0.00  -0.00   0.00     0.00   0.00  -0.00    -0.00  -0.00   0.00
  83   8     0.00   0.00  -0.00     0.00   0.00   0.01    -0.00  -0.00   0.00
  84   1    -0.00  -0.00   0.00     0.00   0.00  -0.00     0.00   0.00  -0.00
  85   1    -0.00  -0.00  -0.00    -0.02  -0.01  -0.03    -0.00  -0.00  -0.00
  86   8    -0.00  -0.00   0.00    -0.00   0.00   0.00     0.00  -0.00  -0.00
  87   1     0.00  -0.00  -0.00     0.00  -0.00  -0.00    -0.00   0.00   0.00
  88   1     0.00   0.01   0.00    -0.00  -0.00  -0.00     0.00   0.00  -0.00
  89   8    -0.07   0.18  -0.10    -0.00   0.00  -0.00     0.00  -0.00   0.00
  90   1    -0.15  -0.07  -0.13     0.00   0.00   0.00     0.00   0.00   0.00
  91   1     0.44  -0.65   0.54     0.00  -0.00   0.00    -0.00   0.00  -0.00
                    262                    263                    264
                        a                      a                      a 
 Frequencies --  3670.1329              3671.6399              3673.3133
 Red. masses --     1.8355                 1.8379                 1.8347
 Frc consts  --     0.0000                 0.0000                 0.0000
 IR Inten    --     9.7362                 8.3521                 9.6449
 Raman Activ --     0.0000                 0.0000                 0.0000
 Depolar     --     0.0000                 0.0000                 0.0000
 Atom AN      X      Y      Z        X      Y      Z        X      Y      Z
   1   6     0.00  -0.00  -0.00     0.00  -0.00   0.00    -0.00   0.00   0.00
   2   6    -0.00  -0.00  -0.00     0.00   0.00   0.00    -0.00  -0.00   0.00
   3   6    -0.00  -0.00  -0.00     0.00   0.00   0.00    -0.00   0.00   0.00
   4   6    -0.00  -0.00  -0.00     0.00  -0.00   0.00    -0.00   0.00   0.00
   5   1    -0.00   0.00   0.00    -0.00  -0.00  -0.00    -0.00  -0.00  -0.00
   6   1     0.00   0.00   0.00    -0.00  -0.00  -0.00     0.00  -0.00  -0.00
   7   1     0.00   0.00   0.00    -0.00  -0.00  -0.00    -0.00  -0.00  -0.00
   8   1    -0.00   0.00   0.00    -0.00   0.00   0.00     0.00  -0.00   0.00
   9   1    -0.00  -0.00   0.00     0.00   0.00  -0.00     0.00  -0.00  -0.00
  10   1    -0.00   0.00  -0.00     0.00  -0.00   0.00     0.00   0.00   0.00
  11   1    -0.00  -0.00   0.00    -0.00   0.00  -0.00     0.00  -0.00  -0.00
  12   1     0.00  -0.00  -0.00     0.00   0.00   0.00     0.00   0.00   0.00
  13   8     0.00   0.00   0.00    -0.00  -0.00  -0.00    -0.00   0.00   0.00
  14   7     0.00  -0.00  -0.00     0.01   0.00   0.00    -0.00   0.00  -0.00
  15   1    -0.00   0.00  -0.00    -0.02  -0.00  -0.00     0.00   0.00   0.00
  16   1    -0.00   0.00   0.00    -0.00  -0.00  -0.00     0.00  -0.00  -0.00
  17   8     0.00  -0.00  -0.00     0.00   0.00   0.00     0.00  -0.00   0.00
  18   1    -0.00   0.00   0.00     0.00  -0.00  -0.00     0.00  -0.00  -0.00
  19   1    -0.00  -0.00  -0.00    -0.00   0.00  -0.00    -0.00   0.00  -0.00
  20   8     0.00   0.00   0.00    -0.00  -0.00   0.00     0.00   0.00   0.00
  21   1    -0.00  -0.00   0.00     0.00   0.00  -0.00     0.00   0.00  -0.00
  22   1    -0.00  -0.00  -0.00     0.00   0.00   0.00    -0.00  -0.00  -0.00
  23   8    -0.00  -0.00  -0.00     0.00  -0.00  -0.00    -0.00  -0.00   0.00
  24   1    -0.00  -0.00  -0.00    -0.00   0.00   0.00    -0.00  -0.00  -0.00
  25   1     0.00   0.00   0.00    -0.00  -0.00  -0.00     0.01   0.01   0.00
  26   8     0.00   0.00   0.00    -0.00  -0.00  -0.00     0.05   0.05   0.02
  27   1    -0.01  -0.01  -0.00     0.02   0.02   0.01    -0.22  -0.20  -0.07
  28   1     0.00   0.00   0.00    -0.00  -0.00  -0.00     0.00   0.01   0.00
  29   8    -0.00  -0.00   0.00     0.00   0.00  -0.00    -0.00   0.00  -0.00
  30   1     0.00   0.00  -0.00    -0.00  -0.00   0.00    -0.00  -0.00   0.00
  31   1     0.00   0.00   0.00     0.00  -0.00  -0.00     0.00   0.00  -0.00
  32   8    -0.00   0.00   0.00     0.00  -0.01  -0.01     0.03  -0.17  -0.14
  33   1    -0.00   0.00   0.00     0.00  -0.00  -0.00     0.02  -0.01  -0.03
  34   1     0.00  -0.01  -0.01    -0.01   0.05   0.04    -0.15   0.68   0.60
  35   8     0.00  -0.01   0.00    -0.00   0.00  -0.00    -0.00  -0.00   0.00
  36   1    -0.00   0.02  -0.02     0.00  -0.01   0.01    -0.00   0.01  -0.00
  37   1     0.00  -0.00   0.00    -0.00   0.00  -0.00     0.00  -0.00   0.00
  38   8    -0.04  -0.00  -0.02    -0.20  -0.02  -0.12     0.01   0.00   0.01
  39   1     0.15   0.02   0.09     0.81   0.11   0.49    -0.04  -0.01  -0.03
  40   1    -0.00  -0.00  -0.00    -0.02  -0.01  -0.02     0.00   0.00   0.00
  41   8     0.08   0.14   0.17    -0.01  -0.03  -0.03     0.00   0.00   0.00
  42   1    -0.34  -0.57  -0.68     0.06   0.11   0.13    -0.01  -0.01  -0.01
  43   1     0.03   0.02   0.01    -0.01  -0.00  -0.00     0.00   0.00   0.00
  44   8    -0.00   0.00  -0.00     0.00  -0.00   0.00    -0.00   0.00   0.00
  45   1    -0.00   0.00   0.00     0.00  -0.00  -0.00     0.00   0.00  -0.00
  46   1     0.01  -0.01   0.00    -0.00   0.00  -0.00     0.00  -0.00   0.00
  47   8    -0.00  -0.00  -0.00    -0.00   0.00  -0.00     0.00  -0.00   0.00
  48   1     0.00   0.00   0.00     0.00  -0.00   0.00     0.00   0.00  -0.00
  49   1     0.00   0.00  -0.00     0.00   0.00  -0.00    -0.00  -0.00   0.00
  50   8    -0.00   0.00   0.00     0.00   0.00   0.00     0.00   0.00  -0.00
  51   1     0.00  -0.00   0.00    -0.00  -0.00   0.00     0.00  -0.00  -0.00
  52   1    -0.00   0.00  -0.00    -0.00  -0.00  -0.00    -0.00  -0.00   0.00
  53   8    -0.00  -0.00  -0.00     0.00   0.00   0.00    -0.00  -0.00  -0.00
  54   1    -0.00   0.00   0.00    -0.00   0.00   0.00     0.00  -0.00  -0.00
  55   1     0.00   0.00   0.00    -0.00  -0.00  -0.00     0.00   0.00   0.01
  56   8    -0.00   0.00  -0.00     0.00   0.00   0.00     0.00  -0.00   0.01
  57   1     0.00  -0.00   0.00    -0.00   0.00  -0.00    -0.01   0.00  -0.03
  58   1    -0.00  -0.00   0.00    -0.00  -0.00   0.00    -0.00  -0.00   0.00
  59   8     0.00   0.00  -0.01     0.00  -0.00   0.00    -0.00   0.00  -0.00
  60   1    -0.00   0.00  -0.00    -0.00   0.00   0.00     0.00  -0.00  -0.00
  61   1    -0.00  -0.01   0.03     0.00   0.00  -0.01    -0.00  -0.00   0.00
  62   8     0.00   0.00  -0.01    -0.00  -0.00   0.00     0.00   0.00  -0.01
  63   1     0.00  -0.00  -0.00    -0.00   0.00   0.00     0.00  -0.00  -0.00
  64   1    -0.02  -0.00   0.04     0.01   0.00  -0.02    -0.01  -0.00   0.03
  65   8     0.00  -0.00   0.00     0.00  -0.00   0.01    -0.00   0.00  -0.00
  66   1    -0.00   0.00   0.00    -0.00  -0.00  -0.00     0.00  -0.00  -0.00
  67   1    -0.00   0.00  -0.00    -0.01   0.02  -0.02     0.00  -0.00   0.00
  68   8    -0.00  -0.00   0.00     0.00   0.00  -0.00    -0.00   0.00   0.00
  69   1    -0.00  -0.00  -0.00     0.00   0.00  -0.00    -0.00  -0.00  -0.00
  70   1     0.00   0.00  -0.00    -0.00  -0.00   0.00     0.00   0.00  -0.00
  71   8    -0.00  -0.00   0.00     0.00   0.00  -0.00     0.00   0.00   0.00
  72   1     0.00   0.00  -0.00    -0.00  -0.00   0.00     0.00   0.00  -0.00
  73   1     0.00   0.00   0.00    -0.00  -0.00  -0.00    -0.00  -0.00  -0.00
  74   8     0.00  -0.01  -0.00     0.01   0.00  -0.01    -0.00  -0.00   0.00
  75   1    -0.01   0.03  -0.00     0.00  -0.01  -0.00    -0.00   0.00   0.00
  76   1    -0.00  -0.00   0.00    -0.03   0.00   0.03     0.00  -0.00  -0.00
  77   8    -0.00  -0.00  -0.00     0.00   0.00   0.00    -0.00   0.00   0.00
  78   1     0.00   0.00   0.00    -0.00  -0.00  -0.00    -0.00  -0.00  -0.00
  79   1    -0.00   0.00  -0.00     0.00  -0.00  -0.00     0.00  -0.00  -0.00
  80   8    -0.00  -0.00   0.00     0.00   0.00  -0.00    -0.00  -0.00   0.00
  81   1    -0.00   0.00  -0.00     0.00  -0.00   0.00    -0.00  -0.00  -0.00
  82   1     0.00   0.00   0.00    -0.00  -0.00   0.00     0.00   0.00  -0.00
  83   8    -0.00  -0.00  -0.00     0.00   0.00   0.00    -0.00  -0.00   0.00
  84   1    -0.00  -0.00   0.00    -0.00  -0.00   0.00     0.00   0.00  -0.00
  85   1     0.00   0.00   0.00    -0.00  -0.00  -0.00     0.00   0.00   0.00
  86   8    -0.00  -0.00  -0.00     0.00   0.00   0.00     0.00   0.00   0.00
  87   1    -0.00   0.00   0.00    -0.00   0.00   0.00    -0.00   0.00  -0.00
  88   1     0.00   0.00   0.00    -0.00  -0.00  -0.00    -0.01  -0.02  -0.00
  89   8     0.00  -0.00   0.00     0.00  -0.00   0.00     0.00   0.00   0.00
  90   1     0.00   0.00   0.00    -0.00  -0.00  -0.00    -0.00  -0.00  -0.00
  91   1    -0.00   0.00  -0.00    -0.00   0.00  -0.00    -0.00  -0.00   0.00
                    265                    266                    267
                        a                      a                      a 
 Frequencies --  3673.5693              3674.6183              3682.9118
 Red. masses --     1.8319                 1.8357                 1.8403
 Frc consts  --     0.0000                 0.0000                 0.0000
 IR Inten    --    13.9237                13.5936                10.0222
 Raman Activ --     0.0000                 0.0000                 0.0000
 Depolar     --     0.0000                 0.0000                 0.0000
 Atom AN      X      Y      Z        X      Y      Z        X      Y      Z
   1   6    -0.00  -0.00  -0.00    -0.00   0.00   0.00     0.00  -0.00  -0.00
   2   6    -0.00  -0.00   0.00    -0.00   0.00   0.00    -0.00   0.00  -0.00
   3   6     0.00  -0.00  -0.00     0.00  -0.00  -0.00    -0.00  -0.00   0.00
   4   6     0.00  -0.00   0.00    -0.00  -0.00  -0.00     0.00  -0.00   0.00
   5   1    -0.00   0.00  -0.00     0.00   0.00  -0.00    -0.00   0.00  -0.00
   6   1     0.00  -0.00   0.00    -0.00  -0.00  -0.00     0.00  -0.00  -0.00
   7   1     0.00   0.00   0.00     0.00  -0.00  -0.00    -0.00  -0.00   0.00
   8   1    -0.00   0.00  -0.00     0.00  -0.00  -0.00    -0.00   0.00   0.00
   9   1    -0.00   0.00   0.00     0.00  -0.00  -0.00     0.00   0.00   0.00
  10   1     0.00   0.00  -0.00     0.00  -0.00   0.00     0.00  -0.00  -0.00
  11   1    -0.00   0.00  -0.00    -0.00   0.00  -0.00    -0.00   0.00  -0.00
  12   1    -0.00  -0.00  -0.00    -0.00   0.00   0.00     0.00  -0.00   0.00
  13   8    -0.00   0.00  -0.00    -0.00  -0.00  -0.00     0.00  -0.00   0.00
  14   7     0.00   0.00  -0.00     0.00   0.00   0.00     0.00   0.00   0.00
  15   1    -0.00  -0.00  -0.00    -0.00  -0.00  -0.00    -0.00   0.00  -0.00
  16   1    -0.00   0.00   0.00     0.00  -0.00  -0.00     0.00  -0.00  -0.00
  17   8     0.00  -0.00   0.00    -0.00   0.00   0.00     0.00  -0.00  -0.00
  18   1     0.00  -0.00  -0.00     0.00  -0.00  -0.00    -0.00   0.00   0.00
  19   1    -0.00   0.00  -0.00    -0.00   0.00  -0.00    -0.00   0.00  -0.00
  20   8    -0.00  -0.00  -0.00     0.00   0.00   0.01    -0.00  -0.00   0.00
  21   1     0.00   0.00  -0.00    -0.00   0.00   0.00     0.00   0.00  -0.00
  22   1     0.00   0.00   0.00    -0.01  -0.01  -0.03     0.00   0.00   0.00
  23   8    -0.01  -0.00  -0.00    -0.00  -0.00  -0.00    -0.00  -0.00   0.00
  24   1    -0.00  -0.00  -0.00    -0.00  -0.00  -0.00     0.00   0.00  -0.00
  25   1     0.03   0.01   0.00     0.00   0.00   0.00     0.00   0.00  -0.00
  26   8     0.16   0.14   0.05     0.01   0.01   0.00    -0.00  -0.00  -0.00
  27   1    -0.65  -0.61  -0.21    -0.05  -0.04  -0.02     0.00   0.00   0.00
  28   1     0.01   0.04   0.01     0.00   0.00   0.00     0.00  -0.00  -0.00
  29   8     0.00   0.00  -0.00     0.00   0.00  -0.00     0.02   0.06  -0.23
  30   1    -0.00  -0.00   0.00    -0.00  -0.00   0.01    -0.05  -0.26   0.93
  31   1     0.00   0.00  -0.00     0.00   0.00  -0.00    -0.01   0.01  -0.03
  32   8    -0.01   0.05   0.05    -0.00   0.01   0.01     0.00  -0.00  -0.00
  33   1    -0.01   0.00   0.01    -0.00   0.00   0.00    -0.00  -0.00   0.00
  34   1     0.05  -0.22  -0.20     0.01  -0.04  -0.04    -0.00   0.00   0.00
  35   8    -0.00   0.01  -0.00    -0.00   0.01  -0.01     0.00  -0.00   0.00
  36   1     0.00  -0.02   0.02     0.00  -0.03   0.03    -0.00   0.00  -0.00
  37   1     0.00   0.00  -0.00    -0.00   0.00  -0.00     0.00  -0.00   0.00
  38   8    -0.01  -0.00  -0.01    -0.00  -0.00  -0.00     0.00  -0.00   0.00
  39   1     0.04   0.00   0.02     0.01   0.00   0.01    -0.00  -0.00  -0.00
  40   1    -0.00  -0.00  -0.00    -0.00  -0.00  -0.00    -0.00   0.00   0.00
  41   8    -0.00  -0.00  -0.00    -0.00  -0.01  -0.01     0.00   0.00   0.00
  42   1     0.01   0.01   0.01     0.02   0.03   0.03    -0.00  -0.00  -0.00
  43   1    -0.00  -0.00  -0.00    -0.00  -0.00  -0.00     0.00   0.00   0.00
  44   8     0.00  -0.00   0.00     0.00  -0.00   0.00     0.00  -0.01   0.00
  45   1     0.00  -0.00  -0.00     0.00  -0.00  -0.00     0.01   0.00  -0.00
  46   1    -0.00   0.00  -0.00    -0.01   0.01  -0.00    -0.02   0.03  -0.00
  47   8     0.00  -0.00   0.00     0.00  -0.00   0.00     0.00   0.00  -0.00
  48   1     0.00   0.00  -0.00    -0.00  -0.00  -0.00    -0.00  -0.00  -0.00
  49   1    -0.00  -0.00   0.00    -0.00  -0.00   0.00    -0.00  -0.00   0.00
  50   8    -0.00  -0.00   0.00    -0.00  -0.00   0.00     0.00  -0.00   0.00
  51   1     0.00   0.00   0.00    -0.00   0.00  -0.00    -0.00  -0.00   0.00
  52   1     0.00   0.00  -0.00     0.00   0.00  -0.00    -0.00  -0.00   0.00
  53   8    -0.00  -0.00  -0.01    -0.00   0.00  -0.00    -0.00   0.00   0.00
  54   1     0.00  -0.00  -0.00     0.00  -0.00  -0.00     0.00  -0.00  -0.00
  55   1     0.00   0.00   0.02     0.00   0.00   0.00    -0.00  -0.00  -0.00
  56   8    -0.00   0.00  -0.00    -0.00  -0.00  -0.00     0.00  -0.00  -0.00
  57   1     0.00  -0.00   0.01     0.00  -0.00   0.00     0.00  -0.00   0.00
  58   1     0.00   0.00  -0.00     0.00   0.00  -0.00    -0.00   0.00   0.00
  59   8    -0.00  -0.00   0.00    -0.00  -0.00   0.00     0.00  -0.00   0.00
  60   1     0.00  -0.00  -0.00     0.00  -0.00  -0.00    -0.00   0.00   0.00
  61   1     0.00   0.00  -0.00     0.00   0.00  -0.00     0.00   0.00  -0.00
  62   8    -0.01  -0.00   0.02     0.10   0.01  -0.21    -0.00  -0.00   0.00
  63   1    -0.00   0.00   0.00     0.03  -0.01  -0.02    -0.00   0.00   0.00
  64   1     0.04   0.00  -0.07    -0.43  -0.02   0.86     0.00   0.00  -0.00
  65   8     0.00  -0.00   0.00    -0.00  -0.00   0.00     0.00  -0.00  -0.00
  66   1    -0.00  -0.00   0.00     0.00  -0.00  -0.00    -0.00   0.00   0.00
  67   1    -0.00   0.00  -0.00    -0.00   0.00  -0.00    -0.00   0.00  -0.00
  68   8     0.00  -0.00  -0.00    -0.00   0.00  -0.00    -0.00  -0.00   0.00
  69   1     0.00   0.00   0.00     0.00   0.00   0.00    -0.00   0.00   0.00
  70   1     0.00   0.00  -0.00    -0.00  -0.00   0.00     0.00   0.00  -0.00
  71   8    -0.00  -0.00  -0.00    -0.00   0.00  -0.00     0.00  -0.00   0.00
  72   1    -0.00  -0.00   0.00    -0.00  -0.00   0.00     0.00   0.00  -0.00
  73   1     0.00   0.00   0.00     0.00   0.00   0.00    -0.00  -0.00  -0.00
  74   8     0.00   0.00  -0.00    -0.00   0.00   0.00     0.00  -0.00  -0.00
  75   1     0.00  -0.00   0.00     0.00  -0.00  -0.00    -0.00   0.00  -0.00
  76   1    -0.00   0.00   0.00    -0.00  -0.00   0.00    -0.00   0.00   0.00
  77   8    -0.00  -0.00  -0.00    -0.00   0.00   0.00     0.00  -0.00   0.00
  78   1     0.00   0.00   0.00    -0.00  -0.00  -0.00    -0.00  -0.00  -0.00
  79   1    -0.00   0.00   0.00     0.00  -0.00  -0.00    -0.00   0.00   0.00
  80   8     0.00   0.00  -0.00    -0.00  -0.01   0.00    -0.00   0.00  -0.00
  81   1     0.00   0.00   0.00     0.00  -0.00   0.00     0.00  -0.00   0.00
  82   1    -0.00  -0.00   0.00     0.01   0.02  -0.01     0.00   0.00  -0.00
  83   8    -0.00  -0.00   0.00     0.00  -0.00   0.00    -0.00  -0.00   0.00
  84   1     0.00   0.00  -0.00     0.00   0.00  -0.00     0.01   0.01  -0.02
  85   1     0.00   0.00   0.00    -0.00  -0.00  -0.00     0.00   0.00   0.01
  86   8    -0.00  -0.00  -0.00    -0.00  -0.00  -0.00     0.00  -0.00  -0.00
  87   1     0.00  -0.00   0.00     0.00  -0.00  -0.00    -0.00   0.00   0.00
  88   1     0.00   0.01   0.00     0.00   0.00   0.00     0.00   0.00   0.00
  89   8    -0.00  -0.00  -0.00    -0.00  -0.00   0.00    -0.00   0.00  -0.00
  90   1     0.00   0.00   0.00     0.00   0.00   0.00    -0.00  -0.00  -0.00
  91   1     0.00  -0.00   0.00    -0.00   0.00  -0.00     0.00  -0.00   0.00
