      -----------------------------------------------------------      
     |                   =====================                   |     
     |                           x T B                           |     
     |                   =====================                   |     
     |                         S. Grimme                         |     
     |          Mulliken Center for Theoretical Chemistry        |     
     |                    University of Bonn                     |     
      -----------------------------------------------------------      

   * xtb version 6.5.1 (579679a) compiled by 'ehlert@majestix' on 2022-07-11

   xtb is free software: you can redistribute it and/or modify it under
   the terms of the GNU Lesser General Public License as published by
   the Free Software Foundation, either version 3 of the License, or
   (at your option) any later version.
   
   xtb is distributed in the hope that it will be useful,
   but WITHOUT ANY WARRANTY; without even the implied warranty of
   MERCHANTABILITY or FITNESS FOR A PARTICULAR PURPOSE.  See the
   GNU Lesser General Public License for more details.
   
   Cite this work as:
   * C. Bannwarth, E. Caldeweyher, S. Ehlert, A. Hansen, P. Pracht,
     J. Seibert, S. Spicher, S. Grimme, WIREs Comput. Mol. Sci., 2020, 11,
     e01493. DOI: 10.1002/wcms.1493
   
   for GFN2-xTB:
   * C. Bannwarth, S. Ehlert and S. Grimme., J. Chem. Theory Comput., 2019,
     15, 1652-1671. DOI: 10.1021/acs.jctc.8b01176
   for GFN1-xTB:
   * S. Grimme, C. Bannwarth, P. Shushkov, J. Chem. Theory Comput., 2017,
     13, 1989-2009. DOI: 10.1021/acs.jctc.7b00118
   for GFN0-xTB:
   * P. Pracht, E. Caldeweyher, S. Ehlert, S. Grimme, ChemRxiv, 2019, preprint.
     DOI: 10.26434/chemrxiv.8326202.v1
   for GFN-FF:
   * S. Spicher and S. Grimme, Angew. Chem. Int. Ed., 2020, 59, 15665-15673.
     DOI: 10.1002/anie.202004239
   
   for ALPB and GBSA implicit solvation:
   * S. Ehlert, M. Stahn, S. Spicher, S. Grimme, J. Chem. Theory Comput.,
     2021, 17, 4250-4261. DOI: 10.1021/acs.jctc.1c00471
   
   for DFT-D4:
   * E. Caldeweyher, C. Bannwarth and S. Grimme, J. Chem. Phys., 2017,
     147, 034112. DOI: 10.1063/1.4993215
   * E. Caldeweyher, S. Ehlert, A. Hansen, H. Neugebauer, S. Spicher,
     C. Bannwarth and S. Grimme, J. Chem. Phys., 2019, 150, 154122.
     DOI: 10.1063/1.5090222
   * E. Caldeweyher, J.-M. Mewes, S. Ehlert and S. Grimme, Phys. Chem. Chem. Phys.
     2020, 22, 8499-8512. DOI: 10.1039/D0CP00502A
   
   for sTDA-xTB:
   * S. Grimme and C. Bannwarth, J. Chem. Phys., 2016, 145, 054103.
     DOI: 10.1063/1.4959605
   
   in the mass-spec context:
   * V. Asgeirsson, C. Bauer and S. Grimme, Chem. Sci., 2017, 8, 4879.
     DOI: 10.1039/c7sc00601b
   * J. Koopman and S. Grimme, ACS Omega 2019, 4, 12, 15120-15133.
     DOI: 10.1021/acsomega.9b02011
   
   for metadynamics refer to:
   * S. Grimme, J. Chem. Theory Comput., 2019, 155, 2847-2862
     DOI: 10.1021/acs.jctc.9b00143
   
   for SPH calculations refer to:
   * S. Spicher and S. Grimme, J. Chem. Theory Comput., 2021, 17, 1701-1714
     DOI: 10.1021/acs.jctc.0c01306
   
   with help from (in alphabetical order)
   P. Atkinson, C. Bannwarth, F. Bohle, G. Brandenburg, E. Caldeweyher
   M. Checinski, S. Dohm, S. Ehlert, S. Ehrlich, I. Gerasimov, C. Hölzer
   A. Katbashev, J. Koopman, C. Lavigne, S. Lehtola, F. März, M. Müller,
   F. Musil, H. Neugebauer, J. Pisarek, C. Plett, P. Pracht, F. Pultar,
   J. Seibert, P. Shushkov, S. Spicher, M. Stahn, M. Steiner, T. Strunk,
   J. Stückrath, T. Rose, and J. Unsleber
   
 * started run on 2022/10/12 at 03:15:58.515     

           -------------------------------------------------
          |                Calculation Setup                |
           -------------------------------------------------

          program call               : xtb cluster.xyz --gfn2 --ohess
          hostname                   : cn1257
          coordinate file            : cluster.xyz
          omp threads                :                    10

   ID    Z sym.   atoms
    1    6 C      1-4
    2    1 H      5-12, 15, 16, 18, 19, 21, 22, 24, 25, 27, 28, 30, 31, 33,
                  34, 36, 37, 39, 40, 42, 43, 45, 46, 48, 49, 51, 52, 54, 55,
                  57, 58, 60, 61, 63, 64, 66, 67, 69, 70, 72, 73, 75, 76, 78,
                  79, 81, 82, 84, 85, 87, 88, 90, 91
    3    8 O      13, 17, 20, 23, 26, 29, 32, 35, 38, 41, 44, 47, 50, 53, 56,
                  59, 62, 65, 68, 71, 74, 77, 80, 83, 86, 89
    4    7 N      14

molecular fragmentation (1/2 indicates fragments):
111111111111111122222222222222222222222222222222222222222222222222222222
2222222222222222222
# atoms in fragment 1/2:    16    75
 fragment masses (1/2) :       88.13      450.38
CMA distance (Bohr)    :   1.440
constraining FC (au)   :  0.0500

           -------------------------------------------------
          |                 G F N 2 - x T B                 |
           -------------------------------------------------

        Reference                      10.1021/acs.jctc.8b01176
      * Hamiltonian:
        H0-scaling (s, p, d)           1.850000    2.230000    2.230000
        zeta-weighting                 0.500000
      * Dispersion:
        s8                             2.700000
        a1                             0.520000
        a2                             5.000000
        s9                             5.000000
      * Repulsion:
        kExp                           1.500000    1.000000
        rExp                           1.000000
      * Coulomb:
        alpha                          2.000000
        third order                    shell-resolved
        anisotropic                    true
        a3                             3.000000
        a5                             4.000000
        cn-shift                       1.200000
        cn-exp                         4.000000
        max-rad                        5.000000


          ...................................................
          :                      SETUP                      :
          :.................................................:
          :  # basis functions                 184          :
          :  # atomic orbitals                 184          :
          :  # shells                          122          :
          :  # electrons                       237          :
          :  max. iterations                   250          :
          :  Hamiltonian                  GFN2-xTB          :
          :  restarted?                      false          :
          :  GBSA solvation                  false          :
          :  PC potential                    false          :
          :  electronic temp.          300.0000000     K    :
          :  accuracy                    1.0000000          :
          :  -> integral cutoff          0.2500000E+02      :
          :  -> integral neglect         0.1000000E-07      :
          :  -> SCF convergence          0.1000000E-05 Eh   :
          :  -> wf. convergence          0.1000000E-03 e    :
          :  Broyden damping             0.4000000          :
          ...................................................

 iter      E             dE          RMSdq      gap      omega  full diag
   1   -148.6733370 -0.148673E+03  0.396E+00    6.48       0.0  T
   2   -148.7377422 -0.644053E-01  0.235E+00    6.11       1.0  T
   3   -148.7340200  0.372224E-02  0.714E-01    6.98       1.0  T
   4   -148.7488862 -0.148663E-01  0.140E-01    6.39       1.0  T
   5   -148.7491346 -0.248313E-03  0.522E-02    6.39       1.0  T
   6   -148.7491469 -0.123933E-04  0.193E-02    6.40       1.0  T
   7   -148.7491486 -0.163350E-05  0.582E-03    6.41       1.8  T
   8   -148.7491490 -0.386419E-06  0.139E-03    6.41       7.5  T
   9   -148.7491490 -0.141014E-07  0.447E-04    6.41      23.4  T
  10   -148.7491490 -0.225347E-08  0.793E-05    6.41     132.2  T

   *** convergence criteria satisfied after 10 iterations ***

         #    Occupation            Energy/Eh            Energy/eV
      -------------------------------------------------------------
         1        2.0000           -0.7012211             -19.0812
       ...           ...                  ...                  ...
       113        2.0000           -0.4276761             -11.6377
       114        2.0000           -0.4260764             -11.5941
       115        2.0000           -0.4222612             -11.4903
       116        2.0000           -0.4137815             -11.2596
       117        2.0000           -0.4118823             -11.2079
       118        2.0000           -0.4043779             -11.0037
       119        1.0000           -0.2800051              -7.6193 (HOMO)
       120                         -0.0445797              -1.2131 (LUMO)
       121                         -0.0215673              -0.5869
       122                         -0.0149914              -0.4079
       123                         -0.0064625              -0.1759
       124                          0.0084317               0.2294
       ...                                ...                  ...
       184                          0.4084097              11.1134
      -------------------------------------------------------------
                  HL-Gap            0.2354254 Eh            6.4063 eV
             Fermi-level           -0.2522419 Eh           -6.8639 eV

 SCC (total)                   0 d,  0 h,  0 min,  0.106 sec
 SCC setup                      ...        0 min,  0.001 sec (  0.881%)
 Dispersion                     ...        0 min,  0.002 sec (  1.727%)
 classical contributions        ...        0 min,  0.000 sec (  0.134%)
 integral evaluation            ...        0 min,  0.006 sec (  5.755%)
 iterations                     ...        0 min,  0.075 sec ( 71.327%)
 molecular gradient             ...        0 min,  0.020 sec ( 19.149%)
 printout                       ...        0 min,  0.001 sec (  0.924%)

         :::::::::::::::::::::::::::::::::::::::::::::::::::::
         ::                     SUMMARY                     ::
         :::::::::::::::::::::::::::::::::::::::::::::::::::::
         :: total energy            -147.742507456340 Eh    ::
         :: gradient norm              0.000356944527 Eh/a0 ::
         :: HOMO-LUMO gap              6.406251213897 eV    ::
         ::.................................................::
         :: SCC energy              -148.749148985258 Eh    ::
         :: -> isotropic ES            0.792390910629 Eh    ::
         :: -> anisotropic ES         -0.141400915676 Eh    ::
         :: -> anisotropic XC         -0.007972521212 Eh    ::
         :: -> dispersion             -0.070876267038 Eh    ::
         :: repulsion energy           1.000437190811 Eh    ::
         :: add. restraining           0.000000000000 Eh    ::
         :: total charge              -0.000000000000 e     ::
         :::::::::::::::::::::::::::::::::::::::::::::::::::::

      ----------------------------------------------------------- 
     |                   =====================                   |
     |                        A N C O P T                        |
     |                   =====================                   |
     |               Approximate Normal Coordinate               |
     |                Rational Function Optimizer                |
      ----------------------------------------------------------- 

          ...................................................
          :                      SETUP                      :
          :.................................................:
          :   optimization level            normal          :
          :   max. optcycles                   273          :
          :   ANC micro-cycles                  20          :
          :   degrees of freedom               267          :
          :.................................................:
          :   RF solver                   davidson          :
          :   write xtbopt.log                true          :
          :   linear?                        false          :
          :   energy convergence         0.5000000E-05 Eh   :
          :   grad. convergence          0.1000000E-02 Eh/α :
          :   maximium RF displ.         1.0000000          :
          :   Hlow (freq-cutoff)         0.1000000E-01      :
          :   Hmax (freq-cutoff)         5.0000000          :
          :   S6 in model hess.         20.0000000          :
          ...................................................

generating ANC from model Hessian ...
Using Lindh-Hessian (1995)
 Shifting diagonal of input Hessian by   1.003854997527988E-002
 Lowest  eigenvalues of input Hessian
    0.010000    0.010017    0.000000    0.000000    0.000000    0.000000
    0.000000    0.000000    0.010079    0.010103    0.010192    0.010246
    0.010268    0.010290    0.010355    0.010427    0.010458    0.010471
 Highest eigenvalues
    1.413985    1.414042    1.428356    1.461817    1.560789    1.728493
 

........................................................................
.............................. CYCLE    1 ..............................
........................................................................
   1   -148.7491490 -0.148749E+03  0.283E-05    6.41       0.0  T
   2   -148.7491490 -0.827072E-11  0.159E-05    6.41     658.7  T
   3   -148.7491490 -0.966338E-12  0.588E-06    6.41    1783.8  T
     SCC iter.                  ...        0 min,  0.020 sec
     gradient                   ...        0 min,  0.020 sec
 * total energy  :  -147.7425075 Eh     change       -0.8893153E-10 Eh
   gradient norm :     0.0003571 Eh/α   predicted     0.0000000E+00 (-100.00%)
   displ. norm   :     0.0155917 α      lambda       -0.1464629E-06
   maximum displ.:     0.0050281 α      in ANC's #48, #43, #39, ...

   *** GEOMETRY OPTIMIZATION CONVERGED AFTER 1 ITERATIONS ***

------------------------------------------------------------------------
 total energy gain   :        -0.0000000 Eh       -0.0000 kcal/mol
 total RMSD          :         0.0000000 a0        0.0000 Å
 total power (kW/mol):        -0.0000002 (step)   -0.0000 (real)
------------------------------------------------------------------------

 ANCopt (total)                0 d,  0 h,  0 min,  0.258 sec
 optimizer setup                ...        0 min,  0.001 sec (  0.245%)
 model hessian                  ...        0 min,  0.196 sec ( 76.098%)
 ANC generation                 ...        0 min,  0.009 sec (  3.394%)
 coordinate transformation      ...        0 min,  0.000 sec (  0.029%)
 single point calculation       ...        0 min,  0.049 sec ( 18.839%)
 optimization log               ...        0 min,  0.003 sec (  1.190%)
 hessian update                 ...        0 min,  0.000 sec (  0.001%)
 rational function              ...        0 min,  0.000 sec (  0.084%)

================
 final structure:
================
91
 xtb: 6.5.1 (579679a)
C           -0.55058579640000       -0.63509762770000        0.83421564360000
C           -1.62795160880000        0.09492713570000       -1.23712579870000
C           -0.81077557100000       -0.24894602020000       -2.47512524390000
C            0.82554138330000       -0.43557261480000        0.38451218860000
H           -0.63647143470000       -1.52992347430000        1.45339553790000
H           -2.68504342100000        0.15306870210000       -1.50163935430000
H           -1.24629037700000       -1.09632200840000       -2.99666297240000
H            1.44915088990000       -1.24593219410000        0.06320301010000
H           -0.89278790510000        0.24670156330000        1.38970264910000
H           -1.31242341100000        1.05644923460000       -0.82827797180000
H           -0.79614791490000        0.60225076310000       -3.14847327890000
H            0.20847177340000       -0.49528452880000       -2.19627245460000
O           -1.53797303390000       -0.89399089130000       -0.21565915640000
N            1.33953293860000        0.85577557630000        0.27655315140000
H            2.33637758670000        0.90539832170000        0.45104113490000
H            0.84232342390000        1.53003901200000        0.84769664040000
O            1.00630005140000       -4.31441583840000        0.47338508190000
H            0.61321465150000       -4.02369391450000        1.31127675330000
H            0.35672428250000       -4.07730196240000       -0.20906964120000
O           -3.58305470530000       -0.98233746640000        1.73286176060000
H           -2.96299141290000       -0.84896468610000        0.99696541730000
H           -3.17263026990000       -0.55388251490000        2.50372614000000
O           -0.77356812710000       -3.25388228920000       -1.38419330260000
H           -0.94661425610000       -2.39652793800000       -0.94537003520000
H           -1.66163331130000       -3.61261211940000       -1.51600483920000
O           -3.52507685020000       -3.47774085670000       -1.12709205060000
H           -4.22325182750000       -4.09675126090000       -1.34367788280000
H           -3.96792771420000       -2.60093764240000       -1.05313885980000
O           -3.07359428990000        3.43611053710000       -2.56497022070000
H           -2.99730206650000        3.69267472380000       -3.48381662780000
H           -2.19095028540000        3.54046110370000       -2.17383434970000
O            1.42651878740000       -2.65108955260000       -2.90058536180000
H            0.60901492680000       -2.86693954610000       -2.40585627190000
H            1.56627477840000       -3.36966533860000       -3.51821928550000
O           -0.47325683320000       -3.53973824630000        2.69652672930000
H           -0.44648028200000       -4.25966621190000        3.32821301990000
H           -1.37635922510000       -3.58091187430000        2.28076341690000
O            4.19763834490000        0.96041521160000        0.96384826500000
H            5.01826657070000        1.05398712710000        1.44833062900000
H            4.37243822890000        0.28344727710000        0.24477981940000
O            1.18104258400000        2.86139780650000        2.64137056170000
H            1.50251524470000        3.43515667090000        3.33809100440000
H            0.19741808190000        2.77636963270000        2.79996901520000
O           -2.53705918060000        2.94572688290000        0.54818441950000
H           -1.82324611820000        3.10193964580000       -0.10687740370000
H           -3.09034981590000        3.72824547710000        0.51459069720000
O           -4.95396499250000       -1.23241036210000       -0.70009000630000
H           -4.87682631340000       -1.19113288110000        0.26181598180000
H           -4.88788386310000       -0.30720624240000       -0.98811816060000
O            4.54927070340000       -0.72633764760000       -0.97505675360000
H            3.97965024490000       -0.49827771850000       -1.74020657470000
H            4.20174198210000       -1.59087742710000       -0.68646138510000
O           -2.87101990840000       -3.59083713980000        1.60356178920000
H           -3.25001499370000       -2.70936032320000        1.79373511350000
H           -2.96730972130000       -3.69197355000000        0.64210019200000
O            3.05129982330000       -2.91206140930000       -0.61017069170000
H            2.60757213430000       -2.85198410380000       -1.46979017350000
H            2.47274946260000       -3.48806865250000       -0.07387539630000
O            1.42481355820000        4.32272720230000        0.27617093060000
H            2.25222706950000        4.06188425750000       -0.15108753370000
H            1.39114491440000        3.83859526470000        1.11867938660000
O           -2.13177940060000        0.12776478060000        3.80882291990000
H           -1.27173715410000       -0.37182854880000        3.90758005910000
H           -2.54823210640000        0.10276450620000        4.67095022830000
O            3.65460753770000        2.98692673910000       -0.89596244320000
H            4.28667011530000        2.71694347570000       -1.59016389630000
H            3.84429115460000        2.39217778840000       -0.14982400810000
O            0.10146920660000       -1.18982479660000        4.08493488410000
H            0.03602622220000       -2.02292700740000        3.58912590620000
H            0.90386866830000       -0.73431845990000        3.77726612860000
O            1.46579349020000        1.95977138420000       -2.17696763400000
H            1.29335918620000        1.45271441160000       -1.34811054180000
H            2.22244157880000        2.52536673190000       -1.93279180170000
O            2.23819630720000        0.32708202550000        3.15648852860000
H            1.87545112400000        1.21960529630000        3.02716614460000
H            2.94859125630000        0.24231059350000        2.51154113700000
O           -0.59614976060000        3.50201471500000       -1.26909038540000
H            0.03921941300000        3.99466065480000       -0.70264162710000
H           -0.01243669070000        2.92970224970000       -1.80314489810000
O           -1.38160852540000        2.62004475370000        2.99908212230000
H           -1.84819527530000        2.74673996520000        2.15196472740000
H           -1.66724493220000        1.74867940400000        3.33380405120000
O           -4.46887236380000        1.51192731590000       -1.02542414040000
H           -4.20349965610000        2.12064686750000       -1.72863106550000
H           -3.94625466810000        1.78993838750000       -0.26087447980000
O            2.91685220260000       -0.15926226830000       -3.08589029120000
H            2.29929163170000        0.57969415130000       -2.91068141390000
H            2.38224231330000       -0.96148240390000       -3.15397668720000
O            5.16815931620000        1.59753648210000       -2.68688586130000
H            4.49814627950000        1.13567804260000       -3.20629542510000
H            5.58472481560000        0.91397524010000       -2.15233206800000
 
 Bond Distances (Angstroems)
 ---------------------------
C1-C4=1.4614         C1-H5=1.0915         C1-H9=1.0969         C1-O13=1.4643        C2-C3=1.5227         C2-H6=1.0912         
C2-H10=1.0914        C2-O13=1.4246        C3-C2=1.5227         C3-H7=1.0861         C3-H11=1.0854        C3-H12=1.0850        
C4-C1=1.4614         C4-H8=1.0718         C4-N14=1.3941        H5-C1=1.0915         H6-C2=1.0912         H7-C3=1.0861         
H8-C4=1.0718         H9-C1=1.0969         H10-C2=1.0914        H11-C3=1.0854        H12-C3=1.0850        O13-C1=1.4643        
O13-C2=1.4246        N14-C4=1.3941        N14-H15=1.0132       N14-H16=1.0139       H15-N14=1.0132       H16-N14=1.0139       
O17-H18=0.9701       O17-H19=0.9716       H18-O17=0.9701       H19-O17=0.9716       O20-H21=0.9715       O20-H22=0.9728       
H21-O20=0.9715       H22-O20=0.9728       O23-H24=0.9786       O23-H25=0.9668       H24-O23=0.9786       H25-O23=0.9668       
O26-H27=0.9579       O26-H28=0.9851       H27-O26=0.9579       H28-O26=0.9851       O29-H30=0.9570       O29-H31=0.9710       
H30-O29=0.9570       H31-O29=0.9710       O32-H33=0.9796       O32-H34=0.9578       H33-O32=0.9796       H34-O32=0.9578       
O35-H36=0.9581       O35-H37=0.9951       H36-O35=0.9581       H37-O35=0.9951       O38-H39=0.9576       O38-H40=1.0029       
H39-O38=0.9576       H40-O38=1.0029       O41-H42=0.9581       O41-H43=1.0000       H42-O41=0.9581       H43-O41=1.0000       
O44-H45=0.9813       O44-H46=0.9590       H45-O44=0.9813       H46-O44=0.9590       O47-H48=0.9659       O47-H49=0.9713       
H48-O47=0.9659       H49-O47=0.9713       O50-H51=0.9808       O50-H52=0.9754       H51-O50=0.9808       H52-O50=0.9754       
O53-H54=0.9782       O53-H55=0.9715       H54-O53=0.9782       H55-O53=0.9715       O56-H57=0.9693       O56-H58=0.9768       
H57-O56=0.9693       H58-O56=0.9768       O59-H60=0.9671       O59-H61=0.9723       H60-O59=0.9671       H61-O59=0.9723       
O62-H63=0.9995       O62-H64=0.9578       H63-O62=0.9995       H64-O62=0.9578       O65-H66=0.9769       O65-H67=0.9728       
H66-O65=0.9769       H67-O65=0.9728       O68-H69=0.9717       O68-H70=0.9726       H69-O68=0.9717       H70-O68=0.9726       
O71-H72=0.9868       O71-H73=0.9757       H72-O71=0.9868       H73-O71=0.9757       O74-H75=0.9721       O74-H76=0.9632       
H75-O74=0.9721       H76-O74=0.9632       O77-H78=0.9835       O77-H79=0.9765       H78-O77=0.9835       H79-O77=0.9765       
O80-H81=0.9754       O80-H82=0.9762       H81-O80=0.9754       H82-O80=0.9762       O83-H84=0.9672       O83-H85=0.9669       
H84-O83=0.9672       H85-O83=0.9669       O86-H87=0.9788       O86-H88=0.9664       H87-O86=0.9788       H88-O86=0.9664       
O89-H90=0.9654       O89-H91=0.9626       H90-O89=0.9654       H91-O89=0.9626       
 C  H  Rav=1.0874 sigma=0.0070  Rmin=1.0718  Rmax=1.0969     8
 C  C  Rav=1.4921 sigma=0.0306  Rmin=1.4614  Rmax=1.5227     2
 N  H  Rav=1.0136 sigma=0.0004  Rmin=1.0132  Rmax=1.0139     2
 N  C  Rav=1.3941 sigma=0.0000  Rmin=1.3941  Rmax=1.3941     1
 O  H  Rav=0.9730 sigma=0.0109  Rmin=0.9570  Rmax=1.0029    50
 O  C  Rav=1.4444 sigma=0.0199  Rmin=1.4246  Rmax=1.4643     2
 
 selected bond angles (degree)
 --------------------
H5-C1-C4=111.13                H9-C1-C4=109.87                H9-C1-H5=110.32                O13-C1-C4=116.01               
O13-C1-H5=102.05               O13-C1-H9=107.15               H6-C2-C3=109.56                H10-C2-C3=110.39               
H10-C2-H6=108.90               O13-C2-C3=113.10               O13-C2-H6=105.78               O13-C2-H10=108.95              
H7-C3-C2=110.57                H11-C3-C2=109.54               H11-C3-H7=108.62               H12-C3-C2=110.27               
H12-C3-H7=108.84               H12-C3-H11=108.95              H8-C4-C1=122.47                N14-C4-C1=119.83               
N14-C4-H8=117.56               
 
 selected dihedral angles (degree)
 ---------------------------------
H7-C3-C2-H6=311.18            H7-C3-C2-H10=191.26           H7-C3-C2-O13= 68.92           H11-C3-C2-H6= 70.86           
H11-C3-C2-H10=310.94          H11-C3-C2-O13=188.60          H12-C3-C2-H6=190.76           H12-C3-C2-H10= 70.85          
H12-C3-C2-O13=308.50          H8-C4-C1-H5= 40.59            H8-C4-C1-H9=162.97            H8-C4-C1-O13=284.64           
N14-C4-C1-H5=216.20           N14-C4-C1-H9=338.58           N14-C4-C1-O13=100.25          
 
 CMA Distance (Angstroems)
 ---------------------------
R(CMA):  0.7621
           -------------------------------------------------
          |                Final Singlepoint                |
           -------------------------------------------------

          ...................................................
          :                      SETUP                      :
          :.................................................:
          :  # basis functions                 184          :
          :  # atomic orbitals                 184          :
          :  # shells                          122          :
          :  # electrons                       237          :
          :  max. iterations                   250          :
          :  Hamiltonian                  GFN2-xTB          :
          :  restarted?                      false          :
          :  GBSA solvation                  false          :
          :  PC potential                    false          :
          :  electronic temp.          300.0000000     K    :
          :  accuracy                    1.0000000          :
          :  -> integral cutoff          0.2500000E+02      :
          :  -> integral neglect         0.1000000E-07      :
          :  -> SCF convergence          0.1000000E-05 Eh   :
          :  -> wf. convergence          0.1000000E-03 e    :
          :  Broyden damping             0.4000000          :
          ...................................................

 iter      E             dE          RMSdq      gap      omega  full diag
   1   -148.7491490 -0.148749E+03  0.182E-06    6.41       0.0  T
   2   -148.7491490 -0.284217E-12  0.108E-06    6.41    9694.9  T
   3   -148.7491490  0.397904E-12  0.280E-07    6.41   37436.9  T

   *** convergence criteria satisfied after 3 iterations ***

         #    Occupation            Energy/Eh            Energy/eV
      -------------------------------------------------------------
         1        2.0000           -0.7012241             -19.0813
       ...           ...                  ...                  ...
       113        2.0000           -0.4276763             -11.6377
       114        2.0000           -0.4260765             -11.5941
       115        2.0000           -0.4222617             -11.4903
       116        2.0000           -0.4137811             -11.2596
       117        2.0000           -0.4118819             -11.2079
       118        2.0000           -0.4043797             -11.0037
       119        1.0000           -0.2800064              -7.6194 (HOMO)
       120                         -0.0445798              -1.2131 (LUMO)
       121                         -0.0215690              -0.5869
       122                         -0.0149920              -0.4080
       123                         -0.0064635              -0.1759
       124                          0.0084309               0.2294
       ...                                ...                  ...
       184                          0.4084083              11.1134
      -------------------------------------------------------------
                  HL-Gap            0.2354267 Eh            6.4063 eV
             Fermi-level           -0.2522431 Eh           -6.8639 eV

 SCC (total)                   0 d,  0 h,  0 min,  0.048 sec
 SCC setup                      ...        0 min,  0.000 sec (  0.814%)
 Dispersion                     ...        0 min,  0.001 sec (  1.717%)
 classical contributions        ...        0 min,  0.000 sec (  0.201%)
 integral evaluation            ...        0 min,  0.005 sec ( 11.148%)
 iterations                     ...        0 min,  0.020 sec ( 42.125%)
 molecular gradient             ...        0 min,  0.020 sec ( 42.689%)
 printout                       ...        0 min,  0.001 sec (  1.110%)

         :::::::::::::::::::::::::::::::::::::::::::::::::::::
         ::                     SUMMARY                     ::
         :::::::::::::::::::::::::::::::::::::::::::::::::::::
         :: total energy            -147.742507456429 Eh    ::
         :: gradient norm              0.000357126332 Eh/a0 ::
         :: HOMO-LUMO gap              6.406285465089 eV    ::
         ::.................................................::
         :: SCC energy              -148.749148985347 Eh    ::
         :: -> isotropic ES            0.792390697043 Eh    ::
         :: -> anisotropic ES         -0.141400942038 Eh    ::
         :: -> anisotropic XC         -0.007972503087 Eh    ::
         :: -> dispersion             -0.070876235231 Eh    ::
         :: repulsion energy           1.000437190811 Eh    ::
         :: add. restraining           0.000000000000 Eh    ::
         :: total charge               0.000000000000 e     ::
         :::::::::::::::::::::::::::::::::::::::::::::::::::::

           ------------------------------------------------- 
          |                Numerical Hessian                |
           ------------------------------------------------- 
step length          :   0.00500
SCC accuracy         :   0.30000
Hessian scale factor :   1.00000
frozen atoms in %    :   0.00000    0
RMS gradient         :   0.00036
estimated CPU  time     15.58 min
estimated wall time      1.57 min

writing file <hessian>.

 projected vibrational frequencies (cm⁻¹)
eigval :       -0.00    -0.00    -0.00     0.00     0.00     0.00
eigval :       20.25    22.47    27.55    32.69    35.65    37.89
eigval :       42.57    45.57    47.40    51.77    52.83    53.99
eigval :       55.63    56.25    59.67    60.58    61.27    64.64
eigval :       68.26    69.44    71.98    74.00    75.52    76.70
eigval :       78.50    81.94    83.49    85.57    86.81    90.23
eigval :       91.73    96.27   102.51   108.43   114.99   115.36
eigval :      115.90   126.77   134.50   136.23   140.32   143.89
eigval :      146.32   149.55   156.40   159.52   162.24   167.10
eigval :      169.30   177.77   178.21   179.42   190.36   195.16
eigval :      202.22   204.89   207.66   215.53   221.67   227.32
eigval :      230.67   231.72   235.88   238.16   244.65   246.43
eigval :      247.77   256.71   260.36   265.81   270.40   275.47
eigval :      280.05   284.06   288.29   292.93   303.20   310.01
eigval :      312.32   320.21   325.21   329.82   343.25   349.86
eigval :      352.49   355.28   360.91   367.62   369.73   377.10
eigval :      384.85   387.15   395.33   398.80   403.18   404.97
eigval :      414.80   424.04   429.65   441.33   447.13   448.99
eigval :      452.62   473.78   474.99   483.02   486.39   490.27
eigval :      493.51   498.40   503.67   509.01   511.97   513.54
eigval :      519.85   526.93   534.23   539.69   541.32   552.92
eigval :      558.98   563.62   568.54   578.26   580.72   582.00
eigval :      588.01   594.46   597.64   611.16   621.38   624.81
eigval :      629.90   633.13   637.20   639.40   652.33   661.34
eigval :      665.31   669.76   677.38   684.50   693.56   723.64
eigval :      727.61   731.02   742.67   760.08   764.16   785.96
eigval :      794.20   796.19   815.73   823.05   826.74   846.69
eigval :      865.11   883.09   903.62   918.74   920.70   935.04
eigval :      941.71   965.02   988.07  1017.71  1080.77  1094.99
eigval :     1127.87  1162.47  1228.96  1247.39  1272.45  1312.84
eigval :     1336.32  1383.52  1399.35  1435.90  1452.81  1473.80
eigval :     1480.30  1495.70  1512.89  1520.92  1522.27  1524.18
eigval :     1525.78  1527.19  1529.25  1533.21  1534.74  1535.49
eigval :     1537.19  1541.24  1542.54  1545.85  1548.12  1549.85
eigval :     1554.72  1555.38  1558.11  1560.59  1565.36  1568.03
eigval :     1569.89  1577.95  1583.10  2835.85  2862.07  2904.01
eigval :     2905.24  2965.56  2979.86  2983.06  2990.32  3052.42
eigval :     3054.13  3060.94  3069.42  3147.70  3157.47  3165.10
eigval :     3192.83  3212.54  3230.16  3257.97  3260.87  3276.79
eigval :     3283.76  3293.93  3300.14  3324.97  3354.96  3360.38
eigval :     3367.47  3372.91  3374.89  3377.41  3382.27  3393.93
eigval :     3403.32  3409.84  3410.45  3417.53  3422.49  3428.39
eigval :     3432.82  3434.21  3454.68  3465.06  3484.88  3509.48
eigval :     3511.13  3514.34  3527.32  3539.84  3547.36  3562.33
eigval :     3598.90  3657.29  3668.93  3670.13  3671.64  3673.31
eigval :     3673.57  3674.62  3682.91
           -------------------------------------------------
          |                Property Printout                |
           -------------------------------------------------

    * Orbital Energies and Occupations

         #    Occupation            Energy/Eh            Energy/eV
      -------------------------------------------------------------
         1        2.0000           -0.7012242             -19.0813
       ...           ...                  ...                  ...
       107        2.0000           -0.4335320             -11.7970
       108        2.0000           -0.4331812             -11.7875
       109        2.0000           -0.4328884             -11.7795
       110        2.0000           -0.4323563             -11.7650
       111        2.0000           -0.4310534             -11.7296
       112        2.0000           -0.4295995             -11.6900
       113        2.0000           -0.4276763             -11.6377
       114        2.0000           -0.4260765             -11.5941
       115        2.0000           -0.4222617             -11.4903
       116        2.0000           -0.4137811             -11.2596
       117        2.0000           -0.4118820             -11.2079
       118        2.0000           -0.4043797             -11.0037
       119        1.0000           -0.2800065              -7.6194 (HOMO)
       120                         -0.0445798              -1.2131 (LUMO)
       121                         -0.0215690              -0.5869
       122                         -0.0149920              -0.4080
       123                         -0.0064635              -0.1759
       124                          0.0084309               0.2294
       125                          0.0294906               0.8025
       126                          0.0392951               1.0693
       127                          0.0425349               1.1574
       128                          0.0499385               1.3589
       129                          0.0705216               1.9190
       130                          0.0815741               2.2197
       ...                                ...                  ...
       184                          0.4084083              11.1134
      -------------------------------------------------------------
                  HL-Gap            0.2354267 Eh            6.4063 eV
             Fermi-level           -0.2522431 Eh           -6.8639 eV

     #   Z          covCN         q      C6AA      α(0)
     1   6 C        3.680     0.036    20.178     6.434
     2   6 C        3.681     0.049    19.952     6.397
     3   6 C        3.751    -0.145    23.368     6.894
     4   6 C        2.815    -0.074    29.831     8.949
     5   1 H        0.924     0.086     1.915     2.164
     6   1 H        0.924     0.071     2.074     2.252
     7   1 H        0.925     0.051     2.307     2.375
     8   1 H        0.926     0.063     2.165     2.301
     9   1 H        0.924     0.050     2.314     2.379
    10   1 H        0.924     0.052     2.292     2.368
    11   1 H        0.925     0.049     2.327     2.385
    12   1 H        0.925     0.070     2.083     2.257
    13   8 O        1.691    -0.372    20.301     6.083
    14   7 N        2.634    -0.302    27.773     7.827
    15   1 H        0.860     0.215     1.034     1.593
    16   1 H        0.860     0.193     1.143     1.675
    17   8 O        1.608    -0.638    26.118     6.897
    18   1 H        0.804     0.307     0.701     1.315
    19   1 H        0.804     0.311     0.689     1.304
    20   8 O        1.608    -0.644    26.262     6.916
    21   1 H        0.804     0.323     0.656     1.273
    22   1 H        0.804     0.317     0.671     1.287
    23   8 O        1.608    -0.642    26.227     6.912
    24   1 H        0.803     0.334     0.626     1.243
    25   1 H        0.805     0.315     0.678     1.293
    26   8 O        1.608    -0.620    25.662     6.837
    27   1 H        0.806     0.280     0.784     1.391
    28   1 H        0.802     0.341     0.611     1.228
    29   8 O        1.610    -0.608    25.377     6.799
    30   1 H        0.806     0.277     0.794     1.399
    31   1 H        0.804     0.323     0.657     1.273
    32   8 O        1.609    -0.617    25.599     6.829
    33   1 H        0.803     0.338     0.616     1.233
    34   1 H        0.806     0.283     0.776     1.383
    35   8 O        1.606    -0.629    25.887     6.867
    36   1 H        0.806     0.284     0.771     1.379
    37   1 H        0.801     0.343     0.606     1.223
    38   8 O        1.604    -0.644    26.259     6.916
    39   1 H        0.806     0.279     0.788     1.394
    40   1 H        0.801     0.340     0.612     1.229
    41   8 O        1.605    -0.634    26.019     6.884
    42   1 H        0.806     0.285     0.769     1.377
    43   1 H        0.801     0.343     0.606     1.223
    44   8 O        1.608    -0.618    25.625     6.832
    45   1 H        0.803     0.337     0.619     1.236
    46   1 H        0.805     0.293     0.741     1.352
    47   8 O        1.609    -0.624    25.764     6.851
    48   1 H        0.805     0.313     0.683     1.298
    49   1 H        0.804     0.321     0.662     1.278
    50   8 O        1.609    -0.651    26.446     6.941
    51   1 H        0.803     0.329     0.641     1.258
    52   1 H        0.804     0.331     0.636     1.253
    53   8 O        1.608    -0.641    26.198     6.908
    54   1 H        0.803     0.321     0.662     1.279
    55   1 H        0.804     0.315     0.677     1.293
    56   8 O        1.608    -0.651    26.442     6.940
    57   1 H        0.804     0.303     0.713     1.326
    58   1 H        0.803     0.320     0.664     1.280
    59   8 O        1.609    -0.631    25.944     6.875
    60   1 H        0.805     0.316     0.674     1.289
    61   1 H        0.804     0.313     0.683     1.299
    62   8 O        1.605    -0.631    25.935     6.873
    63   1 H        0.801     0.346     0.597     1.214
    64   1 H        0.806     0.284     0.770     1.378
    65   8 O        1.607    -0.650    26.421     6.937
    66   1 H        0.803     0.321     0.662     1.278
    67   1 H        0.804     0.313     0.683     1.298
    68   8 O        1.610    -0.629    25.901     6.869
    69   1 H        0.804     0.317     0.673     1.289
    70   1 H        0.804     0.327     0.644     1.261
    71   8 O        1.605    -0.653    26.495     6.947
    72   1 H        0.804     0.318     0.669     1.285
    73   1 H        0.803     0.323     0.655     1.272
    74   8 O        1.609    -0.631    25.950     6.875
    75   1 H        0.804     0.313     0.683     1.298
    76   1 H        0.805     0.302     0.716     1.329
    77   8 O        1.606    -0.665    26.810     6.988
    78   1 H        0.802     0.331     0.635     1.252
    79   1 H        0.803     0.321     0.662     1.278
    80   8 O        1.609    -0.644    26.264     6.917
    81   1 H        0.804     0.319     0.667     1.282
    82   1 H        0.803     0.320     0.663     1.279
    83   8 O        1.609    -0.624    25.779     6.853
    84   1 H        0.805     0.312     0.687     1.302
    85   1 H        0.805     0.307     0.699     1.314
    86   8 O        1.608    -0.643    26.229     6.912
    87   1 H        0.803     0.323     0.656     1.273
    88   1 H        0.805     0.313     0.682     1.298
    89   8 O        1.610    -0.601    25.214     6.777
    90   1 H        0.805     0.318     0.669     1.285
    91   1 H        0.805     0.307     0.701     1.315

 Mol. C6AA /au·bohr⁶  :      44475.961874
 Mol. C8AA /au·bohr⁸  :     828229.031690
 Mol. α(0) /au        :        301.148584


Wiberg/Mayer (AO) data.
largest (>0.10) Wiberg bond orders for each atom

 ---------------------------------------------------------------------------
     #   Z sym  total        # sym  WBO       # sym  WBO       # sym  WBO
 ---------------------------------------------------------------------------
     1   6 C    3.930 --     4 C    1.074     9 H    0.959     5 H    0.941
                            13 O    0.898
     2   6 C    3.937 --     3 C    1.014    10 H    0.963    13 O    0.962
                             6 H    0.957
     3   6 C    3.989 --     2 C    1.014     7 H    0.984    11 H    0.982
                            12 H    0.971
     4   6 C    3.235 --    14 N    1.155     1 C    1.074     8 H    0.961
     5   1 H    0.974 --     1 C    0.941
     6   1 H    0.993 --     2 C    0.957
     7   1 H    0.997 --     3 C    0.984
     8   1 H    0.996 --     4 C    0.961
     9   1 H    0.995 --     1 C    0.959
    10   1 H    0.996 --     2 C    0.963
    11   1 H    0.997 --     3 C    0.982
    12   1 H    0.995 --     3 C    0.971
    13   8 O    2.061 --     2 C    0.962     1 C    0.898
    14   7 N    3.149 --     4 C    1.155    16 H    0.929    15 H    0.903
    15   1 H    0.941 --    14 N    0.903
    16   1 H    0.956 --    14 N    0.929
    17   8 O    1.845 --    18 H    0.862    19 H    0.862
    18   1 H    0.906 --    17 O    0.862
    19   1 H    0.903 --    17 O    0.862
    20   8 O    1.857 --    21 H    0.858    22 H    0.849
    21   1 H    0.896 --    20 O    0.858
    22   1 H    0.899 --    20 O    0.849
    23   8 O    1.867 --    25 H    0.866    24 H    0.832
    24   1 H    0.888 --    23 O    0.832
    25   1 H    0.901 --    23 O    0.866
    26   8 O    1.858 --    27 H    0.917    28 H    0.820
    27   1 H    0.921 --    26 O    0.917
    28   1 H    0.884 --    26 O    0.820
    29   8 O    1.830 --    30 H    0.919    31 H    0.858
    30   1 H    0.923 --    29 O    0.919
    31   1 H    0.896 --    29 O    0.858
    32   8 O    1.855 --    34 H    0.916    33 H    0.830
    33   1 H    0.885 --    32 O    0.830
    34   1 H    0.920 --    32 O    0.916
    35   8 O    1.872 --    36 H    0.915    37 H    0.793
    36   1 H    0.919 --    35 O    0.915
    37   1 H    0.882 --    35 O    0.793
    38   8 O    1.847 --    39 H    0.912    40 H    0.777
    39   1 H    0.922 --    38 O    0.912
    40   1 H    0.884 --    38 O    0.777    50 O    0.104
    41   8 O    1.875 --    42 H    0.914    43 H    0.781
    42   1 H    0.919 --    41 O    0.914
    43   1 H    0.882 --    41 O    0.781
    44   8 O    1.878 --    46 H    0.911    45 H    0.822
    45   1 H    0.886 --    44 O    0.822
    46   1 H    0.914 --    44 O    0.911
    47   8 O    1.857 --    48 H    0.881    49 H    0.858
    48   1 H    0.902 --    47 O    0.881
    49   1 H    0.897 --    47 O    0.858
    50   8 O    1.883 --    52 H    0.842    51 H    0.828    40 H    0.104
    51   1 H    0.892 --    50 O    0.828
    52   1 H    0.891 --    50 O    0.842
    53   8 O    1.870 --    55 H    0.859    54 H    0.839
    54   1 H    0.897 --    53 O    0.839
    55   1 H    0.901 --    53 O    0.859
    56   8 O    1.822 --    57 H    0.870    58 H    0.836
    57   1 H    0.908 --    56 O    0.870
    58   1 H    0.898 --    56 O    0.836
    59   8 O    1.857 --    60 H    0.874    61 H    0.856
    60   1 H    0.900 --    59 O    0.874
    61   1 H    0.902 --    59 O    0.856
    62   8 O    1.882 --    64 H    0.915    63 H    0.780
    63   1 H    0.880 --    62 O    0.780
    64   1 H    0.919 --    62 O    0.915
    65   8 O    1.843 --    67 H    0.858    66 H    0.842
    66   1 H    0.897 --    65 O    0.842
    67   1 H    0.902 --    65 O    0.858
    68   8 O    1.888 --    69 H    0.856    70 H    0.852
    69   1 H    0.900 --    68 O    0.856
    70   1 H    0.893 --    68 O    0.852
    71   8 O    1.875 --    73 H    0.848    72 H    0.814
    72   1 H    0.896 --    71 O    0.814
    73   1 H    0.895 --    71 O    0.848
    74   8 O    1.829 --    76 H    0.886    75 H    0.857
    75   1 H    0.902 --    74 O    0.857
    76   1 H    0.909 --    74 O    0.886
    77   8 O    1.847 --    79 H    0.841    78 H    0.822
    78   1 H    0.890 --    77 O    0.822
    79   1 H    0.897 --    77 O    0.841
    80   8 O    1.879 --    81 H    0.844    82 H    0.840
    81   1 H    0.898 --    80 O    0.844
    82   1 H    0.897 --    80 O    0.840
    83   8 O    1.837 --    85 H    0.879    84 H    0.874
    84   1 H    0.903 --    83 O    0.874
    85   1 H    0.906 --    83 O    0.879
    86   8 O    1.853 --    88 H    0.873    87 H    0.836
    87   1 H    0.896 --    86 O    0.836
    88   1 H    0.902 --    86 O    0.873
    89   8 O    1.868 --    91 H    0.897    90 H    0.882
    90   1 H    0.899 --    89 O    0.882
    91   1 H    0.906 --    89 O    0.897
 ---------------------------------------------------------------------------

Topologies differ in total number of bonds
Writing topology from bond orders to xtbtopo.mol

molecular dipole:
                 x           y           z       tot (Debye)
 q only:       -0.175       0.319      -0.149
   full:       -0.250       0.252       0.028       0.905
molecular quadrupole (traceless):
                xx          xy          yy          xz          yz          zz
 q only:      -12.288       4.663      -2.511       4.849       9.480      14.798
  q+dip:      -16.729       5.390      -0.978       8.289      14.951      17.707
   full:      -17.145       5.772      -1.700       8.771      14.579      18.845

           -------------------------------------------------
          |                Geometry Summary                 |
           -------------------------------------------------

      molecular mass/u    :      538.5106197
   center of mass at/Å    :        0.0012234       0.0048302       0.0521461
  moments of inertia/u·Å² :        0.5092422E+04   0.6362161E+04   0.7189029E+04
rotational constants/cm⁻¹ :        0.3310337E-02   0.2649671E-02   0.2344911E-02

 * 63 selected distances

     #   Z          #   Z                                           value/Å
     2   6 C        3   6 C                                       1.5227175 (max)
     1   6 C        4   6 C                                       1.4614273
     1   6 C        5   1 H                                       1.0915464
     2   6 C        6   1 H                                       1.0912338
     3   6 C        7   1 H                                       1.0861496
     4   6 C        8   1 H                                       1.0718261
     1   6 C        9   1 H                                       1.0969221
     2   6 C       10   1 H                                       1.0914392
     3   6 C       11   1 H                                       1.0854251
     3   6 C       12   1 H                                       1.0850377
     2   6 C       13   8 O                                       1.4245875
     4   6 C       14   7 N                                       1.3940671
    14   7 N       15   1 H                                       1.0132166
    14   7 N       16   1 H                                       1.0139298
    17   8 O       18   1 H                                       0.9701021
    17   8 O       19   1 H                                       0.9715535
    20   8 O       21   1 H                                       0.9714990
    20   8 O       22   1 H                                       0.9727558
    23   8 O       24   1 H                                       0.9785538
    23   8 O       25   1 H                                       0.9668099
    26   8 O       27   1 H                                       0.9578788
    26   8 O       28   1 H                                       0.9850736
    29   8 O       30   1 H                                       0.9570395 (min)
    29   8 O       31   1 H                                       0.9710494
    32   8 O       33   1 H                                       0.9796228
    32   8 O       34   1 H                                       0.9577864
    35   8 O       36   1 H                                       0.9581446
    35   8 O       37   1 H                                       0.9950621
    38   8 O       39   1 H                                       0.9575540
    41   8 O       42   1 H                                       0.9581041
    41   8 O       43   1 H                                       0.9999503
    44   8 O       45   1 H                                       0.9813448
    44   8 O       46   1 H                                       0.9589549
    47   8 O       48   1 H                                       0.9658765
    47   8 O       49   1 H                                       0.9712517
    50   8 O       51   1 H                                       0.9807819
    50   8 O       52   1 H                                       0.9754449
    53   8 O       54   1 H                                       0.9781640
    53   8 O       55   1 H                                       0.9715497
    56   8 O       57   1 H                                       0.9692520
    56   8 O       58   1 H                                       0.9767895
    59   8 O       60   1 H                                       0.9670585
    59   8 O       61   1 H                                       0.9722849
    62   8 O       63   1 H                                       0.9995095
    62   8 O       64   1 H                                       0.9577690
    65   8 O       66   1 H                                       0.9768879
    65   8 O       67   1 H                                       0.9728458
    68   8 O       69   1 H                                       0.9716835
    68   8 O       70   1 H                                       0.9726208
    71   8 O       72   1 H                                       0.9868357
    71   8 O       73   1 H                                       0.9757235
    74   8 O       75   1 H                                       0.9720629
    74   8 O       76   1 H                                       0.9632261
    77   8 O       78   1 H                                       0.9834930
    77   8 O       79   1 H                                       0.9764614
    80   8 O       81   1 H                                       0.9753784
    80   8 O       82   1 H                                       0.9761684
    83   8 O       84   1 H                                       0.9671930
    83   8 O       85   1 H                                       0.9669311
    86   8 O       87   1 H                                       0.9788442
    86   8 O       88   1 H                                       0.9664372
    89   8 O       90   1 H                                       0.9654104
    89   8 O       91   1 H                                       0.9625647

 * 6 distinct bonds (by element types)

   Z      Z             #   av. dist./Å        max./Å        min./Å
   1 H    6 C           8     1.0874475     1.0969221     1.0718261
   6 C    6 C           2     1.4920724     1.5227175     1.4614273
   1 H    7 N           2     1.0135732     1.0139298     1.0132166
   6 C    7 N           1     1.3940671     1.3940671     1.3940671
   1 H    8 O          49     0.9723539     0.9999503     0.9570395
   6 C    8 O           1     1.4245875     1.4245875     1.4245875

           -------------------------------------------------
          |               Frequency Printout                |
           -------------------------------------------------
 projected vibrational frequencies (cm⁻¹)
eigval :       -0.00    -0.00    -0.00     0.00     0.00     0.00
eigval :       20.25    22.47    27.55    32.69    35.65    37.89
eigval :       42.57    45.57    47.40    51.77    52.83    53.99
eigval :       55.63    56.25    59.67    60.58    61.27    64.64
eigval :       68.26    69.44    71.98    74.00    75.52    76.70
eigval :       78.50    81.94    83.49    85.57    86.81    90.23
eigval :       91.73    96.27   102.51   108.43   114.99   115.36
eigval :      115.90   126.77   134.50   136.23   140.32   143.89
eigval :      146.32   149.55   156.40   159.52   162.24   167.10
eigval :      169.30   177.77   178.21   179.42   190.36   195.16
eigval :      202.22   204.89   207.66   215.53   221.67   227.32
eigval :      230.67   231.72   235.88   238.16   244.65   246.43
eigval :      247.77   256.71   260.36   265.81   270.40   275.47
eigval :      280.05   284.06   288.29   292.93   303.20   310.01
eigval :      312.32   320.21   325.21   329.82   343.25   349.86
eigval :      352.49   355.28   360.91   367.62   369.73   377.10
eigval :      384.85   387.15   395.33   398.80   403.18   404.97
eigval :      414.80   424.04   429.65   441.33   447.13   448.99
eigval :      452.62   473.78   474.99   483.02   486.39   490.27
eigval :      493.51   498.40   503.67   509.01   511.97   513.54
eigval :      519.85   526.93   534.23   539.69   541.32   552.92
eigval :      558.98   563.62   568.54   578.26   580.72   582.00
eigval :      588.01   594.46   597.64   611.16   621.38   624.81
eigval :      629.90   633.13   637.20   639.40   652.33   661.34
eigval :      665.31   669.76   677.38   684.50   693.56   723.64
eigval :      727.61   731.02   742.67   760.08   764.16   785.96
eigval :      794.20   796.19   815.73   823.05   826.74   846.69
eigval :      865.11   883.09   903.62   918.74   920.70   935.04
eigval :      941.71   965.02   988.07  1017.71  1080.77  1094.99
eigval :     1127.87  1162.47  1228.96  1247.39  1272.45  1312.84
eigval :     1336.32  1383.52  1399.35  1435.90  1452.81  1473.80
eigval :     1480.30  1495.70  1512.89  1520.92  1522.27  1524.18
eigval :     1525.78  1527.19  1529.25  1533.21  1534.74  1535.49
eigval :     1537.19  1541.24  1542.54  1545.85  1548.12  1549.85
eigval :     1554.72  1555.38  1558.11  1560.59  1565.36  1568.03
eigval :     1569.89  1577.95  1583.10  2835.85  2862.07  2904.01
eigval :     2905.24  2965.56  2979.86  2983.06  2990.32  3052.42
eigval :     3054.13  3060.94  3069.42  3147.70  3157.47  3165.10
eigval :     3192.83  3212.54  3230.16  3257.97  3260.87  3276.79
eigval :     3283.76  3293.93  3300.14  3324.97  3354.96  3360.38
eigval :     3367.47  3372.91  3374.89  3377.41  3382.27  3393.93
eigval :     3403.32  3409.84  3410.45  3417.53  3422.49  3428.39
eigval :     3432.82  3434.21  3454.68  3465.06  3484.88  3509.48
eigval :     3511.13  3514.34  3527.32  3539.84  3547.36  3562.33
eigval :     3598.90  3657.29  3668.93  3670.13  3671.64  3673.31
eigval :     3673.57  3674.62  3682.91
 reduced masses (amu)
   1: 14.12   2: 14.05   3: 14.06   4: 14.03   5: 14.08   6: 13.91   7: 13.89   8: 14.04
   9: 14.28  10: 13.46  11: 14.05  12: 13.82  13: 14.18  14: 13.93  15: 14.08  16: 13.92
  17: 14.05  18: 14.37  19: 14.25  20: 13.83  21: 14.36  22: 14.07  23: 14.22  24: 14.25
  25: 14.25  26: 14.18  27: 14.24  28: 13.01  29: 13.87  30: 14.29  31: 14.11  32: 14.29
  33: 13.21  34: 13.27  35: 14.16  36: 14.11  37: 13.94  38: 13.61  39: 13.38  40: 11.56
  41:  5.08  42: 12.82  43: 13.70  44: 12.73  45: 14.11  46: 13.61  47: 12.85  48: 13.80
  49: 13.72  50: 13.69  51: 12.41  52: 11.34  53: 13.65  54: 13.39  55: 13.45  56: 12.43
  57: 13.62  58: 13.28  59: 13.55  60: 12.55  61: 13.30  62: 12.77  63: 13.24  64: 12.78
  65: 12.44  66: 13.03  67: 12.44  68: 13.41  69: 12.64  70:  9.77  71: 11.05  72: 10.42
  73: 11.31  74:  8.12  75:  6.82  76:  5.68  77: 10.90  78: 12.64  79:  5.39  80: 11.48
  81: 11.76  82: 12.96  83: 10.52  84:  5.44  85: 10.05  86:  8.11  87:  9.51  88: 11.22
  89:  4.57  90:  4.96  91:  7.15  92:  8.83  93:  6.09  94: 11.38  95: 13.06  96:  3.47
  97:  2.47  98: 11.06  99:  2.68 100: 12.28 101:  2.68 102:  4.16 103:  7.90 104:  2.71
 105:  3.79 106:  2.67 107:  3.11 108:  2.32 109:  4.61 110:  1.69 111:  1.64 112:  1.87
 113:  1.67 114:  1.79 115:  1.88 116:  1.77 117:  1.66 118:  1.91 119:  1.92 120:  1.93
 121:  1.85 122:  2.91 123:  4.52 124:  4.65 125:  3.07 126:  1.71 127:  2.42 128:  1.68
 129:  2.05 130:  1.48 131:  1.56 132:  1.84 133:  1.64 134:  1.98 135:  1.56 136:  1.71
 137:  1.60 138:  1.65 139:  1.70 140:  1.76 141:  1.65 142:  1.77 143:  1.96 144:  2.04
 145:  1.91 146:  1.81 147:  1.76 148:  1.69 149:  1.94 150:  2.19 151:  2.11 152:  2.29
 153:  2.14 154:  2.31 155:  2.49 156:  4.50 157:  3.66 158:  3.16 159:  2.29 160:  2.43
 161:  2.41 162:  4.67 163:  2.17 164:  2.42 165:  2.54 166:  6.42 167:  2.98 168:  3.82
 169:  2.74 170:  4.40 171:  4.86 172:  4.98 173:  9.03 174:  8.15 175:  4.48 176:  6.01
 177:  3.80 178:  4.34 179:  2.54 180:  2.53 181:  3.13 182:  6.04 183:  3.14 184:  3.82
 185:  1.90 186:  3.90 187:  2.04 188:  1.65 189:  2.07 190:  1.99 191:  1.99 192:  2.04
 193:  2.07 194:  2.05 195:  2.08 196:  2.06 197:  2.02 198:  2.02 199:  2.06 200:  2.04
 201:  2.03 202:  2.10 203:  2.02 204:  2.09 205:  2.07 206:  2.11 207:  2.09 208:  2.09
 209:  2.12 210:  2.08 211:  2.06 212:  2.16 213:  2.01 214:  1.89 215:  1.88 216:  1.87
 217:  1.68 218:  1.86 219:  1.78 220:  1.82 221:  1.61 222:  1.97 223:  1.73 224:  1.67
 225:  1.78 226:  1.89 227:  1.99 228:  1.82 229:  1.97 230:  1.99 231:  1.91 232:  1.98
 233:  1.98 234:  1.96 235:  2.09 236:  2.01 237:  1.92 238:  1.75 239:  2.04 240:  1.89
 241:  1.86 242:  1.69 243:  1.80 244:  1.84 245:  1.57 246:  2.02 247:  1.88 248:  1.94
 249:  1.76 250:  1.75 251:  1.74 252:  1.93 253:  1.83 254:  1.61 255:  1.62 256:  1.73
 257:  2.11 258:  1.76 259:  1.80 260:  1.74 261:  1.59 262:  1.74 263:  1.94 264:  1.79
 265:  1.73 266:  1.83 267:  1.83 268:  1.84 269:  1.84 270:  1.83 271:  1.83 272:  1.84
 273:  1.84
 IR intensities (km·mol⁻¹)
   1:  0.00   2:  0.01   3:  0.00   4:  0.00   5:  0.01   6:  0.01   7:  0.29   8:  2.28
   9:  1.13  10:  1.51  11:  1.36  12:  0.81  13:  0.78  14:  0.22  15:  0.86  16:  0.21
  17:  3.70  18:  0.95  19:  3.37  20:  2.55  21:  0.47  22:  1.12  23:  0.58  24:  2.49
  25:  2.14  26:  0.90  27:  2.12  28:  3.87  29:  1.35  30:  1.26  31:  0.92  32:  0.63
  33:  0.95  34:  0.77  35:  3.06  36:  2.81  37:  1.49  38:  1.98  39:  6.00  40:  5.28
  41: 64.73  42:  6.77  43:  2.73  44: 11.89  45:  2.07  46: 20.46  47:  2.05  48:  1.70
  49:  4.84  50:  7.96  51: 15.12  52:  2.14  53:  7.99  54:  9.97  55:  4.23  56:  0.79
  57:  7.66  58:  1.15  59:  7.21  60:  1.77  61:  1.37  62:  2.28  63:  2.33  64: 18.37
  65:  7.99  66:  2.64  67:  5.06  68: 13.69  69: 11.83  70:  5.83  71: 41.54  72: 37.80
  73: 15.71  74:  2.71  75: 70.80  76:  4.23  77:  9.65  78: 46.54  79: 43.26  80: 25.04
  81: 13.38  82: 47.57  83:  1.90  84: 13.30  85:  9.84  86: 84.33  87: 21.10  88: 36.15
  89:118.50  90:206.82  91:  4.28  92: 17.54  93: 30.70  94:  0.96  95:  5.72  96: 53.89
  97: 17.36  98: 11.84  99: 13.86 100: 18.14 101:176.61 102:  2.98 103: 13.34 104: 30.60
 105: 16.13 106: 80.78 107: 25.81 108: 11.45 109: 18.79 110: 74.27 111: 57.94 112:  3.36
 113: 13.49 114: 70.04 115: 15.83 116: 56.40 117: 50.48 118: 41.08 119:  7.62 120: 46.29
 121: 39.89 122: 80.91 123: 39.85 124:138.60 125: 44.32 126: 45.38 127: 36.67 128:  9.51
 129:108.31 130:  8.95 131: 43.11 132:158.49 133:  2.44 134:169.64 135: 12.46 136: 54.65
 137: 17.63 138: 93.87 139:100.27 140:149.94 141:152.14 142:  2.66 143: 94.79 144:243.18
 145:155.87 146: 45.39 147: 45.00 148:335.59 149:121.05 150:532.66 151:155.72 152:983.38
 153:836.45 154:408.82 155: 73.53 156: 74.15 157:869.76 158:348.62 159:648.69 160:595.74
 161:526.68 162: 55.02 163:577.66 164: 69.88 165: 31.45 166: 33.04 167:232.40 168: 43.58
 169: 26.65 170: 40.88 171:160.00 172:107.51 173:101.39 174:  7.28 175: 17.04 176:  6.23
 177:  0.62 178:  9.17 179:  6.81 180:  5.16 181:  8.51 182:  8.15 183: 14.60 184: 26.50
 185:  3.84 186: 20.93 187: 30.14 188: 20.46 189:118.76 190: 40.39 191: 26.74 192: 94.50
 193: 29.82 194:208.70 195:408.05 196:155.91 197:243.09 198:357.50 199:155.46 200:231.26
 201:115.20 202:623.01 203:137.91 204:237.21 205: 87.26 206: 61.33 207:422.94 208:465.59
 209:236.72 210:199.07 211: 25.46 212:251.34 213: 48.98 214:****** 215:470.34 216:******
 217: 85.32 218:****** 219:298.83 220:118.02 221:  0.46 222:254.95 223:152.09 224:137.58
 225: 12.71 226:499.57 227:708.89 228:  0.13 229:821.69 230:****** 231:542.31 232: 83.14
 233:631.06 234:723.45 235:276.85 236:862.07 237:****** 238:726.38 239:990.43 240:484.05
 241: 85.79 242:347.65 243:266.13 244:300.62 245:347.27 246:236.70 247:152.54 248:239.05
 249:210.05 250:668.83 251: 51.13 252:418.67 253:162.21 254:273.17 255:220.71 256:257.47
 257:178.60 258:124.04 259:296.77 260: 56.76 261:118.04 262:102.77 263:114.33 264: 88.99
 265: 43.80 266: 19.60 267:  9.49 268:  9.74 269:  8.35 270:  9.64 271: 13.92 272: 13.59
 273: 10.02
 Raman intensities (amu)
   1:  0.00   2:  0.00   3:  0.00   4:  0.00   5:  0.00   6:  0.00   7:  0.00   8:  0.00
   9:  0.00  10:  0.00  11:  0.00  12:  0.00  13:  0.00  14:  0.00  15:  0.00  16:  0.00
  17:  0.00  18:  0.00  19:  0.00  20:  0.00  21:  0.00  22:  0.00  23:  0.00  24:  0.00
  25:  0.00  26:  0.00  27:  0.00  28:  0.00  29:  0.00  30:  0.00  31:  0.00  32:  0.00
  33:  0.00  34:  0.00  35:  0.00  36:  0.00  37:  0.00  38:  0.00  39:  0.00  40:  0.00
  41:  0.00  42:  0.00  43:  0.00  44:  0.00  45:  0.00  46:  0.00  47:  0.00  48:  0.00
  49:  0.00  50:  0.00  51:  0.00  52:  0.00  53:  0.00  54:  0.00  55:  0.00  56:  0.00
  57:  0.00  58:  0.00  59:  0.00  60:  0.00  61:  0.00  62:  0.00  63:  0.00  64:  0.00
  65:  0.00  66:  0.00  67:  0.00  68:  0.00  69:  0.00  70:  0.00  71:  0.00  72:  0.00
  73:  0.00  74:  0.00  75:  0.00  76:  0.00  77:  0.00  78:  0.00  79:  0.00  80:  0.00
  81:  0.00  82:  0.00  83:  0.00  84:  0.00  85:  0.00  86:  0.00  87:  0.00  88:  0.00
  89:  0.00  90:  0.00  91:  0.00  92:  0.00  93:  0.00  94:  0.00  95:  0.00  96:  0.00
  97:  0.00  98:  0.00  99:  0.00 100:  0.00 101:  0.00 102:  0.00 103:  0.00 104:  0.00
 105:  0.00 106:  0.00 107:  0.00 108:  0.00 109:  0.00 110:  0.00 111:  0.00 112:  0.00
 113:  0.00 114:  0.00 115:  0.00 116:  0.00 117:  0.00 118:  0.00 119:  0.00 120:  0.00
 121:  0.00 122:  0.00 123:  0.00 124:  0.00 125:  0.00 126:  0.00 127:  0.00 128:  0.00
 129:  0.00 130:  0.00 131:  0.00 132:  0.00 133:  0.00 134:  0.00 135:  0.00 136:  0.00
 137:  0.00 138:  0.00 139:  0.00 140:  0.00 141:  0.00 142:  0.00 143:  0.00 144:  0.00
 145:  0.00 146:  0.00 147:  0.00 148:  0.00 149:  0.00 150:  0.00 151:  0.00 152:  0.00
 153:  0.00 154:  0.00 155:  0.00 156:  0.00 157:  0.00 158:  0.00 159:  0.00 160:  0.00
 161:  0.00 162:  0.00 163:  0.00 164:  0.00 165:  0.00 166:  0.00 167:  0.00 168:  0.00
 169:  0.00 170:  0.00 171:  0.00 172:  0.00 173:  0.00 174:  0.00 175:  0.00 176:  0.00
 177:  0.00 178:  0.00 179:  0.00 180:  0.00 181:  0.00 182:  0.00 183:  0.00 184:  0.00
 185:  0.00 186:  0.00 187:  0.00 188:  0.00 189:  0.00 190:  0.00 191:  0.00 192:  0.00
 193:  0.00 194:  0.00 195:  0.00 196:  0.00 197:  0.00 198:  0.00 199:  0.00 200:  0.00
 201:  0.00 202:  0.00 203:  0.00 204:  0.00 205:  0.00 206:  0.00 207:  0.00 208:  0.00
 209:  0.00 210:  0.00 211:  0.00 212:  0.00 213:  0.00 214:  0.00 215:  0.00 216:  0.00
 217:  0.00 218:  0.00 219:  0.00 220:  0.00 221:  0.00 222:  0.00 223:  0.00 224:  0.00
 225:  0.00 226:  0.00 227:  0.00 228:  0.00 229:  0.00 230:  0.00 231:  0.00 232:  0.00
 233:  0.00 234:  0.00 235:  0.00 236:  0.00 237:  0.00 238:  0.00 239:  0.00 240:  0.00
 241:  0.00 242:  0.00 243:  0.00 244:  0.00 245:  0.00 246:  0.00 247:  0.00 248:  0.00
 249:  0.00 250:  0.00 251:  0.00 252:  0.00 253:  0.00 254:  0.00 255:  0.00 256:  0.00
 257:  0.00 258:  0.00 259:  0.00 260:  0.00 261:  0.00 262:  0.00 263:  0.00 264:  0.00
 265:  0.00 266:  0.00 267:  0.00 268:  0.00 269:  0.00 270:  0.00 271:  0.00 272:  0.00
 273:  0.00
 output can be read by thermo (or use thermo option).
 writing <g98.out> molden fake output.
 recommended (thermochemical) frequency scaling factor: 1.0
           -------------------------------------------------
          |             Thermodynamic Functions             |
           -------------------------------------------------

Molecule has no symmetry elements
It seems to be the C1 point group
c1  symmetry found (for desy threshold:  0.10E+00) used in thermo

          ...................................................
          :                      SETUP                      :
          :.................................................:
          :  # frequencies                         267      :
          :  # imaginary freq.                       0      :
          :  linear?                             false      :
          :  only rotor calc.                    false      :
          :  symmetry                               c1      :
          :  rotational number                       1      :
          :  scaling factor                  1.0000000      :
          :  rotor cutoff                   50.0000000 cm⁻¹ :
          :  imag. cutoff                  -20.0000000 cm⁻¹ :
          :.................................................:

    mode    ω/cm⁻¹     T·S(HO)/kcal·mol⁻¹    T·S(FR)/kcal·mol⁻¹   T·S(vib)
   ------------------------------------------------------------------------
       1     20.25    -1.97074 (  2.62%)    -1.32433 ( 97.38%)    -1.34125
       2     22.47    -1.90906 (  3.92%)    -1.29347 ( 96.08%)    -1.31759
       3     27.55    -1.78836 (  8.44%)    -1.23305 ( 91.56%)    -1.27994
       4     32.69    -1.68730 ( 15.45%)    -1.18244 ( 84.55%)    -1.26041
       5     35.65    -1.63596 ( 20.54%)    -1.15671 ( 79.46%)    -1.25516
       6     37.89    -1.60006 ( 24.79%)    -1.13871 ( 75.21%)    -1.25309
       7     42.57    -1.53129 ( 34.44%)    -1.10422 ( 65.56%)    -1.25129
       8     45.57    -1.49101 ( 40.83%)    -1.08401 ( 59.17%)    -1.25019
       9     47.40    -1.46779 ( 44.68%)    -1.07235 ( 55.32%)    -1.24904
      10     51.77    -1.41581 ( 53.47%)    -1.04624 ( 46.53%)    -1.24385
      11     52.83    -1.40390 ( 55.47%)    -1.04025 ( 44.53%)    -1.24199
      12     53.99    -1.39102 ( 57.62%)    -1.03378 ( 42.38%)    -1.23963
      13     55.63    -1.37344 ( 60.51%)    -1.02494 ( 39.49%)    -1.23581
      14     56.25    -1.36685 ( 61.57%)    -1.02162 ( 38.43%)    -1.23419
      15     59.67    -1.33214 ( 66.98%)    -1.00415 ( 33.02%)    -1.22384
      16     60.58    -1.32326 ( 68.30%)    -0.99968 ( 31.70%)    -1.22069
      17     61.27    -1.31655 ( 69.28%)    -0.99630 ( 30.72%)    -1.21818
      18     64.64    -1.28515 ( 73.63%)    -0.98048 ( 26.37%)    -1.20481
      19     68.26    -1.25306 ( 77.65%)    -0.96430 ( 22.35%)    -1.18852
      20     69.44    -1.24301 ( 78.82%)    -0.95923 ( 21.18%)    -1.18289
      21     71.98    -1.22196 ( 81.11%)    -0.94860 ( 18.89%)    -1.17033
      22     74.00    -1.20570 ( 82.75%)    -0.94039 ( 17.25%)    -1.15995
      23     75.52    -1.19382 ( 83.88%)    -0.93438 ( 16.12%)    -1.15200
      24     76.70    -1.18470 ( 84.71%)    -0.92977 ( 15.29%)    -1.14571
      25     78.50    -1.17111 ( 85.87%)    -0.92290 ( 14.13%)    -1.13604
      26     81.94    -1.14607 ( 87.82%)    -0.91022 ( 12.18%)    -1.11735
      27     83.49    -1.13511 ( 88.60%)    -0.90467 ( 11.40%)    -1.10884
      28     85.57    -1.12074 ( 89.56%)    -0.89738 ( 10.44%)    -1.09741
      29     86.81    -1.11230 ( 90.09%)    -0.89310 (  9.91%)    -1.09057
      30     90.23    -1.08973 ( 91.38%)    -0.88165 (  8.62%)    -1.07181
      31     91.73    -1.08013 ( 91.89%)    -0.87677 (  8.11%)    -1.06364
      32     96.27    -1.05199 ( 93.22%)    -0.86245 (  6.78%)    -1.03914
      33    102.51    -1.01552 ( 94.64%)    -0.84387 (  5.36%)    -1.00633
      34    108.43    -0.98295 ( 95.67%)    -0.82723 (  4.33%)    -0.97621
      35    114.99    -0.94898 ( 96.55%)    -0.80983 (  3.45%)    -0.94418
      36    115.36    -0.94712 ( 96.59%)    -0.80887 (  3.41%)    -0.94240
      37    115.90    -0.94443 ( 96.65%)    -0.80750 (  3.35%)    -0.93985
      38    126.77    -0.89278 ( 97.64%)    -0.78093 (  2.36%)    -0.89014
      39    134.50    -0.85888 ( 98.13%)    -0.76341 (  1.87%)    -0.85710
      40    136.23    -0.85155 ( 98.22%)    -0.75961 (  1.78%)    -0.84991
      41    140.32    -0.83466 ( 98.41%)    -0.75085 (  1.59%)    -0.83333
      42    143.89    -0.82038 ( 98.56%)    -0.74342 (  1.44%)    -0.81927
      43    146.32    -0.81082 ( 98.65%)    -0.73844 (  1.35%)    -0.80984
      44    149.55    -0.79841 ( 98.77%)    -0.73197 (  1.23%)    -0.79759
      45    156.40    -0.77306 ( 98.97%)    -0.71871 (  1.03%)    -0.77250
      46    159.52    -0.76190 ( 99.04%)    -0.71285 (  0.96%)    -0.76143
      47    162.24    -0.75240 ( 99.11%)    -0.70786 (  0.89%)    -0.75200
      48    167.10    -0.73578 ( 99.20%)    -0.69911 (  0.80%)    -0.73549
      49    169.30    -0.72845 ( 99.24%)    -0.69524 (  0.76%)    -0.72820
      50    177.77    -0.70116 ( 99.38%)    -0.68077 (  0.62%)    -0.70103
      51    178.21    -0.69979 ( 99.38%)    -0.68004 (  0.62%)    -0.69967
      52    179.42    -0.69603 ( 99.40%)    -0.67804 (  0.60%)    -0.69592
      53    190.36    -0.66317 ( 99.53%)    -0.66050 (  0.47%)    -0.66316
      54    195.16    -0.64944 ( 99.57%)    -0.65312 (  0.43%)    -0.64945
      55    202.22    -0.62992 ( 99.63%)    -0.64259 (  0.37%)    -0.62997
      56    204.89    -0.62276 ( 99.65%)    -0.63871 (  0.35%)    -0.62281
      57    207.66    -0.61542 ( 99.67%)    -0.63473 (  0.33%)    -0.61548
      58    215.53    -0.59520 ( 99.71%)    -0.62371 (  0.29%)    -0.59529
      59    221.67    -0.58003 ( 99.74%)    -0.61540 (  0.26%)    -0.58013
      60    227.32    -0.56648 ( 99.77%)    -0.60793 (  0.23%)    -0.56658
      61    230.67    -0.55864 ( 99.78%)    -0.60360 (  0.22%)    -0.55874
      62    231.72    -0.55621 ( 99.78%)    -0.60225 (  0.22%)    -0.55631
      63    235.88    -0.54672 ( 99.80%)    -0.59698 (  0.20%)    -0.54682
      64    238.16    -0.54162 ( 99.81%)    -0.59414 (  0.19%)    -0.54173
      65    244.65    -0.52737 ( 99.83%)    -0.58617 (  0.17%)    -0.52748
      66    246.43    -0.52354 ( 99.83%)    -0.58402 (  0.17%)    -0.52364
      67    247.77    -0.52069 ( 99.83%)    -0.58242 (  0.17%)    -0.52079
      68    256.71    -0.50209 ( 99.86%)    -0.57192 (  0.14%)    -0.50219
      69    260.36    -0.49473 ( 99.86%)    -0.56773 (  0.14%)    -0.49483
      70    265.81    -0.48398 ( 99.87%)    -0.56160 (  0.13%)    -0.48408
      71    270.40    -0.47515 ( 99.88%)    -0.55653 (  0.12%)    -0.47524
      72    275.47    -0.46560 ( 99.89%)    -0.55102 (  0.11%)    -0.46569
      73    280.05    -0.45717 ( 99.90%)    -0.54614 (  0.10%)    -0.45726
      74    284.06    -0.44994 ( 99.90%)    -0.54193 (  0.10%)    -0.45003
      75    288.29    -0.44245 ( 99.91%)    -0.53755 (  0.09%)    -0.44253
      76    292.93    -0.43440 ( 99.92%)    -0.53282 (  0.08%)    -0.43448
   ------------------------------------------------------------------------

   temp. (K)  partition function   enthalpy   heat capacity  entropy
                                   cal/mol     cal/K/mol   cal/K/mol   J/K/mol
 298.15  VIB  0.325E+34            43365.715    233.396    281.038
         ROT  0.369E+08              888.752      2.981     37.605
         INT  0.120E+42            44254.468    236.377    318.643
         TR   0.121E+29             1481.254      4.968     44.716
         TOT                       45735.7217   241.3447   363.3592  1520.2949

       T/K    H(0)-H(T)+PV         H(T)/Eh          T*S/Eh         G(T)/Eh
   ------------------------------------------------------------------------
    298.15    0.728845E-01    0.809003E+00    0.172644E+00    0.636359E+00
   ------------------------------------------------------------------------

         :::::::::::::::::::::::::::::::::::::::::::::::::::::
         ::                  THERMODYNAMIC                  ::
         :::::::::::::::::::::::::::::::::::::::::::::::::::::
         :: total free energy        -147.106148081464 Eh   ::
         ::.................................................::
         :: total energy             -147.742507456430 Eh   ::
         :: zero point energy           0.736118539881 Eh   ::
         :: G(RRHO) w/o ZPVE           -0.099759164915 Eh   ::
         :: G(RRHO) contrib.            0.636359374966 Eh   ::
         :::::::::::::::::::::::::::::::::::::::::::::::::::::

optimized geometry written to: xtbopt.xyz


           -------------------------------------------------
          | TOTAL ENERGY             -147.742507456430 Eh   |
          | TOTAL ENTHALPY           -146.933504404681 Eh   |
          | TOTAL FREE ENERGY        -147.106148081464 Eh   |
          | GRADIENT NORM               0.000357127253 Eh/α |
          | HOMO-LUMO GAP               6.406285701542 eV   |
           -------------------------------------------------

------------------------------------------------------------------------
 * finished run on 2022/10/12 at 03:16:08.938     
------------------------------------------------------------------------
 total:
 * wall-time:     0 d,  0 h,  0 min, 10.423 sec
 *  cpu-time:     0 d,  0 h,  1 min, 41.199 sec
 * ratio c/w:     9.709 speedup
 SCF:
 * wall-time:     0 d,  0 h,  0 min,  0.107 sec
 *  cpu-time:     0 d,  0 h,  0 min,  1.043 sec
 * ratio c/w:     9.790 speedup
 ANC optimizer:
 * wall-time:     0 d,  0 h,  0 min,  0.311 sec
 *  cpu-time:     0 d,  0 h,  0 min,  3.061 sec
 * ratio c/w:     9.835 speedup
 analytical hessian:
 * wall-time:     0 d,  0 h,  0 min,  9.832 sec
 *  cpu-time:     0 d,  0 h,  1 min, 35.502 sec
 * ratio c/w:     9.713 speedup

