91
 energy: -147.742507456428 gnorm: 0.000357115201 xtb: 6.5.1 (579679a)
C           -0.55058579640000       -0.63509762770000        0.83421564360000
C           -1.62795160880000        0.09492713570000       -1.23712579870000
C           -0.81077557100000       -0.24894602020000       -2.47512524390000
C            0.82554138330000       -0.43557261480000        0.38451218860000
H           -0.63647143470000       -1.52992347430000        1.45339553790000
H           -2.68504342100000        0.15306870210000       -1.50163935430000
H           -1.24629037700000       -1.09632200840000       -2.99666297240000
H            1.44915088990000       -1.24593219410000        0.06320301010000
H           -0.89278790510000        0.24670156330000        1.38970264910000
H           -1.31242341100000        1.05644923460000       -0.82827797180000
H           -0.79614791490000        0.60225076310000       -3.14847327890000
H            0.20847177340000       -0.49528452880000       -2.19627245460000
O           -1.53797303390000       -0.89399089130000       -0.21565915640000
N            1.33953293860000        0.85577557630000        0.27655315140000
H            2.33637758670000        0.90539832170000        0.45104113490000
H            0.84232342390000        1.53003901200000        0.84769664040000
O            1.00630005140000       -4.31441583840000        0.47338508190000
H            0.61321465150000       -4.02369391450000        1.31127675330000
H            0.35672428250000       -4.07730196240000       -0.20906964120000
O           -3.58305470530000       -0.98233746640000        1.73286176060000
H           -2.96299141290000       -0.84896468610000        0.99696541730000
H           -3.17263026990000       -0.55388251490000        2.50372614000000
O           -0.77356812710000       -3.25388228920000       -1.38419330260000
H           -0.94661425610000       -2.39652793800000       -0.94537003520000
H           -1.66163331130000       -3.61261211940000       -1.51600483920000
O           -3.52507685020000       -3.47774085670000       -1.12709205060000
H           -4.22325182750000       -4.09675126090000       -1.34367788280000
H           -3.96792771420000       -2.60093764240000       -1.05313885980000
O           -3.07359428990000        3.43611053710000       -2.56497022070000
H           -2.99730206650000        3.69267472380000       -3.48381662780000
H           -2.19095028540000        3.54046110370000       -2.17383434970000
O            1.42651878740000       -2.65108955260000       -2.90058536180000
H            0.60901492680000       -2.86693954610000       -2.40585627190000
H            1.56627477840000       -3.36966533860000       -3.51821928550000
O           -0.47325683320000       -3.53973824630000        2.69652672930000
H           -0.44648028200000       -4.25966621190000        3.32821301990000
H           -1.37635922510000       -3.58091187430000        2.28076341690000
O            4.19763834490000        0.96041521160000        0.96384826500000
H            5.01826657070000        1.05398712710000        1.44833062900000
H            4.37243822890000        0.28344727710000        0.24477981940000
O            1.18104258400000        2.86139780650000        2.64137056170000
H            1.50251524470000        3.43515667090000        3.33809100440000
H            0.19741808190000        2.77636963270000        2.79996901520000
O           -2.53705918060000        2.94572688290000        0.54818441950000
H           -1.82324611820000        3.10193964580000       -0.10687740370000
H           -3.09034981590000        3.72824547710000        0.51459069720000
O           -4.95396499250000       -1.23241036210000       -0.70009000630000
H           -4.87682631340000       -1.19113288110000        0.26181598180000
H           -4.88788386310000       -0.30720624240000       -0.98811816060000
O            4.54927070340000       -0.72633764760000       -0.97505675360000
H            3.97965024490000       -0.49827771850000       -1.74020657470000
H            4.20174198210000       -1.59087742710000       -0.68646138510000
O           -2.87101990840000       -3.59083713980000        1.60356178920000
H           -3.25001499370000       -2.70936032320000        1.79373511350000
H           -2.96730972130000       -3.69197355000000        0.64210019200000
O            3.05129982330000       -2.91206140930000       -0.61017069170000
H            2.60757213430000       -2.85198410380000       -1.46979017350000
H            2.47274946260000       -3.48806865250000       -0.07387539630000
O            1.42481355820000        4.32272720230000        0.27617093060000
H            2.25222706950000        4.06188425750000       -0.15108753370000
H            1.39114491440000        3.83859526470000        1.11867938660000
O           -2.13177940060000        0.12776478060000        3.80882291990000
H           -1.27173715410000       -0.37182854880000        3.90758005910000
H           -2.54823210640000        0.10276450620000        4.67095022830000
O            3.65460753770000        2.98692673910000       -0.89596244320000
H            4.28667011530000        2.71694347570000       -1.59016389630000
H            3.84429115460000        2.39217778840000       -0.14982400810000
O            0.10146920660000       -1.18982479660000        4.08493488410000
H            0.03602622220000       -2.02292700740000        3.58912590620000
H            0.90386866830000       -0.73431845990000        3.77726612860000
O            1.46579349020000        1.95977138420000       -2.17696763400000
H            1.29335918620000        1.45271441160000       -1.34811054180000
H            2.22244157880000        2.52536673190000       -1.93279180170000
O            2.23819630720000        0.32708202550000        3.15648852860000
H            1.87545112400000        1.21960529630000        3.02716614460000
H            2.94859125630000        0.24231059350000        2.51154113700000
O           -0.59614976060000        3.50201471500000       -1.26909038540000
H            0.03921941300000        3.99466065480000       -0.70264162710000
H           -0.01243669070000        2.92970224970000       -1.80314489810000
O           -1.38160852540000        2.62004475370000        2.99908212230000
H           -1.84819527530000        2.74673996520000        2.15196472740000
H           -1.66724493220000        1.74867940400000        3.33380405120000
O           -4.46887236380000        1.51192731590000       -1.02542414040000
H           -4.20349965610000        2.12064686750000       -1.72863106550000
H           -3.94625466810000        1.78993838750000       -0.26087447980000
O            2.91685220260000       -0.15926226830000       -3.08589029120000
H            2.29929163170000        0.57969415130000       -2.91068141390000
H            2.38224231330000       -0.96148240390000       -3.15397668720000
O            5.16815931620000        1.59753648210000       -2.68688586130000
H            4.49814627950000        1.13567804260000       -3.20629542510000
H            5.58472481560000        0.91397524010000       -2.15233206800000
