      -----------------------------------------------------------      
     |                   =====================                   |     
     |                           x T B                           |     
     |                   =====================                   |     
     |                         S. Grimme                         |     
     |          Mulliken Center for Theoretical Chemistry        |     
     |                    University of Bonn                     |     
      -----------------------------------------------------------      

   * xtb version 6.5.1 (579679a) compiled by 'ehlert@majestix' on 2022-07-11

   xtb is free software: you can redistribute it and/or modify it under
   the terms of the GNU Lesser General Public License as published by
   the Free Software Foundation, either version 3 of the License, or
   (at your option) any later version.
   
   xtb is distributed in the hope that it will be useful,
   but WITHOUT ANY WARRANTY; without even the implied warranty of
   MERCHANTABILITY or FITNESS FOR A PARTICULAR PURPOSE.  See the
   GNU Lesser General Public License for more details.
   
   Cite this work as:
   * C. Bannwarth, E. Caldeweyher, S. Ehlert, A. Hansen, P. Pracht,
     J. Seibert, S. Spicher, S. Grimme, WIREs Comput. Mol. Sci., 2020, 11,
     e01493. DOI: 10.1002/wcms.1493
   
   for GFN2-xTB:
   * C. Bannwarth, S. Ehlert and S. Grimme., J. Chem. Theory Comput., 2019,
     15, 1652-1671. DOI: 10.1021/acs.jctc.8b01176
   for GFN1-xTB:
   * S. Grimme, C. Bannwarth, P. Shushkov, J. Chem. Theory Comput., 2017,
     13, 1989-2009. DOI: 10.1021/acs.jctc.7b00118
   for GFN0-xTB:
   * P. Pracht, E. Caldeweyher, S. Ehlert, S. Grimme, ChemRxiv, 2019, preprint.
     DOI: 10.26434/chemrxiv.8326202.v1
   for GFN-FF:
   * S. Spicher and S. Grimme, Angew. Chem. Int. Ed., 2020, 59, 15665-15673.
     DOI: 10.1002/anie.202004239
   
   for ALPB and GBSA implicit solvation:
   * S. Ehlert, M. Stahn, S. Spicher, S. Grimme, J. Chem. Theory Comput.,
     2021, 17, 4250-4261. DOI: 10.1021/acs.jctc.1c00471
   
   for DFT-D4:
   * E. Caldeweyher, C. Bannwarth and S. Grimme, J. Chem. Phys., 2017,
     147, 034112. DOI: 10.1063/1.4993215
   * E. Caldeweyher, S. Ehlert, A. Hansen, H. Neugebauer, S. Spicher,
     C. Bannwarth and S. Grimme, J. Chem. Phys., 2019, 150, 154122.
     DOI: 10.1063/1.5090222
   * E. Caldeweyher, J.-M. Mewes, S. Ehlert and S. Grimme, Phys. Chem. Chem. Phys.
     2020, 22, 8499-8512. DOI: 10.1039/D0CP00502A
   
   for sTDA-xTB:
   * S. Grimme and C. Bannwarth, J. Chem. Phys., 2016, 145, 054103.
     DOI: 10.1063/1.4959605
   
   in the mass-spec context:
   * V. Asgeirsson, C. Bauer and S. Grimme, Chem. Sci., 2017, 8, 4879.
     DOI: 10.1039/c7sc00601b
   * J. Koopman and S. Grimme, ACS Omega 2019, 4, 12, 15120-15133.
     DOI: 10.1021/acsomega.9b02011
   
   for metadynamics refer to:
   * S. Grimme, J. Chem. Theory Comput., 2019, 155, 2847-2862
     DOI: 10.1021/acs.jctc.9b00143
   
   for SPH calculations refer to:
   * S. Spicher and S. Grimme, J. Chem. Theory Comput., 2021, 17, 1701-1714
     DOI: 10.1021/acs.jctc.0c01306
   
   with help from (in alphabetical order)
   P. Atkinson, C. Bannwarth, F. Bohle, G. Brandenburg, E. Caldeweyher
   M. Checinski, S. Dohm, S. Ehlert, S. Ehrlich, I. Gerasimov, C. Hölzer
   A. Katbashev, J. Koopman, C. Lavigne, S. Lehtola, F. März, M. Müller,
   F. Musil, H. Neugebauer, J. Pisarek, C. Plett, P. Pracht, F. Pultar,
   J. Seibert, P. Shushkov, S. Spicher, M. Stahn, M. Steiner, T. Strunk,
   J. Stückrath, T. Rose, and J. Unsleber
   
 * started run on 2022/11/23 at 19:44:20.976     

           -------------------------------------------------
          |                Calculation Setup                |
           -------------------------------------------------

          program call               : xtb xtbopt.coord --gfn2 --sp --lmo
          hostname                   : cn0253
          coordinate file            : xtbopt.coord
          omp threads                :                    40

   ID    Z sym.   atoms
    1    1 h      1, 3, 4, 6, 7, 9, 10, 12, 13, 15, 16, 18, 19, 21, 22, 24,
                  25, 27, 28, 30, 31, 33, 34, 36, 37, 39, 40, 42, 43, 45, 46,
                  48, 49, 51, 52, 54, 55, 57, 58, 60, 61, 63, 64, 66, 67, 69,
                  70, 72, 73, 75, 76, 78, 79, 81, 82, 84, 85, 87, 88, 90, 91,
                  93, 94, 96, 97, 99, 100, 102, 103, 105, 106, 108, 109, 111,
                  112, 114, 115, 117, 118, 120, 121, 123, 124, 126, 127, 129,
                  130, 132, 133, 135, 136, 138, 139
    2    8 o      2, 5, 8, 11, 14, 17, 20, 23, 26, 29, 32, 35, 38, 41, 44,
                  47, 50, 53, 56, 59, 62, 65, 68, 71, 74, 77, 80, 83, 86, 89,
                  92, 95, 98, 101, 104, 107, 110, 113, 116, 119, 122, 125,
                  128, 131, 134, 137

molecular fragmentation (1/2 indicates fragments):
122211122222222222222222222222222222222222222222222222222222222222222222
2222222222222222222222222222222222222222222222222222222222222222222
# atoms in fragment 1/2:     4   135
 fragment masses (1/2) :       19.02      810.69
CMA distance (Bohr)    :   1.767
constraining FC (au)   :  0.0500
########################################################################
[WARNING] Please study the warnings concerning your input carefully
-1- prog_main: Charge in sdf/mol input was overwritten
########################################################################

           -------------------------------------------------
          |                 G F N 2 - x T B                 |
           -------------------------------------------------

        Reference                      10.1021/acs.jctc.8b01176
      * Hamiltonian:
        H0-scaling (s, p, d)           1.850000    2.230000    2.230000
        zeta-weighting                 0.500000
      * Dispersion:
        s8                             2.700000
        a1                             0.520000
        a2                             5.000000
        s9                             5.000000
      * Repulsion:
        kExp                           1.500000    1.000000
        rExp                           1.000000
      * Coulomb:
        alpha                          2.000000
        third order                    shell-resolved
        anisotropic                    true
        a3                             3.000000
        a5                             4.000000
        cn-shift                       1.200000
        cn-exp                         4.000000
        max-rad                        5.000000


          ...................................................
          :                      SETUP                      :
          :.................................................:
          :  # basis functions                 277          :
          :  # atomic orbitals                 277          :
          :  # shells                          185          :
          :  # electrons                       368          :
          :  max. iterations                   250          :
          :  Hamiltonian                  GFN2-xTB          :
          :  restarted?                      false          :
          :  GBSA solvation                  false          :
          :  PC potential                    false          :
          :  electronic temp.          300.0000000     K    :
          :  accuracy                    1.0000000          :
          :  -> integral cutoff          0.2500000E+02      :
          :  -> integral neglect         0.1000000E-07      :
          :  -> SCF convergence          0.1000000E-05 Eh   :
          :  -> wf. convergence          0.1000000E-03 e    :
          :  Broyden damping             0.4000000          :
          ...................................................

 iter      E             dE          RMSdq      gap      omega  full diag
   1   -235.6189054 -0.235619E+03  0.404E+00    9.07       0.0  T
   2   -235.6369625 -0.180570E-01  0.240E+00    9.03       1.0  T
   3   -235.6430927 -0.613020E-02  0.229E-01    8.43       1.0  T
   4   -235.6443029 -0.121019E-02  0.478E-02    8.58       1.0  T
   5   -235.6443172 -0.143479E-04  0.302E-02    8.57       1.0  T
   6   -235.6443228 -0.561720E-05  0.437E-03    8.59       1.9  T
   7   -235.6443233 -0.482137E-06  0.710E-04    8.58      11.9  T
   8   -235.6443233 -0.621034E-08  0.319E-04    8.58      26.6  T

   *** convergence criteria satisfied after 8 iterations ***

         #    Occupation            Energy/Eh            Energy/eV
      -------------------------------------------------------------
         1        2.0000           -0.8013800             -21.8067
       ...           ...                  ...                  ...
       178        2.0000           -0.5063818             -13.7794
       179        2.0000           -0.5059630             -13.7680
       180        2.0000           -0.5043867             -13.7251
       181        2.0000           -0.5041682             -13.7191
       182        2.0000           -0.5039639             -13.7136
       183        2.0000           -0.4993774             -13.5888
       184        2.0000           -0.4975834             -13.5399 (HOMO)
       185                         -0.1821168              -4.9557 (LUMO)
       186                         -0.1215472              -3.3075
       187                         -0.1186491              -3.2286
       188                         -0.1171323              -3.1873
       189                         -0.0764824              -2.0812
       ...                                ...                  ...
       277                          0.2930618               7.9746
      -------------------------------------------------------------
                  HL-Gap            0.3154666 Eh            8.5843 eV
             Fermi-level           -0.3398501 Eh           -9.2478 eV
 
 localization/xTB-IFF output generation
 averaging CT terms over            8  occ. levels
 averaging CT terms over            1  virt. levels
 dipole moment from electron density (au)
     X       Y       Z   
   1.8840  -0.2540  -0.5994  total (Debye):    5.067
cpu  time for init local    1.00 s
wall time for init local    0.03 s
 doing rotations ...
 initialization of trafo matrix to unity

 converged in     14 iterations, threshold :   0.99892694D-06
 doing transformations ...
 lmo centers(Z=2) and atoms on file <lmocent.coord>
 LMO Fii/eV  ncent    charge center   contributions...
    1 LP    -20.57   0.78   2.21244  -4.51917   7.83973  107O :  1.13
    2 sigma -20.20   1.59  -1.74829  -4.45331  -5.94822   14O :  0.71   16H :  0.36
    3 LP    -19.67   0.82  -9.30609  -3.13910   1.43341  116O :  1.11
    4 sigma -19.67   1.56  -5.65340  -6.04965  -1.39622   65O :  0.73   67H :  0.32
    5 sigma -19.64   1.62  -1.89396   9.81582   1.33968   95O :  0.69   96H :  0.38
    6 sigma -19.43   1.58   0.59961  -4.30423   6.22884   50O :  0.72   51H :  0.33
    7 sigma -19.39   1.66   8.44906  -6.00021  -0.55262  119O :  0.69  121H :  0.36
    8 LP    -19.38   0.87  -5.18555  -0.19850   1.95379   68O :  1.07
    9 LP    -19.34   0.85   7.95750   4.45031   2.98499   74O :  1.08
   10 sigma -19.31   1.61   3.76888  -2.68715  -0.09476   23O :  0.72   24H :  0.32
   11 sigma -19.28   1.62  -4.09524   8.26487  -2.43973   92O :  0.70   93H :  0.36
   12 sigma -19.20   1.63  -3.93753   3.99215   1.00247   32O :  0.71   33H :  0.32
   13 LP    -19.19   0.86  -4.89283  -4.07180  -0.52283   26O :  1.08
   14 sigma -19.13   1.63   0.33557   0.50196   2.34077    5O :  0.74    6H :  0.27
   15 sigma -19.11   1.57  -0.92637   1.04647   1.89272    5O :  0.76    7H :  0.25
   16 sigma -19.11   1.78   2.07321   1.79905  10.01250  113O :  0.66  115H :  0.36
   17 sigma -18.92   1.67   4.77826  -7.28493  -2.35135   71O :  0.69   73H :  0.35
   18 LP    -18.90   0.90  -0.48666  -3.12040  -4.52794   14O :  1.06
   19 sigma -18.87   1.61  -0.19815   0.19622   1.02914    5O :  0.75    1H :  0.26
   20 sigma -18.83   1.72   6.15735   5.32677   4.03526   74O :  0.69   76H :  0.33
   21 sigma -18.82   1.76  -5.05521  -4.44580   9.16656  125O :  0.66  127H :  0.37
   22 sigma -18.63   1.77   3.44654  -4.21685  -5.46347  101O :  0.67  103H :  0.34
   23 sigma -18.62   1.76   1.13488   0.68736   9.43272  113O :  0.67  114H :  0.33
   24 sigma -18.60   1.73  -9.48717  -4.24209  -0.59999  116O :  0.67  118H :  0.36
   25 sigma -18.59   1.74   3.53938  -3.42940   9.46935  107O :  0.67  108H :  0.36
   26 LP    -18.48   0.92   5.35887   4.80880  -5.22557   56O :  1.04
   27 sigma -18.47   1.70  -0.54614   9.11561   0.97785   95O :  0.68   97H :  0.34
   28 sigma -18.47   1.83   4.51617  -8.20935   3.93205   86O :  0.64   88H :  0.37
   29 sigma -18.37   1.88  -6.39746  -5.15539  -7.08537   98O :  0.63  100H :  0.36
   30 sigma -18.33   1.87   6.65113   6.57582  -4.30890   56O :  0.63   57H :  0.37
   31 sigma -18.33   1.88   7.30521   5.11627   5.09361   74O :  0.63   75H :  0.36
   32 sigma -18.32   1.87   4.87188  -4.51040  -6.09946  101O :  0.63  102H :  0.37
   33 sigma -18.29   1.73  -8.89612  -3.99651   3.88415   53O :  0.68   55H :  0.34
   34 sigma -18.28   1.76   4.05665   1.55830   4.61080   11O :  0.68   13H :  0.32
   35 LP    -18.27   0.90   8.17341  -0.98883   2.84602   80O :  1.05
   36 sigma -18.26   1.72  -0.23995  -7.85621  -1.90539   59O :  0.69   61H :  0.32
   37 sigma -18.23   1.76   5.11343   6.78696  -4.02936   56O :  0.68   58H :  0.32
   38 sigma -18.20   1.75  -3.02980  -0.43663   7.92314   44O :  0.68   46H :  0.33
   39 sigma -18.20   1.73  -4.39235  -1.87255  -1.15422   26O :  0.69   28H :  0.32
   40 sigma -18.18   1.74   7.61493  -1.08496  -2.77598   77O :  0.69   78H :  0.32
   41 sigma -18.16   1.76   4.20640   1.90490  -0.17135   35O :  0.69   36H :  0.31
   42 sigma -18.15   1.73  -1.12718   5.62092   6.62202   41O :  0.68   43H :  0.34
   43 sigma -18.15   1.85   2.59998   4.69506 -10.07403  131O :  0.64  132H :  0.37
   44 sigma -18.12   1.88  -9.65137   4.10525   3.97046  134O :  0.63  135H :  0.36
   45 sigma -18.10   1.82   4.73267   3.24100  -0.74228   35O :  0.66   37H :  0.35
   46 sigma -18.09   1.77   3.17032   0.92032   5.67588   11O :  0.68   12H :  0.32
   47 sigma -18.07   1.77  -6.01843  -5.11802  -5.56781   98O :  0.68   99H :  0.31
   48 LP    -18.07   0.92   2.43757  -7.37931   3.40355   86O :  1.04
   49 sigma -18.06   1.77   4.64570  -7.95805  -0.95555   71O :  0.67   72H :  0.34
   50 sigma -18.06   1.77   1.14150  -0.08933  -3.22725    2O :  0.68    3H :  0.32
   51 sigma -18.06   1.85   0.31837  -1.12928  -8.45885   38O :  0.65   39H :  0.35
   52 sigma -18.04   1.71  -6.32783  -0.61170   3.92879   68O :  0.70   69H :  0.31
   53 sigma -18.04   1.72  -0.51244   4.41943  -3.04085   20O :  0.70   21H :  0.31
   54 LP    -18.03   0.96  -4.36130   0.27013   4.95149   68O :  1.02
   55 sigma -18.02   1.77  -1.03967   8.18038  -7.09130  128O :  0.67  130H :  0.34
   56 sigma -18.02   1.79   1.38479  -0.02338  -8.24000   38O :  0.67   40H :  0.33
   57 sigma -18.02   1.80  -8.64226   4.43025   2.80046  134O :  0.67  136H :  0.33
   58 sigma -17.97   1.79   0.01585  -1.13647  -3.21804    2O :  0.67    4H :  0.32
   59 LP    -17.94   0.87  -0.67718  11.06740  -0.09173   95O :  1.07
   60 sigma -17.94   1.81   4.49036   2.39010  -5.49643   47O :  0.67   49H :  0.33
   61 sigma -17.92   1.87  -5.54617  -7.56512  -1.66883   65O :  0.64   66H :  0.35
   62 sigma -17.92   1.75  -7.07287   4.83844  -1.62676   89O :  0.69   91H :  0.32
   63 sigma -17.91   1.79   4.59490  -6.69218   3.55661   86O :  0.67   87H :  0.32
   64 sigma -17.90   1.87   9.04094  -1.24891  -3.36660   77O :  0.64   79H :  0.36
   65 sigma -17.90   1.80   5.10760   0.97522  -5.43466   47O :  0.67   48H :  0.33
   66 sigma -17.90   1.89   9.52903  -5.50463   0.51590  119O :  0.63  120H :  0.37
   67 sigma -17.88   1.82  -7.40136   3.34003  -1.81159   89O :  0.66   90H :  0.34
   68 sigma -17.88   1.84   1.33167   3.79035 -10.42001  131O :  0.65  133H :  0.35
   69 LP    -17.88   0.95  -4.23226  -2.31706   8.44760  125O :  1.03
   70 sigma -17.86   1.74  -2.58246   4.54046   0.72925   32O :  0.69   34H :  0.30
   71 sigma -17.86   1.84  -6.36147  -0.67492  -4.85492    8O :  0.66    9H :  0.34
   72 sigma -17.86   1.84  -0.51068 -10.43400   1.61048  137O :  0.64  138H :  0.36
   73 LP    -17.85   0.97   2.44484   3.03477  -1.18221   35O :  1.02
   74 sigma -17.83   1.79   0.68821   4.38256  -2.11883   20O :  0.67   22H :  0.32
   75 sigma -17.82   1.77  -2.61789   3.77270  -6.62450   17O :  0.68   19H :  0.32
   76 sigma -17.82   1.79  -0.76283  -5.31527  -5.19336   14O :  0.68   15H :  0.32
   77 sigma -17.81   1.82   2.49185   5.92155   2.23052   83O :  0.66   84H :  0.33
   78 sigma -17.81   1.80   9.25586   0.25160   1.17791   80O :  0.66   81H :  0.35
   79 sigma -17.80   1.87  -9.69632  -2.68786  -0.83921  116O :  0.64  117H :  0.36
   80 sigma -17.79   1.81   5.24911  -2.69433   0.28685   23O :  0.66   25H :  0.33
   81 sigma -17.78   1.83  -0.86562   4.10290   6.78503   41O :  0.66   42H :  0.34
   82 sigma -17.72   1.80  -2.01896   2.36849  -6.78815   17O :  0.67   18H :  0.32
   83 sigma -17.70   1.78   1.86654   6.31686   3.57626   83O :  0.68   85H :  0.32
   84 sigma -17.70   1.87   1.54719   9.94629  -3.29798  122O :  0.64  123H :  0.35
   85 sigma -17.70   1.80  -5.57187   0.62895  -4.68598    8O :  0.67   10H :  0.32
   86 sigma -17.69   1.78  -3.03999   0.21447   6.57905   44O :  0.68   45H :  0.31
   87 sigma -17.69   1.80  -6.32802   0.89331   3.70832   68O :  0.67   70H :  0.32
   88 sigma -17.69   1.77   1.30750   8.45624  -3.56985  122O :  0.68  124H :  0.31
   89 sigma -17.65   1.78   0.32606  -4.73805   1.53948   29O :  0.68   30H :  0.32
   90 sigma -17.64   1.79  -0.50705  -4.23156   0.39401   29O :  0.68   31H :  0.32
   91 sigma -17.63   1.78  -3.71292  -7.50809   3.44499  104O :  0.67  105H :  0.34
   92 sigma -17.63   1.85   0.64965  -8.77716  -2.74311   59O :  0.65   60H :  0.34
   93 sigma -17.62   1.82   7.29637  -2.77473   4.36464   62O :  0.66   63H :  0.33
   94 sigma -17.58   1.79  -4.38701  -1.94735   0.36481   26O :  0.68   27H :  0.32
   95 sigma -17.57   1.81   5.84318  -2.52284   4.72630   62O :  0.67   64H :  0.32
   96 sigma -17.55   1.85  -6.21506  -3.61653   8.47453  125O :  0.65  126H :  0.34
   97 sigma -17.52   1.85   4.46771  -4.18598   8.44401  107O :  0.65  109H :  0.34
   98 LP    -17.48   1.00  -1.23921  -1.01604   2.50824    5O :  1.00
   99 sigma -17.45   1.85   0.26045  -9.66694   2.75859  137O :  0.65  139H :  0.34
  100 LP    -17.45   0.97   2.69198  -0.30055  10.73802  113O :  1.02
  101 sigma -17.43   1.83  -0.44100  -3.24363   5.83819   50O :  0.66   52H :  0.33
  102 sigma -17.37   1.88   8.96705   1.17899   2.42533   80O :  0.64   82H :  0.35
  103 LP    -17.36   0.98   0.64187   5.01899   5.19094   41O :  1.01
  104 LP    -17.36   0.89  -6.16745   8.81042  -2.93806   92O :  1.06
  105 LP    -17.33   0.96   5.98133   5.52343  -2.36542   56O :  1.02
  106 LP    -17.33   0.99  -1.65826   3.14665  -4.61599   17O :  1.01
  107 sigma -17.33   1.89  -5.28808   7.55880   5.13994  110O :  0.63  111H :  0.36
  108 LP    -17.32   0.98   4.34502  -0.54519   0.65027   23O :  1.01
  109 LP    -17.30   0.96   4.84168  -2.51039  -4.97736  101O :  1.02
  110 sigma -17.30   1.83  -4.17403   7.10636   4.15345  110O :  0.67  112H :  0.32
  111 LP    -17.30   0.93   9.74749  -4.41005  -1.47315  119O :  1.04
  112 LP    -17.29   0.96   5.04320  -2.04605  -1.86776   23O :  1.02
  113 LP    -17.29   0.94  -5.61586  -6.79270   4.59708  104O :  1.03
  114 sigma -17.27   1.82  -7.63335  -4.67563   4.42558   53O :  0.67   54H :  0.32
  115 LP    -17.23   0.94  -9.13945  -4.47945   6.08357   53O :  1.03
  116 sigma -17.18   1.88  -4.38784   7.97974  -3.96086   92O :  0.64   94H :  0.35
  117 sigma -17.18   1.87  -1.16904   7.37457  -8.40422  128O :  0.65  129H :  0.34
  118 sigma -17.18   1.84  -3.46478  -6.12788   4.08817  104O :  0.66  106H :  0.34
  119 LP    -17.12   1.00  -6.63107  -2.98375  -6.16584   98O :  1.00
  120 LP    -17.04   1.00   3.90240   1.20550  -7.40260   47O :  1.00
  121 LP    -17.03   1.02   1.76333  -3.68326  -0.00724   29O :  0.99
  122 LP    -17.01   1.02   5.96149   3.17872   4.84530   74O :  0.99
  123 LP    -17.00   1.01  -2.24987  -2.48346  -0.41317   26O :  1.00
  124 LP    -16.93   0.97   3.67802  -9.20161  -2.51851   71O :  1.01
  125 LP    -16.93   1.04   2.92905   0.94187   7.97195  113O :  0.98
  126 LP    -16.92   1.03  -4.10404  -4.61983  -6.74906   98O :  0.98
  127 LP    -16.89   0.98  -8.16036   5.75787   4.56169  134O :  1.01
  128 LP    -16.88   1.11   1.85581   1.01522   3.56578   11O :  0.95
  129 LP    -16.80   0.98   8.90039   0.54717  -1.93621   77O :  1.01
  130 LP    -16.79   0.95   1.47546   5.49822 -11.84597  131O :  1.03
  131 LP    -16.74   0.99  -1.31789  -9.77002  -2.21745   59O :  1.01
  132 LP    -16.71   1.01  -8.96965   4.34992  -0.46275   89O :  1.00
  133 LP    -16.67   1.17  -2.19524   2.38464   1.94953   32O :  0.92
  134 LP    -16.61   1.04  -0.71312   0.96332  -8.21608   38O :  0.98
  135 LP    -16.56   0.99  -3.22387   7.24744   6.22295  110O :  1.00
  136 LP    -16.54   1.05  -3.30052   5.37196   2.77871   32O :  0.97
  137 LP    -16.48   1.13   0.47557  -0.47415  -0.83137    2O :  0.94
  138 LP    -16.47   0.99  -0.81550   0.89941  -3.27084    2O :  1.00
  139 LP    -16.41   1.05   2.97394   0.92017  -4.54920   47O :  0.98
  140 LP    -16.36   1.06  -4.24852   2.14934  -5.99896   17O :  0.97
  141 LP    -16.28   1.07   4.31995  -0.73658   4.55302   11O :  0.97
  142 LP    -16.24   1.06  -7.68267   2.78900   4.13636  134O :  0.97
  143 LP    -16.18   1.09  -5.98148  -6.33170  -3.72578   65O :  0.96
  144 LP    -16.16   1.09   0.44815   6.60791  -2.95418   20O :  0.96
  145 LP    -16.15   1.06   4.73776  -5.32066  -3.90292  101O :  0.97
  146 LP    -16.14   0.99  -2.86882   8.83490  -8.23212  128O :  1.01
  147 LP    -16.14   1.07   5.95030  -4.63038   3.70854   62O :  0.97
  148 LP    -16.14   1.08  -2.04568   1.64958   8.02892   44O :  0.96
  149 LP    -16.11   1.08  -0.74451  -7.47671  -4.10291   59O :  0.96
  150 LP    -16.08   1.06   7.69053   0.15899  -4.65544   77O :  0.97
  151 LP    -16.06   1.06   0.22955  -4.54433  -7.08006   14O :  0.97
  152 LP    -16.06   1.04  -7.72084  -6.90656  -1.23479   65O :  0.98
  153 LP    -16.04   1.11  -1.25084   4.94110  -0.83690   20O :  0.95
  154 LP    -16.02   1.08  -1.08772  -0.92450   6.80905   44O :  0.96
  155 LP    -16.01   1.07   3.92625   3.54631   1.39999   35O :  0.97
  156 LP    -15.98   1.07   4.80398  -7.91370   1.60287   86O :  0.97
  157 LP    -15.95   1.09   0.19340  -6.40981  -0.14438   29O :  0.96
  158 LP    -15.94   1.07  -7.71458   0.99009  -4.01326    8O :  0.97
  159 LP    -15.93   1.06   4.02179   7.07334   3.45503   83O :  0.97
  160 LP    -15.91   1.07   0.67587  -3.94716   3.90487   50O :  0.97
  161 LP    -15.91   1.10  -5.47016  -0.58375  -2.69910    8O :  0.96
  162 LP    -15.86   1.11  -6.09271   3.66712   0.11369   89O :  0.95
  163 LP    -15.84   1.05   7.60541  -4.19515   0.58368  119O :  0.97
  164 LP    -15.81   1.09   3.53724   8.80591  -3.97628  122O :  0.96
  165 LP    -15.80   1.05   0.96428  -0.21721 -10.42829   38O :  0.98
  166 LP    -15.80   1.01  -6.13357  -3.13949  10.65848  125O :  0.99
  167 LP    -15.78   1.04   6.49768  -8.64449  -1.98457   71O :  0.98
  168 LP    -15.76   1.08  -2.35307   6.26184  -6.72946  128O :  0.96
  169 LP    -15.73   1.06   0.69608   5.49537  -8.97623  131O :  0.97
  170 LP    -15.70   1.11  -7.43489  -2.34499   4.73294   53O :  0.95
  171 LP    -15.70   1.02   0.41739   5.27155   8.21167   41O :  0.99
  172 LP    -15.69   1.09   1.48874   7.97233   2.02592   83O :  0.96
  173 LP    -15.58   1.07   6.81483  -3.58493   6.43865   62O :  0.97
  174 LP    -15.56   1.08   0.98452   9.52440  -5.52470  122O :  0.96
  175 LP    -15.44   1.04  -4.14630   9.34047   4.24564  110O :  0.98
  176 LP    -15.39   1.09  -2.16472   8.51038  -0.58240   95O :  0.96
  177 LP    -15.36   1.03  -4.36519  -5.87529   2.06657  104O :  0.98
  178 LP    -15.26   1.05   3.90871  -5.55863  10.13953  107O :  0.97
  179 LP    -15.25   1.10  -5.00389   6.10767  -2.64569   92O :  0.95
  180 LP    -15.25   1.09  -1.39582  -5.31200   5.64894   50O :  0.96
  181 LP    -15.25   1.09  -2.00531  -9.10333   2.85001  137O :  0.96
  182 LP    -15.14   1.05  -0.50341 -11.63617   3.51722  137O :  0.98
  183 LP    -14.99   1.06 -11.64625  -3.70918  -0.35546  116O :  0.97
  184 LP    -14.81   1.07  10.94151   0.14369   2.64006   80O :  0.97
 files:
 coordprot.0/xtbscreen.xyz/xtblmoinfo/lmocent.coord
 with protonation site input, xtbdock and
 LMO center info written
 

 SCC (total)                   0 d,  0 h,  0 min,  0.398 sec
 SCC setup                      ...        0 min,  0.001 sec (  0.215%)
 Dispersion                     ...        0 min,  0.003 sec (  0.834%)
 classical contributions        ...        0 min,  0.001 sec (  0.145%)
 integral evaluation            ...        0 min,  0.009 sec (  2.180%)
 iterations                     ...        0 min,  0.122 sec ( 30.570%)
 molecular gradient             ...        0 min,  0.024 sec (  6.032%)
 printout                       ...        0 min,  0.238 sec ( 59.946%)

         :::::::::::::::::::::::::::::::::::::::::::::::::::::
         ::                     SUMMARY                     ::
         :::::::::::::::::::::::::::::::::::::::::::::::::::::
         :: total energy            -234.224537713602 Eh    ::
         :: gradient norm              0.002341007669 Eh/a0 ::
         :: HOMO-LUMO gap              8.584283073613 eV    ::
         ::.................................................::
         :: SCC energy              -235.644323307654 Eh    ::
         :: -> isotropic ES            1.355221492746 Eh    ::
         :: -> anisotropic ES         -0.280382011385 Eh    ::
         :: -> anisotropic XC         -0.025107276063 Eh    ::
         :: -> dispersion             -0.117159502028 Eh    ::
         :: repulsion energy           1.405066845687 Eh    ::
         :: add. restraining           0.000000000000 Eh    ::
         :: total charge               1.000000000000 e     ::
         :::::::::::::::::::::::::::::::::::::::::::::::::::::

           -------------------------------------------------
          |                Property Printout                |
           -------------------------------------------------

    * Orbital Energies and Occupations

         #    Occupation            Energy/Eh            Energy/eV
      -------------------------------------------------------------
         1        2.0000           -0.8013800             -21.8067
       ...           ...                  ...                  ...
       172        2.0000           -0.5130882             -13.9618
       173        2.0000           -0.5113436             -13.9144
       174        2.0000           -0.5112988             -13.9131
       175        2.0000           -0.5102575             -13.8848
       176        2.0000           -0.5083965             -13.8342
       177        2.0000           -0.5065371             -13.7836
       178        2.0000           -0.5063818             -13.7794
       179        2.0000           -0.5059630             -13.7680
       180        2.0000           -0.5043867             -13.7251
       181        2.0000           -0.5041682             -13.7191
       182        2.0000           -0.5039639             -13.7136
       183        2.0000           -0.4993774             -13.5888
       184        2.0000           -0.4975834             -13.5399 (HOMO)
       185                         -0.1821168              -4.9557 (LUMO)
       186                         -0.1215472              -3.3075
       187                         -0.1186491              -3.2286
       188                         -0.1171323              -3.1873
       189                         -0.0764824              -2.0812
       190                         -0.0718092              -1.9540
       191                         -0.0639647              -1.7406
       192                         -0.0609858              -1.6595
       193                         -0.0523365              -1.4241
       194                         -0.0472866              -1.2867
       195                         -0.0319150              -0.8685
       ...                                ...                  ...
       277                          0.2930618               7.9746
      -------------------------------------------------------------
                  HL-Gap            0.3154666 Eh            8.5843 eV
             Fermi-level           -0.3398501 Eh           -9.2478 eV

     #   Z          covCN         q      C6AA      α(0)
     1   1 h        0.805     0.415     0.457     1.062
     2   8 o        1.622    -0.648    26.359     6.930
     3   1 h        0.804     0.342     0.606     1.223
     4   1 h        0.804     0.338     0.618     1.235
     5   8 o        2.372    -0.529    23.461     6.542
     6   1 h        0.803     0.402     0.481     1.089
     7   1 h        0.828     0.403     0.476     1.082
     8   8 o        1.607    -0.661    26.698     6.974
     9   1 h        0.804     0.321     0.660     1.276
    10   1 h        0.803     0.342     0.609     1.226
    11   8 o        1.613    -0.651    26.434     6.939
    12   1 h        0.803     0.341     0.609     1.226
    13   1 h        0.803     0.345     0.601     1.218
    14   8 o        1.605    -0.686    27.351     7.058
    15   1 h        0.802     0.336     0.623     1.240
    16   1 h        0.804     0.326     0.648     1.265
    17   8 o        1.607    -0.658    26.630     6.965
    18   1 h        0.803     0.333     0.629     1.246
    19   1 h        0.803     0.337     0.619     1.236
    20   8 o        1.607    -0.675    27.050     7.019
    21   1 h        0.802     0.353     0.582     1.199
    22   1 h        0.804     0.343     0.605     1.222
    23   8 o        1.607    -0.680    27.178     7.036
    24   1 h        0.803     0.348     0.593     1.210
    25   1 h        0.805     0.332     0.632     1.248
    26   8 o        1.607    -0.679    27.156     7.033
    27   1 h        0.804     0.344     0.602     1.219
    28   1 h        0.803     0.336     0.623     1.240
    29   8 o        1.607    -0.681    27.205     7.039
    30   1 h        0.803     0.350     0.588     1.205
    31   1 h        0.803     0.351     0.586     1.202
    32   8 o        1.646    -0.664    26.743     6.981
    33   1 h        0.802     0.350     0.589     1.206
    34   1 h        0.802     0.360     0.566     1.182
    35   8 o        1.608    -0.664    26.759     6.982
    36   1 h        0.803     0.358     0.570     1.186
    37   1 h        0.805     0.320     0.664     1.280
    38   8 o        1.608    -0.646    26.324     6.925
    39   1 h        0.805     0.316     0.675     1.290
    40   1 h        0.803     0.338     0.616     1.233
    41   8 o        1.608    -0.655    26.549     6.954
    42   1 h        0.804     0.323     0.656     1.272
    43   1 h        0.804     0.324     0.653     1.270
    44   8 o        1.604    -0.693    27.519     7.080
    45   1 h        0.802     0.346     0.598     1.214
    46   1 h        0.803     0.330     0.637     1.254
    47   8 o        1.608    -0.658    26.609     6.962
    48   1 h        0.804     0.331     0.634     1.251
    49   1 h        0.804     0.330     0.636     1.253
    50   8 o        1.607    -0.675    27.060     7.021
    51   1 h        0.803     0.329     0.640     1.256
    52   1 h        0.804     0.328     0.642     1.259
    53   8 o        1.608    -0.648    26.378     6.932
    54   1 h        0.803     0.341     0.610     1.227
    55   1 h        0.804     0.328     0.644     1.260
    56   8 o        1.608    -0.627    25.833     6.860
    57   1 h        0.806     0.286     0.765     1.374
    58   1 h        0.803     0.341     0.609     1.226
    59   8 o        1.606    -0.665    26.786     6.985
    60   1 h        0.804     0.313     0.684     1.299
    61   1 h        0.802     0.344     0.603     1.220
    62   8 o        1.607    -0.671    26.940     7.005
    63   1 h        0.804     0.330     0.637     1.254
    64   1 h        0.803     0.338     0.618     1.235
    65   8 o        1.608    -0.642    26.226     6.912
    66   1 h        0.805     0.309     0.695     1.309
    67   1 h        0.802     0.354     0.580     1.196
    68   8 o        1.606    -0.672    26.975     7.010
    69   1 h        0.802     0.337     0.619     1.236
    70   1 h        0.803     0.331     0.635     1.251
    71   8 o        1.608    -0.664    26.761     6.982
    72   1 h        0.804     0.326     0.647     1.264
    73   1 h        0.804     0.326     0.647     1.263
    74   8 o        1.608    -0.624    25.761     6.850
    75   1 h        0.806     0.290     0.752     1.362
    76   1 h        0.803     0.339     0.615     1.232
    77   8 o        1.609    -0.636    26.057     6.889
    78   1 h        0.803     0.352     0.584     1.200
    79   1 h        0.806     0.297     0.731     1.343
    80   8 o        1.609    -0.631    25.946     6.875
    81   1 h        0.805     0.316     0.676     1.292
    82   1 h        0.805     0.311     0.689     1.304
    83   8 o        1.607    -0.669    26.895     6.999
    84   1 h        0.804     0.337     0.621     1.237
    85   1 h        0.803     0.340     0.613     1.230
    86   8 o        1.608    -0.631    25.944     6.875
    87   1 h        0.803     0.343     0.604     1.221
    88   1 h        0.806     0.291     0.749     1.360
    89   8 o        1.607    -0.653    26.495     6.947
    90   1 h        0.805     0.328     0.642     1.258
    91   1 h        0.803     0.346     0.598     1.215
    92   8 o        1.609    -0.639    26.133     6.900
    93   1 h        0.804     0.329     0.640     1.257
    94   1 h        0.805     0.316     0.675     1.291
    95   8 o        1.609    -0.641    26.186     6.906
    96   1 h        0.805     0.305     0.705     1.319
    97   1 h        0.803     0.328     0.643     1.260
    98   8 o        1.607    -0.631    25.944     6.874
    99   1 h        0.801     0.345     0.600     1.217
   100   1 h        0.806     0.290     0.753     1.363
   101   8 o        1.610    -0.608    25.382     6.800
   102   1 h        0.806     0.289     0.756     1.366
   103   1 h        0.804     0.333     0.629     1.246
   104   8 o        1.608    -0.661    26.695     6.973
   105   1 h        0.804     0.318     0.671     1.286
   106   1 h        0.804     0.324     0.654     1.270
   107   8 o        1.610    -0.615    25.549     6.822
   108   1 h        0.805     0.313     0.684     1.299
   109   1 h        0.805     0.320     0.665     1.281
   110   8 o        1.609    -0.640    26.176     6.905
   111   1 h        0.805     0.298     0.728     1.341
   112   1 h        0.803     0.337     0.620     1.237
   113   8 o        1.609    -0.613    25.505     6.816
   114   1 h        0.804     0.341     0.610     1.227
   115   1 h        0.805     0.306     0.703     1.317
   116   8 o        1.610    -0.614    25.534     6.820
   117   1 h        0.805     0.302     0.715     1.328
   118   1 h        0.805     0.321     0.660     1.277
   119   8 o        1.610    -0.610    25.422     6.805
   120   1 h        0.806     0.286     0.763     1.372
   121   1 h        0.804     0.320     0.665     1.281
   122   8 o        1.607    -0.650    26.417     6.937
   123   1 h        0.805     0.306     0.702     1.316
   124   1 h        0.802     0.352     0.585     1.202
   125   8 o        1.610    -0.607    25.343     6.794
   126   1 h        0.805     0.331     0.636     1.252
   127   1 h        0.805     0.300     0.722     1.334
   128   8 o        1.608    -0.640    26.153     6.902
   129   1 h        0.804     0.322     0.660     1.276
   130   1 h        0.804     0.322     0.659     1.275
   131   8 o        1.610    -0.604    25.275     6.785
   132   1 h        0.806     0.294     0.739     1.350
   133   1 h        0.805     0.321     0.662     1.278
   134   8 o        1.609    -0.611    25.440     6.807
   135   1 h        0.806     0.291     0.748     1.358
   136   1 h        0.804     0.339     0.616     1.232
   137   8 o        1.610    -0.620    25.660     6.837
   138   1 h        0.805     0.303     0.711     1.325
   139   1 h        0.805     0.323     0.657     1.273

 Mol. C6AA /au·bohr⁶  :      95598.773316
 Mol. C8AA /au·bohr⁸  :    1727196.349740
 Mol. α(0) /au        :        435.194420


Wiberg/Mayer (AO) data.
largest (>0.10) Wiberg bond orders for each atom

 ---------------------------------------------------------------------------
     #   Z sym  total        # sym  WBO       # sym  WBO       # sym  WBO
 ---------------------------------------------------------------------------
     1   1 h    0.828 --     5 o    0.679     2 o    0.132
     2   8 o    1.903 --     4 h    0.826     3 h    0.823     1 h    0.132
     3   1 h    0.883 --     2 o    0.823
     4   1 h    0.886 --     2 o    0.826
     5   8 o    2.220 --     6 h    0.711     1 h    0.679     7 h    0.655
     6   1 h    0.838 --     5 o    0.711    11 o    0.115
     7   1 h    0.837 --     5 o    0.655    32 o    0.173
     8   8 o    1.865 --     9 h    0.851    10 h    0.817
     9   1 h    0.897 --     8 o    0.851
    10   1 h    0.883 --     8 o    0.817
    11   8 o    1.934 --    13 h    0.819    12 h    0.808     6 h    0.115
    12   1 h    0.883 --    11 o    0.808
    13   1 h    0.881 --    11 o    0.819
    14   8 o    1.831 --    16 h    0.832    15 h    0.802
    15   1 h    0.887 --    14 o    0.802
    16   1 h    0.894 --    14 o    0.832
    17   8 o    1.897 --    18 h    0.823    19 h    0.821
    18   1 h    0.889 --    17 o    0.823
    19   1 h    0.886 --    17 o    0.821
    20   8 o    1.913 --    22 h    0.815    21 h    0.792
    21   1 h    0.876 --    20 o    0.792
    22   1 h    0.882 --    20 o    0.815
    23   8 o    1.851 --    25 h    0.842    24 h    0.792
    24   1 h    0.879 --    23 o    0.792
    25   1 h    0.889 --    23 o    0.842
    26   8 o    1.872 --    27 h    0.818    28 h    0.809
    27   1 h    0.881 --    26 o    0.818
    28   1 h    0.887 --    26 o    0.809
    29   8 o    1.889 --    31 h    0.809    30 h    0.809
    30   1 h    0.877 --    29 o    0.809
    31   1 h    0.877 --    29 o    0.809
    32   8 o    1.964 --    33 h    0.794    34 h    0.777     7 h    0.173
    33   1 h    0.878 --    32 o    0.794
    34   1 h    0.871 --    32 o    0.777
    35   8 o    1.860 --    37 h    0.872    36 h    0.795
    36   1 h    0.872 --    35 o    0.795
    37   1 h    0.898 --    35 o    0.872
    38   8 o    1.857 --    39 h    0.872    40 h    0.834
    39   1 h    0.900 --    38 o    0.872
    40   1 h    0.885 --    38 o    0.834
    41   8 o    1.840 --    42 h    0.855    43 h    0.848
    42   1 h    0.896 --    41 o    0.855
    43   1 h    0.895 --    41 o    0.848
    44   8 o    1.850 --    46 h    0.830    45 h    0.780
    45   1 h    0.880 --    44 o    0.780
    46   1 h    0.891 --    44 o    0.830
    47   8 o    1.860 --    48 h    0.840    49 h    0.837
    48   1 h    0.890 --    47 o    0.840
    49   1 h    0.891 --    47 o    0.837
    50   8 o    1.847 --    52 h    0.830    51 h    0.820
    51   1 h    0.892 --    50 o    0.820
    52   1 h    0.892 --    50 o    0.830
    53   8 o    1.885 --    55 h    0.850    54 h    0.829
    54   1 h    0.884 --    53 o    0.829
    55   1 h    0.893 --    53 o    0.850
    56   8 o    1.851 --    57 h    0.912    58 h    0.820
    57   1 h    0.918 --    56 o    0.912
    58   1 h    0.884 --    56 o    0.820
    59   8 o    1.862 --    60 h    0.866    61 h    0.805
    60   1 h    0.902 --    59 o    0.866
    61   1 h    0.882 --    59 o    0.805
    62   8 o    1.851 --    63 h    0.840    64 h    0.821
    63   1 h    0.891 --    62 o    0.840
    64   1 h    0.886 --    62 o    0.821
    65   8 o    1.877 --    66 h    0.893    67 h    0.801
    66   1 h    0.905 --    65 o    0.893
    67   1 h    0.875 --    65 o    0.801
    68   8 o    1.896 --    70 h    0.821    69 h    0.794
    69   1 h    0.886 --    68 o    0.794
    70   1 h    0.890 --    68 o    0.821
    71   8 o    1.843 --    72 h    0.848    73 h    0.845
    72   1 h    0.894 --    71 o    0.848
    73   1 h    0.893 --    71 o    0.845
    74   8 o    1.860 --    75 h    0.910    76 h    0.821
    75   1 h    0.916 --    74 o    0.910
    76   1 h    0.885 --    74 o    0.821
    77   8 o    1.858 --    79 h    0.904    78 h    0.820
    78   1 h    0.876 --    77 o    0.820
    79   1 h    0.912 --    77 o    0.904
    80   8 o    1.837 --    82 h    0.881    81 h    0.867
    81   1 h    0.900 --    80 o    0.867
    82   1 h    0.903 --    80 o    0.881
    83   8 o    1.875 --    84 h    0.842    85 h    0.819
    84   1 h    0.887 --    83 o    0.842
    85   1 h    0.885 --    83 o    0.819
    86   8 o    1.849 --    88 h    0.911    87 h    0.815
    87   1 h    0.882 --    86 o    0.815
    88   1 h    0.915 --    86 o    0.911
    89   8 o    1.883 --    90 h    0.851    91 h    0.819
    90   1 h    0.892 --    89 o    0.851
    91   1 h    0.880 --    89 o    0.819
    92   8 o    1.841 --    94 h    0.878    93 h    0.848
    93   1 h    0.892 --    92 o    0.848
    94   1 h    0.900 --    92 o    0.878
    95   8 o    1.832 --    96 h    0.893    97 h    0.837
    96   1 h    0.907 --    95 o    0.893
    97   1 h    0.893 --    95 o    0.837
    98   8 o    1.870 --   100 h    0.908    99 h    0.799
    99   1 h    0.881 --    98 o    0.799
   100   1 h    0.916 --    98 o    0.908
   101   8 o    1.862 --   102 h    0.915   103 h    0.852
   102   1 h    0.917 --   101 o    0.915
   103   1 h    0.889 --   101 o    0.852
   104   8 o    1.822 --   106 h    0.849   105 h    0.847
   105   1 h    0.899 --   104 o    0.847
   106   1 h    0.895 --   104 o    0.849
   107   8 o    1.873 --   108 h    0.886   109 h    0.867
   108   1 h    0.902 --   107 o    0.886
   109   1 h    0.898 --   107 o    0.867
   110   8 o    1.841 --   111 h    0.901   112 h    0.826
   111   1 h    0.911 --   110 o    0.901
   112   1 h    0.887 --   110 o    0.826
   113   8 o    1.888 --   115 h    0.899   114 h    0.844
   114   1 h    0.884 --   113 o    0.844
   115   1 h    0.906 --   113 o    0.899
   116   8 o    1.843 --   117 h    0.901   118 h    0.872
   117   1 h    0.909 --   116 o    0.901
   118   1 h    0.897 --   116 o    0.872
   119   8 o    1.841 --   120 h    0.914   121 h    0.861
   120   1 h    0.918 --   119 o    0.914
   121   1 h    0.898 --   119 o    0.861
   122   8 o    1.868 --   123 h    0.894   124 h    0.791
   123   1 h    0.906 --   122 o    0.894
   124   1 h    0.876 --   122 o    0.791
   125   8 o    1.864 --   127 h    0.906   126 h    0.864
   126   1 h    0.891 --   125 o    0.864
   127   1 h    0.910 --   125 o    0.906
   128   8 o    1.855 --   129 h    0.861   130 h    0.854
   129   1 h    0.897 --   128 o    0.861
   130   1 h    0.896 --   128 o    0.854
   131   8 o    1.843 --   132 h    0.909   133 h    0.876
   132   1 h    0.913 --   131 o    0.909
   133   1 h    0.897 --   131 o    0.876
   134   8 o    1.875 --   135 h    0.912   136 h    0.841
   135   1 h    0.915 --   134 o    0.912
   136   1 h    0.885 --   134 o    0.841
   137   8 o    1.850 --   138 h    0.891   139 h    0.869
   138   1 h    0.908 --   137 o    0.891
   139   1 h    0.896 --   137 o    0.869
 ---------------------------------------------------------------------------

Topologies differ in total number of bonds
Writing topology from bond orders to xtbtopo.mol

molecular dipole:
                 x           y           z       tot (Debye)
 q only:        1.032       0.154      -0.098
   full:        1.884      -0.254      -0.599       5.067
molecular quadrupole (traceless):
                xx          xy          yy          xz          yz          zz
 q only:       12.426       4.895     -15.051      -1.033      15.298       2.625
  q+dip:       17.367       6.681     -17.367      -0.976      24.968       0.000
   full:       17.607       6.666     -16.644      -0.823      25.674      -0.963


           -------------------------------------------------
          | TOTAL ENERGY             -234.224537713602 Eh   |
          | GRADIENT NORM               0.002341007669 Eh/α |
          | HOMO-LUMO GAP               8.584283073613 eV   |
           -------------------------------------------------

------------------------------------------------------------------------
 * finished run on 2022/11/23 at 19:44:21.450     
------------------------------------------------------------------------
 total:
 * wall-time:     0 d,  0 h,  0 min,  0.474 sec
 *  cpu-time:     0 d,  0 h,  0 min, 17.521 sec
 * ratio c/w:    36.929 speedup
 SCF:
 * wall-time:     0 d,  0 h,  0 min,  0.400 sec
 *  cpu-time:     0 d,  0 h,  0 min, 15.670 sec
 * ratio c/w:    39.223 speedup

