      -----------------------------------------------------------      
     |                   =====================                   |     
     |                           x T B                           |     
     |                   =====================                   |     
     |                         S. Grimme                         |     
     |          Mulliken Center for Theoretical Chemistry        |     
     |                    University of Bonn                     |     
      -----------------------------------------------------------      

   * xtb version 6.5.1 (579679a) compiled by 'ehlert@majestix' on 2022-07-11

   xtb is free software: you can redistribute it and/or modify it under
   the terms of the GNU Lesser General Public License as published by
   the Free Software Foundation, either version 3 of the License, or
   (at your option) any later version.
   
   xtb is distributed in the hope that it will be useful,
   but WITHOUT ANY WARRANTY; without even the implied warranty of
   MERCHANTABILITY or FITNESS FOR A PARTICULAR PURPOSE.  See the
   GNU Lesser General Public License for more details.
   
   Cite this work as:
   * C. Bannwarth, E. Caldeweyher, S. Ehlert, A. Hansen, P. Pracht,
     J. Seibert, S. Spicher, S. Grimme, WIREs Comput. Mol. Sci., 2020, 11,
     e01493. DOI: 10.1002/wcms.1493
   
   for GFN2-xTB:
   * C. Bannwarth, S. Ehlert and S. Grimme., J. Chem. Theory Comput., 2019,
     15, 1652-1671. DOI: 10.1021/acs.jctc.8b01176
   for GFN1-xTB:
   * S. Grimme, C. Bannwarth, P. Shushkov, J. Chem. Theory Comput., 2017,
     13, 1989-2009. DOI: 10.1021/acs.jctc.7b00118
   for GFN0-xTB:
   * P. Pracht, E. Caldeweyher, S. Ehlert, S. Grimme, ChemRxiv, 2019, preprint.
     DOI: 10.26434/chemrxiv.8326202.v1
   for GFN-FF:
   * S. Spicher and S. Grimme, Angew. Chem. Int. Ed., 2020, 59, 15665-15673.
     DOI: 10.1002/anie.202004239
   
   for ALPB and GBSA implicit solvation:
   * S. Ehlert, M. Stahn, S. Spicher, S. Grimme, J. Chem. Theory Comput.,
     2021, 17, 4250-4261. DOI: 10.1021/acs.jctc.1c00471
   
   for DFT-D4:
   * E. Caldeweyher, C. Bannwarth and S. Grimme, J. Chem. Phys., 2017,
     147, 034112. DOI: 10.1063/1.4993215
   * E. Caldeweyher, S. Ehlert, A. Hansen, H. Neugebauer, S. Spicher,
     C. Bannwarth and S. Grimme, J. Chem. Phys., 2019, 150, 154122.
     DOI: 10.1063/1.5090222
   * E. Caldeweyher, J.-M. Mewes, S. Ehlert and S. Grimme, Phys. Chem. Chem. Phys.
     2020, 22, 8499-8512. DOI: 10.1039/D0CP00502A
   
   for sTDA-xTB:
   * S. Grimme and C. Bannwarth, J. Chem. Phys., 2016, 145, 054103.
     DOI: 10.1063/1.4959605
   
   in the mass-spec context:
   * V. Asgeirsson, C. Bauer and S. Grimme, Chem. Sci., 2017, 8, 4879.
     DOI: 10.1039/c7sc00601b
   * J. Koopman and S. Grimme, ACS Omega 2019, 4, 12, 15120-15133.
     DOI: 10.1021/acsomega.9b02011
   
   for metadynamics refer to:
   * S. Grimme, J. Chem. Theory Comput., 2019, 155, 2847-2862
     DOI: 10.1021/acs.jctc.9b00143
   
   for SPH calculations refer to:
   * S. Spicher and S. Grimme, J. Chem. Theory Comput., 2021, 17, 1701-1714
     DOI: 10.1021/acs.jctc.0c01306
   
   with help from (in alphabetical order)
   P. Atkinson, C. Bannwarth, F. Bohle, G. Brandenburg, E. Caldeweyher
   M. Checinski, S. Dohm, S. Ehlert, S. Ehrlich, I. Gerasimov, C. Hölzer
   A. Katbashev, J. Koopman, C. Lavigne, S. Lehtola, F. März, M. Müller,
   F. Musil, H. Neugebauer, J. Pisarek, C. Plett, P. Pracht, F. Pultar,
   J. Seibert, P. Shushkov, S. Spicher, M. Stahn, M. Steiner, T. Strunk,
   J. Stückrath, T. Rose, and J. Unsleber
   
 * started run on 2022/11/23 at 19:44:07.983     

           -------------------------------------------------
          |                Calculation Setup                |
           -------------------------------------------------

          program call               : xtb cluster.coord --gfn2 --opt 0.00 --input xcontrol
          hostname                   : cn0253
          coordinate file            : cluster.coord
          omp threads                :                    40

   ID    Z sym.   atoms
    1    1 h      1, 3, 4, 6, 7, 9, 10, 12, 13, 15, 16, 18, 19, 21, 22, 24,
                  25, 27, 28, 30, 31, 33, 34, 36, 37, 39, 40, 42, 43, 45, 46,
                  48, 49, 51, 52, 54, 55, 57, 58, 60, 61, 63, 64, 66, 67, 69,
                  70, 72, 73, 75, 76, 78, 79, 81, 82, 84, 85, 87, 88, 90, 91,
                  93, 94, 96, 97, 99, 100, 102, 103, 105, 106, 108, 109, 111,
                  112, 114, 115, 117, 118, 120, 121, 123, 124, 126, 127, 129,
                  130, 132, 133, 135, 136, 138, 139, 141, 142
    2    8 o      2, 5, 8, 11, 14, 17, 20, 23, 26, 29, 32, 35, 38, 41, 44,
                  47, 50, 53, 56, 59, 62, 65, 68, 71, 74, 77, 80, 83, 86, 89,
                  92, 95, 98, 101, 104, 107, 110, 113, 116, 119, 122, 125,
                  128, 131, 134, 137, 140
ellipsoidal wallpotenial with radii    8.1561743 Å    8.1561743 Å    8.1561743 Å
ellipsoidal wallpotenial with radii    1.6799676 Å    1.6799676 Å    1.6799676 Å

molecular fragmentation (1/2 indicates fragments):
122211122222222222222222222222222222222222222222222222222222222222222222
2222222222222222222222222222222222222222222222222222222222222222222222
# atoms in fragment 1/2:     4   138
 fragment masses (1/2) :       19.02      828.70
CMA distance (Bohr)    :   2.026
constraining FC (au)   :  0.0500

           -------------------------------------------------
          |                 G F N 2 - x T B                 |
           -------------------------------------------------

        Reference                      10.1021/acs.jctc.8b01176
      * Hamiltonian:
        H0-scaling (s, p, d)           1.850000    2.230000    2.230000
        zeta-weighting                 0.500000
      * Dispersion:
        s8                             2.700000
        a1                             0.520000
        a2                             5.000000
        s9                             5.000000
      * Repulsion:
        kExp                           1.500000    1.000000
        rExp                           1.000000
      * Coulomb:
        alpha                          2.000000
        third order                    shell-resolved
        anisotropic                    true
        a3                             3.000000
        a5                             4.000000
        cn-shift                       1.200000
        cn-exp                         4.000000
        max-rad                        5.000000


          ...................................................
          :                      SETUP                      :
          :.................................................:
          :  # basis functions                 283          :
          :  # atomic orbitals                 283          :
          :  # shells                          189          :
          :  # electrons                       376          :
          :  max. iterations                   250          :
          :  Hamiltonian                  GFN2-xTB          :
          :  restarted?                      false          :
          :  GBSA solvation                  false          :
          :  PC potential                    false          :
          :  electronic temp.          300.0000000     K    :
          :  accuracy                    1.0000000          :
          :  -> integral cutoff          0.2500000E+02      :
          :  -> integral neglect         0.1000000E-07      :
          :  -> SCF convergence          0.1000000E-05 Eh   :
          :  -> wf. convergence          0.1000000E-03 e    :
          :  Broyden damping             0.4000000          :
          ...................................................

 iter      E             dE          RMSdq      gap      omega  full diag
   1   -240.7356111 -0.240736E+03  0.405E+00    9.07       0.0  T
   2   -240.7545382 -0.189271E-01  0.240E+00    9.04       1.0  T
   3   -240.7608590 -0.632082E-02  0.231E-01    8.45       1.0  T
   4   -240.7621262 -0.126718E-02  0.479E-02    8.61       1.0  T
   5   -240.7621421 -0.158933E-04  0.303E-02    8.59       1.0  T
   6   -240.7621480 -0.589778E-05  0.440E-03    8.61       1.9  T
   7   -240.7621485 -0.496884E-06  0.706E-04    8.61      11.9  T
   8   -240.7621485 -0.607253E-08  0.325E-04    8.61      25.8  T

   *** convergence criteria satisfied after 8 iterations ***

         #    Occupation            Energy/Eh            Energy/eV
      -------------------------------------------------------------
         1        2.0000           -0.7995734             -21.7575
       ...           ...                  ...                  ...
       182        2.0000           -0.5055223             -13.7560
       183        2.0000           -0.5037119             -13.7067
       184        2.0000           -0.5031364             -13.6910
       185        2.0000           -0.5026683             -13.6783
       186        2.0000           -0.5022896             -13.6680
       187        2.0000           -0.4998040             -13.6004
       188        2.0000           -0.4961828             -13.5018 (HOMO)
       189                         -0.1799159              -4.8958 (LUMO)
       190                         -0.1204998              -3.2790
       191                         -0.1164204              -3.1680
       192                         -0.1154945              -3.1428
       193                         -0.0752539              -2.0478
       ...                                ...                  ...
       283                          0.2964234               8.0661
      -------------------------------------------------------------
                  HL-Gap            0.3162669 Eh            8.6061 eV
             Fermi-level           -0.3380494 Eh           -9.1988 eV

 SCC (total)                   0 d,  0 h,  0 min,  0.221 sec
 SCC setup                      ...        0 min,  0.001 sec (  0.405%)
 Dispersion                     ...        0 min,  0.004 sec (  1.699%)
 classical contributions        ...        0 min,  0.001 sec (  0.357%)
 integral evaluation            ...        0 min,  0.013 sec (  6.022%)
 iterations                     ...        0 min,  0.162 sec ( 73.454%)
 molecular gradient             ...        0 min,  0.035 sec ( 15.897%)
 printout                       ...        0 min,  0.004 sec (  2.034%)

         :::::::::::::::::::::::::::::::::::::::::::::::::::::
         ::                     SUMMARY                     ::
         :::::::::::::::::::::::::::::::::::::::::::::::::::::
         :: total energy            -239.302747965606 Eh    ::
         :: gradient norm              0.013315084693 Eh/a0 ::
         :: HOMO-LUMO gap              8.606059475356 eV    ::
         ::.................................................::
         :: SCC energy              -240.762148507174 Eh    ::
         :: -> isotropic ES            1.383573639428 Eh    ::
         :: -> anisotropic ES         -0.283217749490 Eh    ::
         :: -> anisotropic XC         -0.025789885462 Eh    ::
         :: -> dispersion             -0.119405591645 Eh    ::
         :: repulsion energy           1.439454982879 Eh    ::
         :: add. restraining           0.004869333078 Eh    ::
         :: total charge               1.000000000000 e     ::
         :::::::::::::::::::::::::::::::::::::::::::::::::::::

      ----------------------------------------------------------- 
     |                   =====================                   |
     |                        A N C O P T                        |
     |                   =====================                   |
     |               Approximate Normal Coordinate               |
     |                Rational Function Optimizer                |
      ----------------------------------------------------------- 

          ...................................................
          :                      SETUP                      :
          :.................................................:
          :   optimization level            normal          :
          :   max. optcycles                   426          :
          :   ANC micro-cycles                  20          :
          :   degrees of freedom               420          :
          :.................................................:
          :   RF solver                   davidson          :
          :   write xtbopt.log                true          :
          :   linear?                        false          :
          :   energy convergence         0.5000000E-05 Eh   :
          :   grad. convergence          0.1000000E-02 Eh/α :
          :   maximium RF displ.         1.0000000          :
          :   Hlow (freq-cutoff)         0.1000000E-01      :
          :   Hmax (freq-cutoff)         5.0000000          :
          :   S6 in model hess.         20.0000000          :
          ...................................................

generating ANC from model Hessian ...
Using Lindh-Hessian (1995)
 Shifting diagonal of input Hessian by   1.017749556006833E-002
 Lowest  eigenvalues of input Hessian
    0.010000    0.000000    0.000000    0.000000    0.000000    0.000000
    0.000000    0.010198    0.010220    0.010228    0.010256    0.010266
    0.010294    0.010303    0.010332    0.010358    0.010406    0.010444
 Highest eigenvalues
    1.427882    1.429981    1.433849    1.438393    1.438759    1.442718
 

........................................................................
.............................. CYCLE    1 ..............................
........................................................................
   1   -240.7621485 -0.240762E+03  0.459E-05    8.61       0.0  T
   2   -240.7621485 -0.280238E-10  0.258E-05    8.61     325.4  T
   3   -240.7621485 -0.457590E-11  0.718E-06    8.61    1168.3  T
     SCC iter.                  ...        0 min,  0.045 sec
     gradient                   ...        0 min,  0.025 sec
 * total energy  :  -239.3027480 Eh     change       -0.2142201E-08 Eh
   gradient norm :     0.0132302 Eh/α   predicted     0.0000000E+00 (-100.00%)
   displ. norm   :     0.3435321 α      lambda       -0.2098726E-02
   maximum displ.:     0.1131363 α      in ANC's #30, #21, #41, ...

........................................................................
.............................. CYCLE    2 ..............................
........................................................................
   1   -240.7617217 -0.240762E+03  0.344E-02    8.58       0.0  T
   2   -240.7617241 -0.244577E-05  0.211E-02    8.58       1.0  T
   3   -240.7617252 -0.105308E-05  0.182E-03    8.58       4.6  T
   4   -240.7617252 -0.588084E-07  0.584E-04    8.58      14.4  T
   5   -240.7617252 -0.180057E-08  0.758E-05    8.58     110.6  T
     SCC iter.                  ...        0 min,  0.071 sec
     gradient                   ...        0 min,  0.025 sec
 * total energy  :  -239.3043083 Eh     change       -0.1560343E-02 Eh
   gradient norm :     0.0085617 Eh/α   predicted    -0.1173206E-02 ( -24.81%)
   displ. norm   :     0.4475760 α      lambda       -0.1668903E-02
   maximum displ.:     0.1640328 α      in ANC's #30, #33, #35, ...

........................................................................
.............................. CYCLE    3 ..............................
........................................................................
   1   -240.7598022 -0.240760E+03  0.407E-02    8.58       0.0  T
   2   -240.7598106 -0.845146E-05  0.245E-02    8.58       1.0  T
   3   -240.7598126 -0.200185E-05  0.379E-03    8.57       2.2  T
   4   -240.7598129 -0.282571E-06  0.905E-04    8.57       9.3  T
   5   -240.7598129 -0.438149E-08  0.111E-04    8.57      75.9  T
     SCC iter.                  ...        0 min,  0.059 sec
     gradient                   ...        0 min,  0.026 sec
 * total energy  :  -239.3053494 Eh     change       -0.1041121E-02 Eh
   gradient norm :     0.0081517 Eh/α   predicted    -0.1001946E-02 (  -3.76%)
   displ. norm   :     0.3199646 α      lambda       -0.6547600E-03
   maximum displ.:     0.0964362 α      in ANC's #30, #35, #42, ...

........................................................................
.............................. CYCLE    4 ..............................
........................................................................
   1   -240.7594853 -0.240759E+03  0.283E-02    8.57       0.0  T
   2   -240.7594887 -0.339580E-05  0.172E-02    8.57       1.0  T
   3   -240.7594896 -0.984894E-06  0.238E-03    8.57       3.5  T
   4   -240.7594898 -0.114595E-06  0.624E-04    8.57      13.4  T
   5   -240.7594898 -0.240112E-08  0.849E-05    8.57      98.8  T
     SCC iter.                  ...        0 min,  0.059 sec
     gradient                   ...        0 min,  0.024 sec
 * total energy  :  -239.3056773 Eh     change       -0.3278968E-03 Eh
   gradient norm :     0.0105841 Eh/α   predicted    -0.3609348E-03 (  10.08%)
   displ. norm   :     0.2200496 α      lambda       -0.4017085E-03
   maximum displ.:     0.0828048 α      in ANC's #30, #3, #25, ...

........................................................................
.............................. CYCLE    5 ..............................
........................................................................
   1   -240.7611427 -0.240761E+03  0.185E-02    8.57       0.0  T
   2   -240.7611437 -0.985555E-06  0.112E-02    8.57       1.0  T
   3   -240.7611440 -0.308029E-06  0.121E-03    8.58       6.9  T
   4   -240.7611440 -0.309985E-07  0.331E-04    8.58      25.4  T
   5   -240.7611440 -0.734900E-09  0.533E-05    8.58     157.5  T
     SCC iter.                  ...        0 min,  0.059 sec
     gradient                   ...        0 min,  0.024 sec
 * total energy  :  -239.3059404 Eh     change       -0.2630928E-03 Eh
   gradient norm :     0.0066865 Eh/α   predicted    -0.2105815E-03 ( -19.96%)
   displ. norm   :     0.2931774 α      lambda       -0.4042388E-03
   maximum displ.:     0.0923878 α      in ANC's #3, #30, #35, ...

........................................................................
.............................. CYCLE    6 ..............................
........................................................................
   1   -240.7612136 -0.240761E+03  0.297E-02    8.57       0.0  T
   2   -240.7612160 -0.232950E-05  0.184E-02    8.58       1.0  T
   3   -240.7612171 -0.117380E-05  0.183E-03    8.58       4.6  T
   4   -240.7612172 -0.484301E-07  0.600E-04    8.58      14.0  T
   5   -240.7612172 -0.219512E-08  0.803E-05    8.58     104.6  T
     SCC iter.                  ...        0 min,  0.059 sec
     gradient                   ...        0 min,  0.024 sec
 * total energy  :  -239.3061939 Eh     change       -0.2535257E-03 Eh
   gradient norm :     0.0112582 Eh/α   predicted    -0.2194951E-03 ( -13.42%)
   displ. norm   :     0.3539241 α      lambda       -0.4563334E-03
   maximum displ.:     0.1218952 α      in ANC's #3, #35, #2, ...

........................................................................
.............................. CYCLE    7 ..............................
........................................................................
   1   -240.7602865 -0.240760E+03  0.323E-02    8.58       0.0  T
   2   -240.7602900 -0.354552E-05  0.196E-02    8.58       1.0  T
   3   -240.7602908 -0.775449E-06  0.235E-03    8.59       3.6  T
   4   -240.7602909 -0.133213E-06  0.529E-04    8.58      15.9  T
   5   -240.7602909 -0.161072E-08  0.861E-05    8.58      97.4  T
     SCC iter.                  ...        0 min,  0.059 sec
     gradient                   ...        0 min,  0.024 sec
 * total energy  :  -239.3064320 Eh     change       -0.2380392E-03 Eh
   gradient norm :     0.0097176 Eh/α   predicted    -0.2567521E-03 (   7.86%)
   displ. norm   :     0.2664767 α      lambda       -0.3458740E-03
   maximum displ.:     0.0865200 α      in ANC's #3, #1, #35, ...

........................................................................
.............................. CYCLE    8 ..............................
........................................................................
   1   -240.7604824 -0.240760E+03  0.281E-02    8.57       0.0  T
   2   -240.7604853 -0.294997E-05  0.173E-02    8.58       1.0  T
   3   -240.7604864 -0.108709E-05  0.217E-03    8.57       3.9  T
   4   -240.7604865 -0.889813E-07  0.624E-04    8.57      13.4  T
   5   -240.7604865 -0.202647E-08  0.870E-05    8.57      96.5  T
     SCC iter.                  ...        0 min,  0.060 sec
     gradient                   ...        0 min,  0.024 sec
 * total energy  :  -239.3066067 Eh     change       -0.1746653E-03 Eh
   gradient norm :     0.0096763 Eh/α   predicted    -0.1852184E-03 (   6.04%)
   displ. norm   :     0.2028997 α      lambda       -0.2972523E-03
   maximum displ.:     0.0920247 α      in ANC's #1, #3, #6, ...

........................................................................
.............................. CYCLE    9 ..............................
........................................................................
   1   -240.7624945 -0.240762E+03  0.200E-02    8.57       0.0  T
   2   -240.7624970 -0.246691E-05  0.121E-02    8.57       1.0  T
   3   -240.7624977 -0.677092E-06  0.209E-03    8.57       4.0  T
   4   -240.7624978 -0.796181E-07  0.548E-04    8.57      15.3  T
   5   -240.7624978 -0.139099E-08  0.645E-05    8.57     130.2  T
     SCC iter.                  ...        0 min,  0.059 sec
     gradient                   ...        0 min,  0.024 sec
 * total energy  :  -239.3067256 Eh     change       -0.1189823E-03 Eh
   gradient norm :     0.0088789 Eh/α   predicted    -0.1547581E-03 (  30.07%)
   displ. norm   :     0.3883324 α      lambda       -0.5448769E-03
   maximum displ.:     0.1676950 α      in ANC's #1, #35, #3, ...

........................................................................
.............................. CYCLE   10 ..............................
........................................................................
   1   -240.7568938 -0.240757E+03  0.451E-02    8.57       0.0  T
   2   -240.7569022 -0.843029E-05  0.275E-02    8.57       1.0  T
   3   -240.7569050 -0.279511E-05  0.383E-03    8.57       2.2  T
   4   -240.7569053 -0.294580E-06  0.119E-03    8.57       7.0  T
   5   -240.7569053 -0.912647E-08  0.121E-04    8.57      69.5  T
   6   -240.7569053 -0.189772E-09  0.466E-05    8.57     180.1  T
     SCC iter.                  ...        0 min,  0.071 sec
     gradient                   ...        0 min,  0.024 sec
 * total energy  :  -239.3067809 Eh     change       -0.5522925E-04 Eh
   gradient norm :     0.0198837 Eh/α   predicted    -0.3135247E-03 ( 467.68%)
   displ. norm   :     0.1623823 α      lambda       -0.7266313E-03
   maximum displ.:     0.0467726 α      in ANC's #99, #33, #30, ...

........................................................................
.............................. CYCLE   11 ..............................
........................................................................
   1   -240.7637037 -0.240764E+03  0.254E-02    8.60       0.0  T
   2   -240.7637066 -0.286284E-05  0.153E-02    8.60       1.0  T
   3   -240.7637077 -0.112358E-05  0.230E-03    8.60       3.6  T
   4   -240.7637078 -0.787566E-07  0.677E-04    8.60      12.4  T
   5   -240.7637078 -0.223721E-08  0.681E-05    8.60     123.3  T
     SCC iter.                  ...        0 min,  0.059 sec
     gradient                   ...        0 min,  0.024 sec
 * total energy  :  -239.3069921 Eh     change       -0.2112790E-03 Eh
   gradient norm :     0.0099855 Eh/α   predicted    -0.3728939E-03 (  76.49%)
   displ. norm   :     0.1946303 α      lambda       -0.4223315E-03
   maximum displ.:     0.0569742 α      in ANC's #1, #3, #30, ...

........................................................................
.............................. CYCLE   12 ..............................
........................................................................
   1   -240.7617109 -0.240762E+03  0.245E-02    8.58       0.0  T
   2   -240.7617126 -0.175025E-05  0.150E-02    8.58       1.0  T
   3   -240.7617133 -0.699308E-06  0.164E-03    8.58       5.1  T
   4   -240.7617134 -0.483859E-07  0.529E-04    8.58      15.9  T
   5   -240.7617134 -0.159295E-08  0.637E-05    8.58     131.8  T
     SCC iter.                  ...        0 min,  0.059 sec
     gradient                   ...        0 min,  0.024 sec
 * total energy  :  -239.3071324 Eh     change       -0.1402923E-03 Eh
   gradient norm :     0.0099426 Eh/α   predicted    -0.2191668E-03 (  56.22%)
   displ. norm   :     0.1697198 α      lambda       -0.2403767E-03
   maximum displ.:     0.0756310 α      in ANC's #1, #35, #3, ...

........................................................................
.............................. CYCLE   13 ..............................
........................................................................
   1   -240.7615537 -0.240762E+03  0.178E-02    8.58       0.0  T
   2   -240.7615544 -0.703689E-06  0.109E-02    8.58       1.0  T
   3   -240.7615547 -0.325036E-06  0.105E-03    8.58       8.0  T
   4   -240.7615547 -0.175975E-07  0.363E-04    8.58      23.1  T
   5   -240.7615547 -0.845489E-09  0.395E-05    8.58     212.4  T
     SCC iter.                  ...        0 min,  0.060 sec
     gradient                   ...        0 min,  0.024 sec
 * total energy  :  -239.3072964 Eh     change       -0.1639811E-03 Eh
   gradient norm :     0.0051564 Eh/α   predicted    -0.1236530E-03 ( -24.59%)
   displ. norm   :     0.2905644 α      lambda       -0.2085526E-03
   maximum displ.:     0.1425858 α      in ANC's #1, #3, #35, ...

........................................................................
.............................. CYCLE   14 ..............................
........................................................................
   1   -240.7608981 -0.240761E+03  0.275E-02    8.59       0.0  T
   2   -240.7609004 -0.226090E-05  0.168E-02    8.59       1.0  T
   3   -240.7609012 -0.794787E-06  0.185E-03    8.59       4.5  T
   4   -240.7609012 -0.746794E-07  0.572E-04    8.59      14.7  T
   5   -240.7609012 -0.201075E-08  0.720E-05    8.59     116.6  T
     SCC iter.                  ...        0 min,  0.060 sec
     gradient                   ...        0 min,  0.024 sec
 * total energy  :  -239.3074340 Eh     change       -0.1376103E-03 Eh
   gradient norm :     0.0087627 Eh/α   predicted    -0.1130836E-03 ( -17.82%)
   displ. norm   :     0.2663585 α      lambda       -0.2412366E-03
   maximum displ.:     0.1193163 α      in ANC's #1, #28, #24, ...

........................................................................
.............................. CYCLE   15 ..............................
........................................................................
   1   -240.7633897 -0.240763E+03  0.235E-02    8.59       0.0  T
   2   -240.7633918 -0.209600E-05  0.143E-02    8.59       1.0  T
   3   -240.7633923 -0.560678E-06  0.178E-03    8.59       4.7  T
   4   -240.7633924 -0.727201E-07  0.442E-04    8.59      19.0  T
   5   -240.7633924 -0.980634E-09  0.585E-05    8.59     143.5  T
     SCC iter.                  ...        0 min,  0.059 sec
     gradient                   ...        0 min,  0.024 sec
 * total energy  :  -239.3075946 Eh     change       -0.1605343E-03 Eh
   gradient norm :     0.0084901 Eh/α   predicted    -0.1291779E-03 ( -19.53%)
   displ. norm   :     0.4018978 α      lambda       -0.2833581E-03
   maximum displ.:     0.1937436 α      in ANC's #1, #3, #70, ...

........................................................................
.............................. CYCLE   16 ..............................
........................................................................
   1   -240.7612369 -0.240761E+03  0.379E-02    8.58       0.0  T
   2   -240.7612413 -0.435019E-05  0.232E-02    8.58       1.0  T
   3   -240.7612428 -0.152600E-05  0.254E-03    8.58       3.3  T
   4   -240.7612429 -0.140614E-06  0.749E-04    8.58      11.2  T
   5   -240.7612429 -0.339267E-08  0.103E-04    8.58      81.2  T
     SCC iter.                  ...        0 min,  0.059 sec
     gradient                   ...        0 min,  0.024 sec
 * total energy  :  -239.3077534 Eh     change       -0.1588789E-03 Eh
   gradient norm :     0.0079995 Eh/α   predicted    -0.1645688E-03 (   3.58%)
   displ. norm   :     0.2007715 α      lambda       -0.2395447E-03
   maximum displ.:     0.0621381 α      in ANC's #1, #28, #20, ...

........................................................................
.............................. CYCLE   17 ..............................
........................................................................
   1   -240.7634505 -0.240763E+03  0.197E-02    8.58       0.0  T
   2   -240.7634521 -0.159080E-05  0.119E-02    8.58       1.0  T
   3   -240.7634526 -0.449666E-06  0.163E-03    8.58       5.1  T
   4   -240.7634526 -0.525029E-07  0.427E-04    8.58      19.7  T
   5   -240.7634526 -0.999705E-09  0.502E-05    8.58     167.0  T
     SCC iter.                  ...        0 min,  0.059 sec
     gradient                   ...        0 min,  0.024 sec
 * total energy  :  -239.3078409 Eh     change       -0.8746572E-04 Eh
   gradient norm :     0.0094011 Eh/α   predicted    -0.1246038E-03 (  42.46%)
   displ. norm   :     0.1725251 α      lambda       -0.1907920E-03
   maximum displ.:     0.0691490 α      in ANC's #1, #45, #61, ...

........................................................................
.............................. CYCLE   18 ..............................
........................................................................
   1   -240.7642303 -0.240764E+03  0.172E-02    8.58       0.0  T
   2   -240.7642315 -0.113580E-05  0.106E-02    8.58       1.0  T
   3   -240.7642319 -0.420172E-06  0.136E-03    8.58       6.1  T
   4   -240.7642319 -0.356077E-07  0.418E-04    8.58      20.1  T
   5   -240.7642319 -0.995669E-09  0.461E-05    8.58     182.2  T
     SCC iter.                  ...        0 min,  0.060 sec
     gradient                   ...        0 min,  0.024 sec
 * total energy  :  -239.3079471 Eh     change       -0.1062327E-03 Eh
   gradient norm :     0.0070371 Eh/α   predicted    -0.9823664E-04 (  -7.53%)
   displ. norm   :     0.3038637 α      lambda       -0.2475605E-03
   maximum displ.:     0.1300352 α      in ANC's #1, #45, #61, ...

........................................................................
.............................. CYCLE   19 ..............................
........................................................................
   1   -240.7614836 -0.240761E+03  0.312E-02    8.58       0.0  T
   2   -240.7614860 -0.245208E-05  0.191E-02    8.58       1.0  T
   3   -240.7614871 -0.104076E-05  0.192E-03    8.58       4.4  T
   4   -240.7614871 -0.652523E-07  0.620E-04    8.58      13.5  T
   5   -240.7614871 -0.231478E-08  0.769E-05    8.58     109.2  T
     SCC iter.                  ...        0 min,  0.059 sec
     gradient                   ...        0 min,  0.024 sec
 * total energy  :  -239.3080464 Eh     change       -0.9930730E-04 Eh
   gradient norm :     0.0106796 Eh/α   predicted    -0.1352099E-03 (  36.15%)
   displ. norm   :     0.1540759 α      lambda       -0.2163471E-03
   maximum displ.:     0.0430886 α      in ANC's #19, #45, #20, ...

........................................................................
.............................. CYCLE   20 ..............................
........................................................................
   1   -240.7643627 -0.240764E+03  0.129E-02    8.59       0.0  T
   2   -240.7643632 -0.467139E-06  0.779E-03    8.59       1.1  T
   3   -240.7643634 -0.156828E-06  0.864E-04    8.59       9.7  T
   4   -240.7643634 -0.139230E-07  0.262E-04    8.59      32.1  T
     SCC iter.                  ...        0 min,  0.048 sec
     gradient                   ...        0 min,  0.024 sec
 * total energy  :  -239.3081709 Eh     change       -0.1244714E-03 Eh
   gradient norm :     0.0077811 Eh/α   predicted    -0.1107460E-03 ( -11.03%)
   displ. norm   :     0.4240813 α      lambda       -0.4061600E-03
   maximum displ.:     0.1360311 α      in ANC's #1, #45, #30, ...
 * RMSD in coord.:     0.3324708 α      energy gain  -0.5422950E-02 Eh

generating ANC from model Hessian ...
Using Lindh-Hessian (1995)
 Shifting diagonal of input Hessian by   9.965575600591839E-003
 Lowest  eigenvalues of input Hessian
    0.000000    0.000000    0.000000    0.000000    0.000000    0.000000
    0.010000    0.010013    0.010032    0.010042    0.010053    0.010059
    0.010095    0.010104    0.010162    0.010196    0.010217    0.010248
 Highest eigenvalues
    1.425850    1.428506    1.433074    1.436900    1.439020    1.441504
 

........................................................................
.............................. CYCLE   21 ..............................
........................................................................
   1   -240.7589029 -0.240759E+03  0.427E-02    8.58       0.0  T
   2   -240.7589078 -0.493083E-05  0.261E-02    8.58       1.0  T
   3   -240.7589095 -0.167375E-05  0.273E-03    8.58       3.1  T
   4   -240.7589097 -0.157850E-06  0.808E-04    8.58      10.4  T
   5   -240.7589097 -0.360689E-08  0.969E-05    8.58      86.6  T
     SCC iter.                  ...        0 min,  0.059 sec
     gradient                   ...        0 min,  0.024 sec
 * total energy  :  -239.3082211 Eh     change       -0.5022432E-04 Eh
   gradient norm :     0.0159268 Eh/α   predicted     0.0000000E+00 (-100.00%)
   displ. norm   :     0.1238193 α      lambda       -0.5354731E-03
   maximum displ.:     0.0278325 α      in ANC's #110, #107, #109, ...

........................................................................
.............................. CYCLE   22 ..............................
........................................................................
   1   -240.7620818 -0.240762E+03  0.212E-02    8.59       0.0  T
   2   -240.7620830 -0.120074E-05  0.130E-02    8.59       1.0  T
   3   -240.7620835 -0.510756E-06  0.127E-03    8.59       6.6  T
   4   -240.7620836 -0.284277E-07  0.399E-04    8.59      21.0  T
   5   -240.7620836 -0.105095E-08  0.535E-05    8.59     156.7  T
     SCC iter.                  ...        0 min,  0.059 sec
     gradient                   ...        0 min,  0.024 sec
 * total energy  :  -239.3085211 Eh     change       -0.3000044E-03 Eh
   gradient norm :     0.0071274 Eh/α   predicted    -0.2718426E-03 (  -9.39%)
   displ. norm   :     0.1312134 α      lambda       -0.2931539E-03
   maximum displ.:     0.0313089 α      in ANC's #83, #80, #79, ...

........................................................................
.............................. CYCLE   23 ..............................
........................................................................
   1   -240.7649152 -0.240765E+03  0.185E-02    8.59       0.0  T
   2   -240.7649162 -0.949785E-06  0.112E-02    8.59       1.0  T
   3   -240.7649165 -0.343572E-06  0.123E-03    8.59       6.8  T
   4   -240.7649165 -0.286730E-07  0.376E-04    8.59      22.3  T
   5   -240.7649165 -0.774122E-09  0.425E-05    8.59     197.2  T
     SCC iter.                  ...        0 min,  0.059 sec
     gradient                   ...        0 min,  0.024 sec
 * total energy  :  -239.3087120 Eh     change       -0.1908819E-03 Eh
   gradient norm :     0.0047612 Eh/α   predicted    -0.1491617E-03 ( -21.86%)
   displ. norm   :     0.2037936 α      lambda       -0.2405644E-03
   maximum displ.:     0.0494275 α      in ANC's #83, #80, #47, ...

........................................................................
.............................. CYCLE   24 ..............................
........................................................................
   1   -240.7654314 -0.240765E+03  0.247E-02    8.60       0.0  T
   2   -240.7654326 -0.125786E-05  0.151E-02    8.60       1.0  T
   3   -240.7654332 -0.579082E-06  0.140E-03    8.60       6.0  T
   4   -240.7654333 -0.317265E-07  0.467E-04    8.60      18.0  T
   5   -240.7654333 -0.138360E-08  0.538E-05    8.60     155.9  T
     SCC iter.                  ...        0 min,  0.059 sec
     gradient                   ...        0 min,  0.024 sec
 * total energy  :  -239.3089024 Eh     change       -0.1903411E-03 Eh
   gradient norm :     0.0092833 Eh/α   predicted    -0.1252852E-03 ( -34.18%)
   displ. norm   :     0.3943294 α      lambda       -0.4028237E-03
   maximum displ.:     0.0872401 α      in ANC's #80, #79, #47, ...

........................................................................
.............................. CYCLE   25 ..............................
........................................................................
   1   -240.7622762 -0.240762E+03  0.441E-02    8.59       0.0  T
   2   -240.7622800 -0.384713E-05  0.270E-02    8.59       1.0  T
   3   -240.7622820 -0.197317E-05  0.245E-03    8.59       3.4  T
   4   -240.7622821 -0.815650E-07  0.821E-04    8.59      10.2  T
   5   -240.7622821 -0.459804E-08  0.983E-05    8.59      85.3  T
     SCC iter.                  ...        0 min,  0.059 sec
     gradient                   ...        0 min,  0.024 sec
 * total energy  :  -239.3090802 Eh     change       -0.1778194E-03 Eh
   gradient norm :     0.0158208 Eh/α   predicted    -0.2327308E-03 (  30.88%)
   displ. norm   :     0.1070082 α      lambda       -0.3357157E-03
   maximum displ.:     0.0334037 α      in ANC's #96, #22, #51, ...

........................................................................
.............................. CYCLE   26 ..............................
........................................................................
   1   -240.7642632 -0.240764E+03  0.142E-02    8.59       0.0  T
   2   -240.7642643 -0.105321E-05  0.833E-03    8.59       1.0  T
   3   -240.7642645 -0.222838E-06  0.137E-03    8.59       6.1  T
   4   -240.7642645 -0.308027E-07  0.312E-04    8.59      26.9  T
   5   -240.7642645 -0.362718E-09  0.387E-05    8.59     217.0  T
     SCC iter.                  ...        0 min,  0.059 sec
     gradient                   ...        0 min,  0.024 sec
 * total energy  :  -239.3092643 Eh     change       -0.1841339E-03 Eh
   gradient norm :     0.0062675 Eh/α   predicted    -0.1698001E-03 (  -7.78%)
   displ. norm   :     0.1703726 α      lambda       -0.1991223E-03
   maximum displ.:     0.0480977 α      in ANC's #22, #27, #83, ...

........................................................................
.............................. CYCLE   27 ..............................
........................................................................
   1   -240.7648432 -0.240765E+03  0.158E-02    8.60       0.0  T
   2   -240.7648441 -0.965099E-06  0.965E-03    8.60       1.0  T
   3   -240.7648444 -0.291627E-06  0.123E-03    8.60       6.8  T
   4   -240.7648445 -0.329991E-07  0.342E-04    8.60      24.5  T
   5   -240.7648445 -0.719638E-09  0.461E-05    8.60     181.9  T
     SCC iter.                  ...        0 min,  0.059 sec
     gradient                   ...        0 min,  0.024 sec
 * total energy  :  -239.3094028 Eh     change       -0.1384828E-03 Eh
   gradient norm :     0.0036791 Eh/α   predicted    -0.1024524E-03 ( -26.02%)
   displ. norm   :     0.3205067 α      lambda       -0.2272755E-03
   maximum displ.:     0.0949180 α      in ANC's #22, #27, #25, ...

........................................................................
.............................. CYCLE   28 ..............................
........................................................................
   1   -240.7630694 -0.240763E+03  0.297E-02    8.59       0.0  T
   2   -240.7630721 -0.265482E-05  0.182E-02    8.59       1.0  T
   3   -240.7630731 -0.102807E-05  0.200E-03    8.59       4.2  T
   4   -240.7630732 -0.801334E-07  0.617E-04    8.59      13.6  T
   5   -240.7630732 -0.224151E-08  0.744E-05    8.59     112.8  T
     SCC iter.                  ...        0 min,  0.059 sec
     gradient                   ...        0 min,  0.024 sec
 * total energy  :  -239.3095327 Eh     change       -0.1299404E-03 Eh
   gradient norm :     0.0068440 Eh/α   predicted    -0.1253185E-03 (  -3.56%)
   displ. norm   :     0.1629984 α      lambda       -0.1473320E-03
   maximum displ.:     0.0549066 α      in ANC's #22, #27, #25, ...

........................................................................
.............................. CYCLE   29 ..............................
........................................................................
   1   -240.7644658 -0.240764E+03  0.132E-02    8.59       0.0  T
   2   -240.7644667 -0.938849E-06  0.798E-03    8.59       1.1  T
   3   -240.7644669 -0.242961E-06  0.125E-03    8.59       6.7  T
   4   -240.7644670 -0.308077E-07  0.292E-04    8.59      28.8  T
   5   -240.7644670 -0.517417E-09  0.443E-05    8.59     189.6  T
     SCC iter.                  ...        0 min,  0.061 sec
     gradient                   ...        0 min,  0.024 sec
 * total energy  :  -239.3096255 Eh     change       -0.9277329E-04 Eh
   gradient norm :     0.0056833 Eh/α   predicted    -0.7562650E-04 ( -18.48%)
   displ. norm   :     0.2303096 α      lambda       -0.1486156E-03
   maximum displ.:     0.0750562 α      in ANC's #22, #38, #27, ...

........................................................................
.............................. CYCLE   30 ..............................
........................................................................
   1   -240.7639123 -0.240764E+03  0.184E-02    8.59       0.0  T
   2   -240.7639136 -0.132729E-05  0.111E-02    8.59       1.0  T
   3   -240.7639140 -0.390231E-06  0.148E-03    8.60       5.7  T
   4   -240.7639141 -0.444414E-07  0.381E-04    8.60      22.0  T
   5   -240.7639141 -0.872205E-09  0.530E-05    8.60     158.3  T
     SCC iter.                  ...        0 min,  0.059 sec
     gradient                   ...        0 min,  0.024 sec
 * total energy  :  -239.3097090 Eh     change       -0.8352694E-04 Eh
   gradient norm :     0.0039932 Eh/α   predicted    -0.7825177E-04 (  -6.32%)
   displ. norm   :     0.1952746 α      lambda       -0.1083416E-03
   maximum displ.:     0.0599205 α      in ANC's #22, #24, #29, ...

........................................................................
.............................. CYCLE   31 ..............................
........................................................................
   1   -240.7631958 -0.240763E+03  0.160E-02    8.60       0.0  T
   2   -240.7631968 -0.946322E-06  0.979E-03    8.59       1.0  T
   3   -240.7631971 -0.340179E-06  0.126E-03    8.59       6.7  T
   4   -240.7631971 -0.294630E-07  0.363E-04    8.59      23.1  T
   5   -240.7631971 -0.797968E-09  0.472E-05    8.59     177.7  T
     SCC iter.                  ...        0 min,  0.059 sec
     gradient                   ...        0 min,  0.024 sec
 * total energy  :  -239.3097738 Eh     change       -0.6477995E-04 Eh
   gradient norm :     0.0043900 Eh/α   predicted    -0.5623693E-04 ( -13.19%)
   displ. norm   :     0.1304091 α      lambda       -0.8145509E-04
   maximum displ.:     0.0351113 α      in ANC's #24, #21, #22, ...

........................................................................
.............................. CYCLE   32 ..............................
........................................................................
   1   -240.7643185 -0.240764E+03  0.123E-02    8.60       0.0  T
   2   -240.7643191 -0.560818E-06  0.754E-03    8.60       1.1  T
   3   -240.7643192 -0.165371E-06  0.932E-04    8.60       9.0  T
   4   -240.7643193 -0.189859E-07  0.247E-04    8.60      34.0  T
     SCC iter.                  ...        0 min,  0.048 sec
     gradient                   ...        0 min,  0.024 sec
 * total energy  :  -239.3098221 Eh     change       -0.4826304E-04 Eh
   gradient norm :     0.0044087 Eh/α   predicted    -0.4142336E-04 ( -14.17%)
   displ. norm   :     0.2592722 α      lambda       -0.1074553E-03
   maximum displ.:     0.0688068 α      in ANC's #24, #22, #38, ...

........................................................................
.............................. CYCLE   33 ..............................
........................................................................
   1   -240.7616432 -0.240762E+03  0.231E-02    8.59       0.0  T
   2   -240.7616446 -0.138991E-05  0.141E-02    8.59       1.0  T
   3   -240.7616451 -0.545031E-06  0.149E-03    8.59       5.6  T
   4   -240.7616452 -0.416709E-07  0.466E-04    8.59      18.0  T
   5   -240.7616452 -0.135074E-08  0.584E-05    8.59     143.6  T
     SCC iter.                  ...        0 min,  0.059 sec
     gradient                   ...        0 min,  0.024 sec
 * total energy  :  -239.3098707 Eh     change       -0.4856785E-04 Eh
   gradient norm :     0.0060170 Eh/α   predicted    -0.5734207E-04 (  18.07%)
   displ. norm   :     0.1042574 α      lambda       -0.9156031E-04
   maximum displ.:     0.0260343 α      in ANC's #24, #12, #31, ...

........................................................................
.............................. CYCLE   34 ..............................
........................................................................
   1   -240.7634923 -0.240763E+03  0.110E-02    8.60       0.0  T
   2   -240.7634926 -0.315460E-06  0.673E-03    8.60       1.2  T
   3   -240.7634927 -0.129761E-06  0.658E-04    8.60      12.8  T
   4   -240.7634928 -0.814535E-08  0.205E-04    8.60      41.0  T
     SCC iter.                  ...        0 min,  0.048 sec
     gradient                   ...        0 min,  0.024 sec
 * total energy  :  -239.3099270 Eh     change       -0.5631485E-04 Eh
   gradient norm :     0.0041146 Eh/α   predicted    -0.4627931E-04 ( -17.82%)
   displ. norm   :     0.2179335 α      lambda       -0.1056140E-03
   maximum displ.:     0.0638580 α      in ANC's #24, #31, #9, ...

........................................................................
.............................. CYCLE   35 ..............................
........................................................................
   1   -240.7637972 -0.240764E+03  0.183E-02    8.60       0.0  T
   2   -240.7637981 -0.896124E-06  0.112E-02    8.60       1.0  T
   3   -240.7637984 -0.329064E-06  0.117E-03    8.60       7.1  T
   4   -240.7637985 -0.271002E-07  0.338E-04    8.60      24.8  T
   5   -240.7637985 -0.615785E-09  0.456E-05    8.60     183.9  T
     SCC iter.                  ...        0 min,  0.059 sec
     gradient                   ...        0 min,  0.024 sec
 * total energy  :  -239.3099951 Eh     change       -0.6810330E-04 Eh
   gradient norm :     0.0042885 Eh/α   predicted    -0.5531571E-04 ( -18.78%)
   displ. norm   :     0.3481349 α      lambda       -0.1308228E-03
   maximum displ.:     0.1030025 α      in ANC's #24, #31, #12, ...

........................................................................
.............................. CYCLE   36 ..............................
........................................................................
   1   -240.7630231 -0.240763E+03  0.269E-02    8.61       0.0  T
   2   -240.7630252 -0.209721E-05  0.165E-02    8.61       1.0  T
   3   -240.7630260 -0.818602E-06  0.181E-03    8.60       4.6  T
   4   -240.7630260 -0.613179E-07  0.532E-04    8.61      15.8  T
   5   -240.7630260 -0.159255E-08  0.724E-05    8.61     115.9  T
     SCC iter.                  ...        0 min,  0.060 sec
     gradient                   ...        0 min,  0.024 sec
 * total energy  :  -239.3100855 Eh     change       -0.9045530E-04 Eh
   gradient norm :     0.0057188 Eh/α   predicted    -0.7334393E-04 ( -18.92%)
   displ. norm   :     0.4060917 α      lambda       -0.1526126E-03
   maximum displ.:     0.1224025 α      in ANC's #24, #12, #9, ...

........................................................................
.............................. CYCLE   37 ..............................
........................................................................
   1   -240.7618766 -0.240762E+03  0.291E-02    8.60       0.0  T
   2   -240.7618792 -0.255465E-05  0.178E-02    8.60       1.0  T
   3   -240.7618801 -0.945475E-06  0.196E-03    8.59       4.3  T
   4   -240.7618802 -0.767010E-07  0.565E-04    8.60      14.8  T
   5   -240.7618802 -0.177997E-08  0.789E-05    8.60     106.3  T
     SCC iter.                  ...        0 min,  0.059 sec
     gradient                   ...        0 min,  0.024 sec
 * total energy  :  -239.3101771 Eh     change       -0.9161817E-04 Eh
   gradient norm :     0.0066382 Eh/α   predicted    -0.8889169E-04 (  -2.98%)
   displ. norm   :     0.3594811 α      lambda       -0.1597414E-03
   maximum displ.:     0.0994633 α      in ANC's #24, #12, #9, ...

........................................................................
.............................. CYCLE   38 ..............................
........................................................................
   1   -240.7611596 -0.240761E+03  0.249E-02    8.60       0.0  T
   2   -240.7611616 -0.199519E-05  0.152E-02    8.59       1.0  T
   3   -240.7611624 -0.730022E-06  0.179E-03    8.59       4.7  T
   4   -240.7611624 -0.599082E-07  0.521E-04    8.59      16.1  T
   5   -240.7611624 -0.158497E-08  0.744E-05    8.59     112.8  T
     SCC iter.                  ...        0 min,  0.059 sec
     gradient                   ...        0 min,  0.024 sec
 * total energy  :  -239.3102747 Eh     change       -0.9757985E-04 Eh
   gradient norm :     0.0080765 Eh/α   predicted    -0.9019441E-04 (  -7.57%)
   displ. norm   :     0.2608972 α      lambda       -0.1998726E-03
   maximum displ.:     0.0736218 α      in ANC's #12, #24, #9, ...

........................................................................
.............................. CYCLE   39 ..............................
........................................................................
   1   -240.7643291 -0.240764E+03  0.184E-02    8.60       0.0  T
   2   -240.7643305 -0.146468E-05  0.112E-02    8.60       1.0  T
   3   -240.7643310 -0.428723E-06  0.154E-03    8.60       5.5  T
   4   -240.7643310 -0.476291E-07  0.409E-04    8.60      20.5  T
   5   -240.7643310 -0.849440E-09  0.533E-05    8.60     157.4  T
     SCC iter.                  ...        0 min,  0.059 sec
     gradient                   ...        0 min,  0.024 sec
 * total energy  :  -239.3103698 Eh     change       -0.9511188E-04 Eh
   gradient norm :     0.0078185 Eh/α   predicted    -0.1067404E-03 (  12.23%)
   displ. norm   :     0.5360848 α      lambda       -0.2763646E-03
   maximum displ.:     0.1426438 α      in ANC's #24, #12, #9, ...

........................................................................
.............................. CYCLE   40 ..............................
........................................................................
   1   -240.7574816 -0.240757E+03  0.381E-02    8.57       0.0  T
   2   -240.7574858 -0.417541E-05  0.233E-02    8.57       1.0  T
   3   -240.7574873 -0.148548E-05  0.251E-03    8.57       3.3  T
   4   -240.7574874 -0.131064E-06  0.762E-04    8.57      11.0  T
   5   -240.7574874 -0.334347E-08  0.100E-04    8.57      83.9  T
     SCC iter.                  ...        0 min,  0.060 sec
     gradient                   ...        0 min,  0.024 sec
 * total energy  :  -239.3104994 Eh     change       -0.1296073E-03 Eh
   gradient norm :     0.0123522 Eh/α   predicted    -0.1778970E-03 (  37.26%)
   displ. norm   :     0.2456220 α      lambda       -0.3830710E-03
   maximum displ.:     0.0663479 α      in ANC's #20, #12, #1, ...

........................................................................
.............................. CYCLE   41 ..............................
........................................................................
   1   -240.7613023 -0.240761E+03  0.249E-02    8.56       0.0  T
   2   -240.7613056 -0.325922E-05  0.150E-02    8.55       1.0  T
   3   -240.7613064 -0.829362E-06  0.231E-03    8.54       3.6  T
   4   -240.7613065 -0.102188E-06  0.549E-04    8.54      15.3  T
   5   -240.7613065 -0.116998E-08  0.714E-05    8.54     117.5  T
     SCC iter.                  ...        0 min,  0.060 sec
     gradient                   ...        0 min,  0.024 sec
 * total energy  :  -239.3105724 Eh     change       -0.7293737E-04 Eh
   gradient norm :     0.0154674 Eh/α   predicted    -0.2030921E-03 ( 178.45%)
   displ. norm   :     0.2639006 α      lambda       -0.4166654E-03
   maximum displ.:     0.0866200 α      in ANC's #12, #20, #9, ...

........................................................................
.............................. CYCLE   42 ..............................
........................................................................
   1   -240.7611913 -0.240761E+03  0.231E-02    8.55       0.0  T
   2   -240.7611932 -0.196069E-05  0.140E-02    8.55       1.0  T
   3   -240.7611940 -0.703615E-06  0.178E-03    8.55       4.7  T
   4   -240.7611940 -0.589898E-07  0.530E-04    8.55      15.8  T
   5   -240.7611940 -0.146397E-08  0.612E-05    8.55     137.1  T
     SCC iter.                  ...        0 min,  0.059 sec
     gradient                   ...        0 min,  0.024 sec
 * total energy  :  -239.3107898 Eh     change       -0.2174177E-03 Eh
   gradient norm :     0.0085915 Eh/α   predicted    -0.2228439E-03 (   2.50%)
   displ. norm   :     0.3066268 α      lambda       -0.3521653E-03
   maximum displ.:     0.0920998 α      in ANC's #27, #22, #12, ...
 * RMSD in coord.:     0.3543181 α      energy gain  -0.2618885E-02 Eh

generating ANC from model Hessian ...
Using Lindh-Hessian (1995)
 Shifting diagonal of input Hessian by   9.971433053143486E-003
 Lowest  eigenvalues of input Hessian
    0.000000    0.000000    0.000000    0.000000    0.000000    0.000000
    0.010000    0.010012    0.010021    0.010043    0.010051    0.010072
    0.010090    0.010106    0.010166    0.010214    0.010243    0.010285
 Highest eigenvalues
    1.428175    1.431330    1.431365    1.434522    1.438328    1.461841
 

........................................................................
.............................. CYCLE   43 ..............................
........................................................................
   1   -240.7613650 -0.240761E+03  0.215E-02    8.56       0.0  T
   2   -240.7613668 -0.180846E-05  0.130E-02    8.56       1.0  T
   3   -240.7613674 -0.573607E-06  0.171E-03    8.57       4.9  T
   4   -240.7613674 -0.564312E-07  0.495E-04    8.57      16.9  T
   5   -240.7613674 -0.135685E-08  0.644E-05    8.57     130.3  T
     SCC iter.                  ...        0 min,  0.060 sec
     gradient                   ...        0 min,  0.024 sec
 * total energy  :  -239.3109216 Eh     change       -0.1317695E-03 Eh
   gradient norm :     0.0100735 Eh/α   predicted     0.0000000E+00 (-100.00%)
   displ. norm   :     0.0752048 α      lambda       -0.1896254E-03
   maximum displ.:     0.0197844 α      in ANC's #74, #21, #56, ...

........................................................................
.............................. CYCLE   44 ..............................
........................................................................
   1   -240.7620622 -0.240762E+03  0.122E-02    8.55       0.0  T
   2   -240.7620627 -0.517076E-06  0.744E-03    8.55       1.1  T
   3   -240.7620628 -0.171523E-06  0.875E-04    8.54       9.6  T
   4   -240.7620629 -0.152417E-07  0.232E-04    8.54      36.1  T
     SCC iter.                  ...        0 min,  0.049 sec
     gradient                   ...        0 min,  0.024 sec
 * total energy  :  -239.3110562 Eh     change       -0.1345854E-03 Eh
   gradient norm :     0.0034982 Eh/α   predicted    -0.9934298E-04 ( -26.19%)
   displ. norm   :     0.1358963 α      lambda       -0.1670223E-03
   maximum displ.:     0.0349946 α      in ANC's #21, #31, #74, ...

........................................................................
.............................. CYCLE   45 ..............................
........................................................................
   1   -240.7624362 -0.240762E+03  0.171E-02    8.55       0.0  T
   2   -240.7624372 -0.101135E-05  0.104E-02    8.54       1.0  T
   3   -240.7624375 -0.295864E-06  0.125E-03    8.54       6.7  T
   4   -240.7624375 -0.343283E-07  0.319E-04    8.54      26.3  T
   5   -240.7624375 -0.450086E-09  0.425E-05    8.54     197.4  T
     SCC iter.                  ...        0 min,  0.059 sec
     gradient                   ...        0 min,  0.024 sec
 * total energy  :  -239.3111615 Eh     change       -0.1053379E-03 Eh
   gradient norm :     0.0045835 Eh/α   predicted    -0.8506264E-04 ( -19.25%)
   displ. norm   :     0.1726293 α      lambda       -0.1271329E-03
   maximum displ.:     0.0449482 α      in ANC's #21, #31, #14, ...

........................................................................
.............................. CYCLE   46 ..............................
........................................................................
   1   -240.7619571 -0.240762E+03  0.188E-02    8.54       0.0  T
   2   -240.7619585 -0.140349E-05  0.115E-02    8.53       1.0  T
   3   -240.7619589 -0.370550E-06  0.145E-03    8.53       5.8  T
   4   -240.7619590 -0.496589E-07  0.348E-04    8.53      24.1  T
   5   -240.7619590 -0.588301E-09  0.492E-05    8.53     170.6  T
     SCC iter.                  ...        0 min,  0.060 sec
     gradient                   ...        0 min,  0.024 sec
 * total energy  :  -239.3112593 Eh     change       -0.9781584E-04 Eh
   gradient norm :     0.0069963 Eh/α   predicted    -0.6546238E-04 ( -33.08%)
   displ. norm   :     0.3542216 α      lambda       -0.2300542E-03
   maximum displ.:     0.0907705 α      in ANC's #21, #31, #14, ...

........................................................................
.............................. CYCLE   47 ..............................
........................................................................
   1   -240.7597542 -0.240760E+03  0.354E-02    8.53       0.0  T
   2   -240.7597596 -0.544168E-05  0.216E-02    8.52       1.0  T
   3   -240.7597610 -0.135487E-05  0.286E-03    8.51       2.9  T
   4   -240.7597611 -0.192928E-06  0.676E-04    8.51      12.4  T
   5   -240.7597612 -0.237674E-08  0.100E-04    8.51      83.6  T
     SCC iter.                  ...        0 min,  0.060 sec
     gradient                   ...        0 min,  0.024 sec
 * total energy  :  -239.3114124 Eh     change       -0.1530697E-03 Eh
   gradient norm :     0.0087686 Eh/α   predicted    -0.1295391E-03 ( -15.37%)
   displ. norm   :     0.2540499 α      lambda       -0.1837803E-03
   maximum displ.:     0.0683536 α      in ANC's #31, #21, #14, ...

........................................................................
.............................. CYCLE   48 ..............................
........................................................................
   1   -240.7599495 -0.240760E+03  0.192E-02    8.52       0.0  T
   2   -240.7599510 -0.150541E-05  0.117E-02    8.52       1.0  T
   3   -240.7599514 -0.384097E-06  0.152E-03    8.51       5.5  T
   4   -240.7599514 -0.516265E-07  0.376E-04    8.51      22.3  T
   5   -240.7599514 -0.762924E-09  0.557E-05    8.51     150.7  T
     SCC iter.                  ...        0 min,  0.060 sec
     gradient                   ...        0 min,  0.024 sec
 * total energy  :  -239.3115495 Eh     change       -0.1371403E-03 Eh
   gradient norm :     0.0064983 Eh/α   predicted    -0.9782568E-04 ( -28.67%)
   displ. norm   :     0.3276366 α      lambda       -0.2421180E-03
   maximum displ.:     0.0883548 α      in ANC's #31, #21, #14, ...

........................................................................
.............................. CYCLE   49 ..............................
........................................................................
   1   -240.7614827 -0.240761E+03  0.211E-02    8.51       0.0  T
   2   -240.7614844 -0.168787E-05  0.128E-02    8.51       1.0  T
   3   -240.7614849 -0.499092E-06  0.161E-03    8.51       5.2  T
   4   -240.7614849 -0.538247E-07  0.433E-04    8.51      19.4  T
   5   -240.7614849 -0.918646E-09  0.600E-05    8.51     139.8  T
     SCC iter.                  ...        0 min,  0.059 sec
     gradient                   ...        0 min,  0.024 sec
 * total energy  :  -239.3117131 Eh     change       -0.1635592E-03 Eh
   gradient norm :     0.0052648 Eh/α   predicted    -0.1340546E-03 ( -18.04%)
   displ. norm   :     0.4031805 α      lambda       -0.1816883E-03
   maximum displ.:     0.1035775 α      in ANC's #31, #21, #14, ...

........................................................................
.............................. CYCLE   50 ..............................
........................................................................
   1   -240.7601694 -0.240760E+03  0.279E-02    8.51       0.0  T
   2   -240.7601715 -0.205404E-05  0.171E-02    8.50       1.0  T
   3   -240.7601722 -0.764534E-06  0.169E-03    8.50       5.0  T
   4   -240.7601723 -0.597690E-07  0.514E-04    8.50      16.3  T
   5   -240.7601723 -0.128594E-08  0.691E-05    8.50     121.5  T
     SCC iter.                  ...        0 min,  0.059 sec
     gradient                   ...        0 min,  0.024 sec
 * total energy  :  -239.3118362 Eh     change       -0.1230801E-03 Eh
   gradient norm :     0.0064152 Eh/α   predicted    -0.1056207E-03 ( -14.19%)
   displ. norm   :     0.2749264 α      lambda       -0.1650729E-03
   maximum displ.:     0.0616243 α      in ANC's #8, #5, #31, ...

........................................................................
.............................. CYCLE   51 ..............................
........................................................................
   1   -240.7630168 -0.240763E+03  0.154E-02    8.50       0.0  T
   2   -240.7630178 -0.101867E-05  0.932E-03    8.51       1.0  T
   3   -240.7630181 -0.258089E-06  0.127E-03    8.51       6.6  T
   4   -240.7630181 -0.334942E-07  0.314E-04    8.51      26.7  T
   5   -240.7630181 -0.542343E-09  0.509E-05    8.51     164.7  T
     SCC iter.                  ...        0 min,  0.059 sec
     gradient                   ...        0 min,  0.024 sec
 * total energy  :  -239.3119210 Eh     change       -0.8479903E-04 Eh
   gradient norm :     0.0056541 Eh/α   predicted    -0.8877560E-04 (   4.69%)
   displ. norm   :     0.2893783 α      lambda       -0.1221918E-03
   maximum displ.:     0.0665108 α      in ANC's #8, #5, #4, ...

........................................................................
.............................. CYCLE   52 ..............................
........................................................................
   1   -240.7601946 -0.240760E+03  0.248E-02    8.50       0.0  T
   2   -240.7601966 -0.198046E-05  0.152E-02    8.50       1.0  T
   3   -240.7601972 -0.656200E-06  0.172E-03    8.50       4.9  T
   4   -240.7601973 -0.618437E-07  0.461E-04    8.50      18.2  T
   5   -240.7601973 -0.780773E-09  0.574E-05    8.50     146.3  T
     SCC iter.                  ...        0 min,  0.060 sec
     gradient                   ...        0 min,  0.024 sec
 * total energy  :  -239.3119678 Eh     change       -0.4684506E-04 Eh
   gradient norm :     0.0062616 Eh/α   predicted    -0.6621297E-04 (  41.34%)
   displ. norm   :     0.0654915 α      lambda       -0.8540221E-04
   maximum displ.:     0.0157273 α      in ANC's #19, #5, #109, ...

........................................................................
.............................. CYCLE   53 ..............................
........................................................................
   1   -240.7616055 -0.240762E+03  0.835E-03    8.50       0.0  T
   2   -240.7616058 -0.299514E-06  0.505E-03    8.50       1.7  T
   3   -240.7616059 -0.887625E-07  0.735E-04    8.51      11.4  T
   4   -240.7616059 -0.921492E-08  0.175E-04    8.50      47.9  T
     SCC iter.                  ...        0 min,  0.048 sec
     gradient                   ...        0 min,  0.024 sec
 * total energy  :  -239.3120187 Eh     change       -0.5087867E-04 Eh
   gradient norm :     0.0032888 Eh/α   predicted    -0.4288575E-04 ( -15.71%)
   displ. norm   :     0.1063638 α      lambda       -0.6633903E-04
   maximum displ.:     0.0314057 α      in ANC's #5, #8, #19, ...

........................................................................
.............................. CYCLE   54 ..............................
........................................................................
   1   -240.7625986 -0.240763E+03  0.103E-02    8.51       0.0  T
   2   -240.7625991 -0.484751E-06  0.628E-03    8.51       1.3  T
   3   -240.7625992 -0.136022E-06  0.915E-04    8.51       9.2  T
   4   -240.7625992 -0.155114E-07  0.221E-04    8.51      37.9  T
     SCC iter.                  ...        0 min,  0.049 sec
     gradient                   ...        0 min,  0.024 sec
 * total energy  :  -239.3120468 Eh     change       -0.2810320E-04 Eh
   gradient norm :     0.0046930 Eh/α   predicted    -0.3354557E-04 (  19.37%)
   displ. norm   :     0.1777899 α      lambda       -0.6243226E-04
   maximum displ.:     0.0547343 α      in ANC's #5, #8, #4, ...

........................................................................
.............................. CYCLE   55 ..............................
........................................................................
   1   -240.7623604 -0.240762E+03  0.113E-02    8.51       0.0  T
   2   -240.7623609 -0.508453E-06  0.684E-03    8.52       1.2  T
   3   -240.7623610 -0.140342E-06  0.907E-04    8.52       9.3  T
   4   -240.7623610 -0.167284E-07  0.224E-04    8.52      37.4  T
     SCC iter.                  ...        0 min,  0.049 sec
     gradient                   ...        0 min,  0.024 sec
 * total energy  :  -239.3120836 Eh     change       -0.3685504E-04 Eh
   gradient norm :     0.0023730 Eh/α   predicted    -0.3220614E-04 ( -12.61%)
   displ. norm   :     0.2006606 α      lambda       -0.5110652E-04
   maximum displ.:     0.0627151 α      in ANC's #5, #8, #4, ...

........................................................................
.............................. CYCLE   56 ..............................
........................................................................
   1   -240.7613949 -0.240761E+03  0.140E-02    8.52       0.0  T
   2   -240.7613954 -0.557462E-06  0.859E-03    8.52       1.0  T
   3   -240.7613956 -0.210407E-06  0.904E-04    8.52       9.3  T
   4   -240.7613957 -0.157238E-07  0.251E-04    8.52      33.5  T
     SCC iter.                  ...        0 min,  0.049 sec
     gradient                   ...        0 min,  0.024 sec
 * total energy  :  -239.3121142 Eh     change       -0.3058104E-04 Eh
   gradient norm :     0.0037155 Eh/α   predicted    -0.2658289E-04 ( -13.07%)
   displ. norm   :     0.1891771 α      lambda       -0.5177502E-04
   maximum displ.:     0.0655678 α      in ANC's #5, #8, #4, ...

........................................................................
.............................. CYCLE   57 ..............................
........................................................................
   1   -240.7611322 -0.240761E+03  0.124E-02    8.51       0.0  T
   2   -240.7611327 -0.567040E-06  0.762E-03    8.51       1.1  T
   3   -240.7611329 -0.203464E-06  0.956E-04    8.51       8.8  T
   4   -240.7611330 -0.170428E-07  0.257E-04    8.51      32.7  T
     SCC iter.                  ...        0 min,  0.049 sec
     gradient                   ...        0 min,  0.024 sec
 * total energy  :  -239.3121456 Eh     change       -0.3142565E-04 Eh
   gradient norm :     0.0037860 Eh/α   predicted    -0.2681414E-04 ( -14.67%)
   displ. norm   :     0.1808247 α      lambda       -0.5608162E-04
   maximum displ.:     0.0670292 α      in ANC's #5, #8, #4, ...

........................................................................
.............................. CYCLE   58 ..............................
........................................................................
   1   -240.7618316 -0.240762E+03  0.121E-02    8.51       0.0  T
   2   -240.7618321 -0.506161E-06  0.740E-03    8.51       1.1  T
   3   -240.7618323 -0.183271E-06  0.889E-04    8.51       9.4  T
   4   -240.7618323 -0.152311E-07  0.256E-04    8.51      32.7  T
     SCC iter.                  ...        0 min,  0.049 sec
     gradient                   ...        0 min,  0.024 sec
 * total energy  :  -239.3121753 Eh     change       -0.2964448E-04 Eh
   gradient norm :     0.0041676 Eh/α   predicted    -0.2896235E-04 (  -2.30%)
   displ. norm   :     0.1834479 α      lambda       -0.5725684E-04
   maximum displ.:     0.0684698 α      in ANC's #5, #8, #4, ...

........................................................................
.............................. CYCLE   59 ..............................
........................................................................
   1   -240.7627541 -0.240763E+03  0.124E-02    8.51       0.0  T
   2   -240.7627547 -0.631043E-06  0.756E-03    8.51       1.1  T
   3   -240.7627549 -0.198632E-06  0.993E-04    8.51       8.5  T
   4   -240.7627549 -0.207484E-07  0.280E-04    8.51      30.0  T
     SCC iter.                  ...        0 min,  0.048 sec
     gradient                   ...        0 min,  0.024 sec
 * total energy  :  -239.3122012 Eh     change       -0.2591851E-04 Eh
   gradient norm :     0.0032011 Eh/α   predicted    -0.2959392E-04 (  14.18%)
   displ. norm   :     0.1362615 α      lambda       -0.3991780E-04
   maximum displ.:     0.0512473 α      in ANC's #5, #8, #4, ...

........................................................................
.............................. CYCLE   60 ..............................
........................................................................
   1   -240.7615692 -0.240762E+03  0.974E-03    8.51       0.0  T
   2   -240.7615696 -0.344669E-06  0.594E-03    8.51       1.4  T
   3   -240.7615697 -0.958475E-07  0.714E-04    8.51      11.7  T
   4   -240.7615697 -0.115271E-07  0.180E-04    8.51      46.6  T
     SCC iter.                  ...        0 min,  0.049 sec
     gradient                   ...        0 min,  0.024 sec
 * total energy  :  -239.3122252 Eh     change       -0.2399493E-04 Eh
   gradient norm :     0.0024971 Eh/α   predicted    -0.2033004E-04 ( -15.27%)
   displ. norm   :     0.1174618 α      lambda       -0.3469133E-04
   maximum displ.:     0.0471053 α      in ANC's #5, #8, #4, ...

........................................................................
.............................. CYCLE   61 ..............................
........................................................................
   1   -240.7620660 -0.240762E+03  0.799E-03    8.51       0.0  T
   2   -240.7620662 -0.246601E-06  0.490E-03    8.51       1.7  T
   3   -240.7620663 -0.834880E-07  0.619E-04    8.50      13.6  T
   4   -240.7620663 -0.758067E-08  0.177E-04    8.50      47.5  T
     SCC iter.                  ...        0 min,  0.048 sec
     gradient                   ...        0 min,  0.024 sec
 * total energy  :  -239.3122448 Eh     change       -0.1961551E-04 Eh
   gradient norm :     0.0031058 Eh/α   predicted    -0.1758738E-04 ( -10.34%)
   displ. norm   :     0.1621745 α      lambda       -0.3260443E-04
   maximum displ.:     0.0671456 α      in ANC's #5, #8, #4, ...

........................................................................
.............................. CYCLE   62 ..............................
........................................................................
   1   -240.7615055 -0.240762E+03  0.113E-02    8.50       0.0  T
   2   -240.7615058 -0.333928E-06  0.701E-03    8.50       1.2  T
   3   -240.7615060 -0.152980E-06  0.668E-04    8.50      12.6  T
   4   -240.7615060 -0.736176E-08  0.206E-04    8.50      40.7  T
     SCC iter.                  ...        0 min,  0.049 sec
     gradient                   ...        0 min,  0.024 sec
 * total energy  :  -239.3122653 Eh     change       -0.2043172E-04 Eh
   gradient norm :     0.0032357 Eh/α   predicted    -0.1673324E-04 ( -18.10%)
   displ. norm   :     0.1585532 α      lambda       -0.3582966E-04
   maximum displ.:     0.0664851 α      in ANC's #5, #4, #8, ...

........................................................................
.............................. CYCLE   63 ..............................
........................................................................
   1   -240.7617683 -0.240762E+03  0.975E-03    8.50       0.0  T
   2   -240.7617686 -0.301331E-06  0.598E-03    8.50       1.4  T
   3   -240.7617687 -0.107616E-06  0.686E-04    8.50      12.2  T
   4   -240.7617687 -0.918416E-08  0.195E-04    8.50      43.1  T
     SCC iter.                  ...        0 min,  0.049 sec
     gradient                   ...        0 min,  0.024 sec
 * total energy  :  -239.3122867 Eh     change       -0.2148415E-04 Eh
   gradient norm :     0.0023630 Eh/α   predicted    -0.1836830E-04 ( -14.50%)
   displ. norm   :     0.1887554 α      lambda       -0.2992056E-04
   maximum displ.:     0.0831564 α      in ANC's #5, #4, #8, ...

........................................................................
.............................. CYCLE   64 ..............................
........................................................................
   1   -240.7614735 -0.240761E+03  0.129E-02    8.50       0.0  T
   2   -240.7614740 -0.490019E-06  0.795E-03    8.50       1.1  T
   3   -240.7614742 -0.211960E-06  0.856E-04    8.49       9.8  T
   4   -240.7614742 -0.125493E-07  0.254E-04    8.49      33.0  T
     SCC iter.                  ...        0 min,  0.049 sec
     gradient                   ...        0 min,  0.024 sec
 * total energy  :  -239.3123032 Eh     change       -0.1647955E-04 Eh
   gradient norm :     0.0036955 Eh/α   predicted    -0.1549525E-04 (  -5.97%)
   displ. norm   :     0.1418118 α      lambda       -0.3860760E-04
   maximum displ.:     0.0534070 α      in ANC's #5, #2, #21, ...

........................................................................
.............................. CYCLE   65 ..............................
........................................................................
   1   -240.7629171 -0.240763E+03  0.894E-03    8.50       0.0  T
   2   -240.7629174 -0.305339E-06  0.542E-03    8.50       1.5  T
   3   -240.7629175 -0.871112E-07  0.725E-04    8.50      11.6  T
   4   -240.7629175 -0.101643E-07  0.178E-04    8.50      47.2  T
     SCC iter.                  ...        0 min,  0.048 sec
     gradient                   ...        0 min,  0.024 sec
 * total energy  :  -239.3123189 Eh     change       -0.1573297E-04 Eh
   gradient norm :     0.0032700 Eh/α   predicted    -0.1969564E-04 (  25.19%)
   displ. norm   :     0.1388694 α      lambda       -0.3663291E-04
   maximum displ.:     0.0602525 α      in ANC's #5, #3, #4, ...

........................................................................
.............................. CYCLE   66 ..............................
........................................................................
   1   -240.7621021 -0.240762E+03  0.109E-02    8.49       0.0  T
   2   -240.7621024 -0.301467E-06  0.676E-03    8.49       1.2  T
   3   -240.7621025 -0.131976E-06  0.650E-04    8.49      12.9  T
   4   -240.7621025 -0.726899E-08  0.197E-04    8.49      42.7  T
     SCC iter.                  ...        0 min,  0.049 sec
     gradient                   ...        0 min,  0.024 sec
 * total energy  :  -239.3123397 Eh     change       -0.2075040E-04 Eh
   gradient norm :     0.0030291 Eh/α   predicted    -0.1867137E-04 ( -10.02%)
   displ. norm   :     0.1085978 α      lambda       -0.3296652E-04
   maximum displ.:     0.0443874 α      in ANC's #5, #2, #3, ...
 * RMSD in coord.:     0.2684125 α      energy gain  -0.1549898E-02 Eh

generating ANC from model Hessian ...
Using Lindh-Hessian (1995)
 Shifting diagonal of input Hessian by   9.993473616400340E-003
 Lowest  eigenvalues of input Hessian
    0.000000    0.000000    0.000000    0.000000    0.000000    0.000000
    0.010000    0.010038    0.010043    0.010061    0.010073    0.010097
    0.010118    0.010158    0.010168    0.010217    0.010233    0.010291
 Highest eigenvalues
    1.426163    1.428004    1.430723    1.431761    1.439149    1.464551
 

........................................................................
.............................. CYCLE   67 ..............................
........................................................................
   1   -240.7621633 -0.240762E+03  0.819E-03    8.49       0.0  T
   2   -240.7621635 -0.208763E-06  0.503E-03    8.49       1.7  T
   3   -240.7621636 -0.750744E-07  0.550E-04    8.49      15.3  T
   4   -240.7621636 -0.635325E-08  0.160E-04    8.49      52.6  T
     SCC iter.                  ...        0 min,  0.048 sec
     gradient                   ...        0 min,  0.024 sec
 * total energy  :  -239.3123573 Eh     change       -0.1765066E-04 Eh
   gradient norm :     0.0034007 Eh/α   predicted     0.0000000E+00 (-100.00%)
   displ. norm   :     0.0459865 α      lambda       -0.4031050E-04
   maximum displ.:     0.0145918 α      in ANC's #91, #27, #108, ...

........................................................................
.............................. CYCLE   68 ..............................
........................................................................
   1   -240.7621914 -0.240762E+03  0.110E-02    8.49       0.0  T
   2   -240.7621917 -0.290756E-06  0.692E-03    8.49       1.2  T
   3   -240.7621919 -0.157769E-06  0.536E-04    8.49      15.7  T
   4   -240.7621919 -0.336732E-08  0.154E-04    8.49      54.7  T
     SCC iter.                  ...        0 min,  0.048 sec
     gradient                   ...        0 min,  0.024 sec
 * total energy  :  -239.3123857 Eh     change       -0.2838921E-04 Eh
   gradient norm :     0.0013386 Eh/α   predicted    -0.2107599E-04 ( -25.76%)
   displ. norm   :     0.1137883 α      lambda       -0.3853609E-04
   maximum displ.:     0.0329142 α      in ANC's #91, #27, #17, ...

........................................................................
.............................. CYCLE   69 ..............................
........................................................................
   1   -240.7616262 -0.240762E+03  0.239E-02    8.48       0.0  T
   2   -240.7616276 -0.137993E-05  0.149E-02    8.48       1.0  T
   3   -240.7616282 -0.673520E-06  0.125E-03    8.48       6.7  T
   4   -240.7616282 -0.247039E-07  0.358E-04    8.48      23.4  T
   5   -240.7616282 -0.356522E-09  0.336E-05    8.48     249.5  T
     SCC iter.                  ...        0 min,  0.076 sec
     gradient                   ...        0 min,  0.024 sec
 * total energy  :  -239.3124120 Eh     change       -0.2626116E-04 Eh
   gradient norm :     0.0043703 Eh/α   predicted    -0.1938011E-04 ( -26.20%)
   displ. norm   :     0.0569559 α      lambda       -0.3124855E-04
   maximum displ.:     0.0139298 α      in ANC's #41, #47, #43, ...

........................................................................
.............................. CYCLE   70 ..............................
[...]
       -2.59800736033100        4.60733723969900       -6.96635604485300      h
       -0.08384233007300        4.87983093699100       -2.35143834997700      o
       -0.95114982510800        3.96308732937600       -3.71984866772200      h
        1.41974274140200        3.91898539876800       -1.89304289360400      h
        4.55732184466900       -2.19506370681900       -0.15448131898200      o
        2.98906823717300       -3.17573915288800       -0.00874773738400      h
        5.88400016111800       -3.16546765539400        0.64610867821500      h
       -4.08736993573800       -2.38135533318300       -0.42205408505300      o
       -4.67267059623800       -1.52537989746600        1.10265687569400      h
       -4.73810106862900       -1.39121277395800       -1.84468172101700      h
        0.28754457306000       -4.69350094427700        0.60056660239000      o
        0.36146114423000       -4.72498833018600        2.44870274867800      h
       -1.28954163468800       -3.80753044584700        0.21748740015800      h
       -3.10653420727100        4.16896063183100        1.39629854446100      o
       -4.75842362236000        3.85924345331800        0.59286116603000      h
       -2.04567004636600        4.88542324664500        0.02600023931500      h
        4.01499831795500        2.81376893481800       -0.23197381195100      o
        4.40890321893300        1.00512778402500       -0.12910873551100      h
        5.33303807007900        3.62352793126400       -1.19143324261500      h
        0.59880446563400       -0.24022895522800       -8.74651498082100      o
        0.07048836301100       -1.89246850913400       -8.19298879188400      h
        2.09672055314700        0.19323227929300       -7.76024240856500      h
       -0.42398814907500        4.96479427895300        6.72900967021900      o
       -1.27806200364700        3.35258634809800        6.86538170158700      h
       -1.76337286488800        6.20855258255100        6.50608621882200      h
       -2.51133264003100        0.09521139305900        7.32513254235500      o
       -3.62693535980700        0.27570863589300        5.82819381184300      h
       -3.52411512637600       -0.99322585309100        8.42657901380700      h
        4.31384235331700        1.46287042039600       -5.67175577404800      o
        5.83140471701300        0.54837239132300       -5.18473893795100      h
        4.67941250612300        3.22776898897700       -5.30597925504200      h
       -0.06837211693500       -4.08932643647600        5.58963399372100      o
        1.23348629455500       -4.47494191795000        6.84538357279400      h
       -0.80044549136500       -2.47485409936200        6.09138818058800      h
       -8.31193553933100       -4.03473364615100        4.64320003981300      o
       -6.98838900239200       -5.25345355354100        4.20549119533200      h
       -9.39285344328700       -3.95004892727200        3.16112815543100      h
        5.79961358449200        6.12530342460300       -4.02305911992500      o
        7.32626478261700        6.95108629649000       -4.52882882873700      h
        4.46507613951500        7.41577936568900       -4.03010140723000      h
       -0.27401622454400       -8.47364765277300       -2.62089419545400      o
        1.46584705718500       -9.01380744535400       -2.83826769615900      h
       -0.18300119774600       -7.22912555690700       -1.23622836419700      h
        6.52537840174800       -3.18647188959000        4.75422206974700      o
        7.98061385782100       -2.34660806872200        4.00321708400700      h
        5.21674119046600       -1.87722642692500        4.69269588171600      h
       -6.07469727875300       -6.75331683678200       -1.85640782844700      o
       -5.09317326334100       -8.23581714093300       -1.50399545834600      h
       -5.23833598669800       -5.35018199856100       -0.95474026605000      h
       -5.78960883844500        0.11256354080700        3.66299727524200      o
       -6.85289908168000       -1.33646745175700        4.18666110558100      h
       -6.83683971662000        1.62740360800800        3.79337749358300      h
        4.86080640048700       -8.13015210215200       -1.88626740782500      o
        4.45285313167100       -7.82112949297900       -0.11991566757800      h
        4.70199967190600       -6.53308894717100       -2.78900328729200      h
        6.82926594993900        4.71114780026600        4.30816387423800      o
        7.69538887120700        5.45260204057100        5.71213223920500      h
        5.49539640063100        5.89453038836200        3.79340235311700      h
        8.32176201694700       -0.58671505007600       -3.16552754175400      o
        6.95169213639300       -1.56327542003600       -2.40255261686800      h
        9.62982526894700       -1.79476897004200       -3.49382101472000      h
        9.29505982475500        0.28763112912300        2.15534412741000      o
        9.23661471451000        0.22241941329800        0.32903236885100      h
        8.70092782256000        1.93556972421700        2.65737127026200      h
        2.38111466033100        6.65255346705600        2.84720935589700      o
        2.61476475670900        5.26267628091200        1.67286571157600      h
        1.38504958792100        6.00648889939100        4.27452375504600      h
        4.20372426925500       -7.50964382936600        3.28358488288000      o
        4.99473724589000       -5.92203350102400        3.82421251434700      h
        4.75723078538900       -8.75996543124300        4.47006415128300      h
       -7.39007070315200        4.06484860252700       -1.17431355497000      o
       -7.38147236145400        2.70454304517900       -2.39584909714400      h
       -6.72981953835300        5.56268442317400       -2.04721857454700      h
       -4.74225293014300        7.88351907393000       -3.04965598106000      o
       -3.52289033224900        8.63071081512500       -1.89684776458500      h
       -4.09160874070800        8.09416375866200       -4.73460872317200      h
       -1.28137193688200        9.59841807299100        0.59009607631300      o
       -2.40031066584400        9.98494361813700        1.97016243857500      h
        0.13232127794000        8.69654939046300        1.36056204569300      h
       -5.91131314977500       -4.64332113760900       -6.37675645850700      o
       -6.10552589561400       -5.58132536212900       -4.76710171540600      h
       -6.79301136201500       -5.57788413791600       -7.64804448210800      h
        4.39678844627600       -4.16865622513700       -5.27913990635200      o
        5.25198258009000       -4.78757315592100       -6.74740919196000      h
        2.60222359592700       -4.27440507345300       -5.61803084981400      h
       -4.11907921118900       -6.64957226185400        3.59750768882200      o
       -3.28258095463100       -8.25554307492400        3.29480408852000      h
       -2.86516874043300       -5.67645937525700        4.51890596394900      h
        3.66815262243100       -4.29013861026500        8.99991674321000      o
        3.42605226384800       -2.70151467922100        9.85714866886000      h
        5.15319381165400       -4.08929669086700        7.95138052682000      h
       -4.34366979885000        7.72114832183100        4.86340732744300      o
       -6.06294584087000        7.41629095003100        5.35333858110200      h
       -4.01750832131400        6.51578605513000        3.50194310617200      h
        2.05659471497300        0.88508569094600        9.62807235008500      o
        0.30074355821700        0.51716394691600        9.22994496135400      h
        2.07240607107700        2.56378925182800       10.31373802324800      h
       -9.94222321968300       -3.44905059299000       -0.24463145770900      o
       -9.50984709981700       -2.07295040191300       -1.34418383019700      h
       -9.09323177530300       -4.92729854888300       -0.90116969671000      h
        8.87780373688000       -5.20064107459900       -0.19014308834800      o
       10.05193323745600       -5.74399653851300        1.07186859087600      h
        8.06028677838500       -6.69363803652500       -0.87400821248400      h
        1.73809105950600        9.20582005186700       -3.92747869419000      o
        1.35880231531500       10.55159053301000       -2.77087050811700      h
        0.88333038800600        7.70785951800000       -3.20667234359200      h
       -5.48061029058600       -3.54245308556900        9.11151043376300      o
       -6.86289759730000       -3.69014230486800        7.92294831527700      h
       -4.72494005468000       -5.18592127428200        9.21803487209600      h
       -1.68065239897100        7.72196017757800       -7.65968162520800      o
       -0.69338484575100        7.06158856599400       -9.05428574519600      h
       -0.45518355116000        8.59125068545100       -6.60289264281700      h
        1.62712541634900        4.72263209968600      -10.31699366749100      o
        3.38704355304300        4.66625491598000       -9.89485122924600      h
        1.08731799473000        2.99457128637800      -10.52029186874000      h
       -8.69141588982900        4.30532144049400        3.75392111860600      o
      -10.42044598534000        3.94133816936900        4.13910676774000      h
       -8.58802186416700        4.52164677522200        1.92779726475800      h
       -0.54432012139000      -10.19279899858100        2.57428970606200      o
       -0.48097297038000      -10.63543627139200        0.81182731113600      h
        0.95824327315200       -9.21189363806000        2.91993455557800      h
        3.25657843026000       -5.02773310648300      -10.36330236148100      o
        1.61825297746200       -5.76478734895000      -10.60483391463200      h
        3.33016516450500       -3.53505973612700      -11.38907423610800      h
$eht charge=1 unpaired=0
$end
 
 Bond Distances (Angstroems)
 ---------------------------
H1-O5=1.0292         O2-H3=0.9740         O2-H4=0.9721         H3-O2=0.9740         H4-O2=0.9721         O5-H1=1.0292         
O5-H6=1.0129         O5-H7=1.0421         H6-O5=1.0129         H7-O5=1.0421         O8-H9=0.9697         O8-H10=0.9820        
H9-O8=0.9697         H10-O8=0.9820        O11-H12=0.9819       O11-H13=0.9769       H12-O11=0.9819       H13-O11=0.9769       
O14-H15=0.9887       O14-H16=0.9749       H15-O14=0.9887       H16-O14=0.9749       O17-H18=0.9784       O17-H19=0.9785       
H18-O17=0.9784       H19-O17=0.9785       O20-H21=0.9851       O20-H22=0.9749       H21-O20=0.9851       H22-O20=0.9749       
O23-H24=0.9818       O23-H25=0.9675       H24-O23=0.9818       H25-O23=0.9675       O26-H27=0.9758       O26-H28=0.9797       
H27-O26=0.9758       H28-O26=0.9797       O29-H30=0.9789       O29-H31=0.9785       H30-O29=0.9789       H31-O29=0.9785       
O32-H33=0.9858       O32-H34=0.9923       H33-O32=0.9858       H34-O32=0.9923       O35-H36=0.9810       O35-H37=0.9633       
H36-O35=0.9810       H37-O35=0.9633       O38-H39=0.9635       O38-H40=0.9764       H39-O38=0.9635       H40-O38=0.9764       
O41-H42=0.9682       O41-H43=0.9744       H42-O41=0.9682       H43-O41=0.9744       O44-H45=0.9925       O44-H46=0.9791       
H45-O44=0.9925       H46-O44=0.9791       O47-H48=0.9724       O47-H49=0.9732       H48-O47=0.9724       H49-O47=0.9732       
O50-H51=0.9787       O50-H52=0.9749       H51-O50=0.9787       H52-O50=0.9749       O53-H54=0.9799       O53-H55=0.9717       
H54-O53=0.9799       H55-O53=0.9717       O56-H57=0.9567       O56-H58=0.9824       H57-O56=0.9567       H58-O56=0.9824       
O59-H60=0.9709       O59-H61=0.9864       H60-O59=0.9709       H61-O59=0.9864       O62-H63=0.9739       O62-H64=0.9801       
H63-O62=0.9739       H64-O62=0.9801       O65-H66=0.9592       O65-H67=0.9874       H66-O65=0.9592       H67-O65=0.9874       
O68-H69=0.9906       O68-H70=0.9770       H69-O68=0.9906       H70-O68=0.9770       O71-H72=0.9732       O71-H73=0.9744       
H72-O71=0.9732       H73-O71=0.9744       O74-H75=0.9571       O74-H76=0.9821       H75-O74=0.9571       H76-O74=0.9821       
O77-H78=0.9776       O77-H79=0.9581       H78-O77=0.9776       H79-O77=0.9581       O80-H81=0.9676       O80-H82=0.9643       
H81-O80=0.9676       H82-O80=0.9643       O83-H84=0.9708       O83-H85=0.9824       H84-O83=0.9708       H85-O83=0.9824       
O86-H87=0.9813       O86-H88=0.9580       H87-O86=0.9813       H88-O86=0.9580       O89-H90=0.9675       O89-H91=0.9817       
H90-O89=0.9675       H91-O89=0.9817       O92-H93=0.9720       O92-H94=0.9623       H93-O92=0.9720       H94-O92=0.9623       
O95-H96=0.9622       O95-H97=0.9765       H96-O95=0.9622       H97-O95=0.9765       O98-H99=0.9912       O98-H100=0.9565      
H99-O98=0.9912       H100-O98=0.9565      O101-H102=0.9570     O101-H103=0.9680     H102-O101=0.9570     H103-O101=0.9680     
O104-H105=0.9715     O104-H106=0.9712     H105-O104=0.9715     H106-O104=0.9712     O107-H108=0.9638     O107-H109=0.9678     
H108-O107=0.9638     H109-O107=0.9678     O110-H111=0.9597     O110-H112=0.9776     H111-O110=0.9597     H112-O110=0.9776     
O113-H114=0.9724     O113-H115=0.9596     H114-O113=0.9724     H115-O113=0.9596     O116-H117=0.9598     O116-H118=0.9667     
H117-O116=0.9598     H118-O116=0.9667     O119-H120=0.9564     O119-H121=0.9707     H120-O119=0.9564     H121-O119=0.9707     
O122-H123=0.9602     O122-H124=0.9892     H123-O122=0.9602     H124-O122=0.9892     O125-H126=0.9679     O125-H127=0.9589     
H126-O125=0.9679     H127-O125=0.9589     O128-H129=0.9694     O128-H130=0.9721     H129-O128=0.9694     H130-O128=0.9721     
O131-H132=0.9582     O131-H133=0.9640     H132-O131=0.9582     H133-O131=0.9640     O134-H135=0.9570     O134-H136=0.9746     
H135-O134=0.9570     H136-O134=0.9746     O137-H138=0.9622     O137-H139=0.9670     H138-O137=0.9622     H139-O137=0.9670     
O140-H141=0.9592     O140-H142=0.9592     H141-O140=0.9592     H142-O140=0.9592     
 O  H  Rav=0.9740 sigma=0.0138  Rmin=0.9564  Rmax=1.0421    95
 
 selected bond angles (degree)
 --------------------
H4-O2-H3=106.94                H6-O5-H1=112.25                H7-O5-H1=106.03                H7-O5-H6=112.53                
H10-O8-H9=105.95               
 
 selected dihedral angles (degree)
 ---------------------------------

 
 CMA Distance (Angstroems)
 ---------------------------
R(CMA):  1.0722
           -------------------------------------------------
          |                Final Singlepoint                |
           -------------------------------------------------

          ...................................................
          :                      SETUP                      :
          :.................................................:
          :  # basis functions                 283          :
          :  # atomic orbitals                 283          :
          :  # shells                          189          :
          :  # electrons                       376          :
          :  max. iterations                   250          :
          :  Hamiltonian                  GFN2-xTB          :
          :  restarted?                      false          :
          :  GBSA solvation                  false          :
          :  PC potential                    false          :
          :  electronic temp.          300.0000000     K    :
          :  accuracy                    1.0000000          :
          :  -> integral cutoff          0.2500000E+02      :
          :  -> integral neglect         0.1000000E-07      :
          :  -> SCF convergence          0.1000000E-05 Eh   :
          :  -> wf. convergence          0.1000000E-03 e    :
          :  Broyden damping             0.4000000          :
          ...................................................

 iter      E             dE          RMSdq      gap      omega  full diag
   1   -240.7595333 -0.240760E+03  0.795E-01    8.50       0.0  T
   2   -240.7613540 -0.182072E-02  0.479E-01    8.56       1.0  T
   3   -240.7621007 -0.746651E-03  0.570E-02    8.62       1.0  T
   4   -240.7621467 -0.460423E-04  0.183E-02    8.61       1.0  T
   5   -240.7621484 -0.173670E-05  0.247E-03    8.61       3.4  T
   6   -240.7621485 -0.651187E-07  0.947E-04    8.61       8.9  T
   7   -240.7621485 -0.914531E-08  0.206E-04    8.61      40.8  T

   *** convergence criteria satisfied after 7 iterations ***

         #    Occupation            Energy/Eh            Energy/eV
      -------------------------------------------------------------
         1        2.0000           -0.7995863             -21.7579
       ...           ...                  ...                  ...
       182        2.0000           -0.5055287             -13.7561
       183        2.0000           -0.5037188             -13.7069
       184        2.0000           -0.5031446             -13.6913
       185        2.0000           -0.5026753             -13.6785
       186        2.0000           -0.5022959             -13.6682
       187        2.0000           -0.4998114             -13.6006
       188        2.0000           -0.4961899             -13.5020 (HOMO)
       189                         -0.1799206              -4.8959 (LUMO)
       190                         -0.1205031              -3.2791
       191                         -0.1164229              -3.1680
       192                         -0.1154971              -3.1428
       193                         -0.0752565              -2.0478
       ...                                ...                  ...
       283                          0.2964199               8.0660
      -------------------------------------------------------------
                  HL-Gap            0.3162693 Eh            8.6061 eV
             Fermi-level           -0.3380552 Eh           -9.1990 eV

 SCC (total)                   0 d,  0 h,  0 min,  0.117 sec
 SCC setup                      ...        0 min,  0.001 sec (  0.429%)
 Dispersion                     ...        0 min,  0.002 sec (  1.632%)
 classical contributions        ...        0 min,  0.000 sec (  0.076%)
 integral evaluation            ...        0 min,  0.008 sec (  6.630%)
 iterations                     ...        0 min,  0.082 sec ( 69.974%)
 molecular gradient             ...        0 min,  0.024 sec ( 20.267%)
 printout                       ...        0 min,  0.001 sec (  0.749%)

         :::::::::::::::::::::::::::::::::::::::::::::::::::::
         ::                     SUMMARY                     ::
         :::::::::::::::::::::::::::::::::::::::::::::::::::::
         :: total energy            -239.302747967242 Eh    ::
         :: gradient norm              0.013316392842 Eh/a0 ::
         :: HOMO-LUMO gap              8.606126041382 eV    ::
         ::.................................................::
         :: SCC energy              -240.762148508810 Eh    ::
         :: -> isotropic ES            1.383628768782 Eh    ::
         :: -> anisotropic ES         -0.283213724472 Eh    ::
         :: -> anisotropic XC         -0.025788211557 Eh    ::
         :: -> dispersion             -0.119405897415 Eh    ::
         :: repulsion energy           1.439454982879 Eh    ::
         :: add. restraining           0.004869333078 Eh    ::
         :: total charge               1.000000000000 e     ::
         :::::::::::::::::::::::::::::::::::::::::::::::::::::


last geometry written to: xtblast.coord

########################################################################
[ERROR] Program stopped due to fatal error
-5- Geometry optimization failed
-4- xtb_geoopt: Trying to recover from failed geometry optimization
-3- xtb_geoopt: Geometry optimization did not converge
-2- optimizer_ancopt: Could not relax structure
-1- optimizer_relax: internal rational function error
########################################################################
