      -----------------------------------------------------------      
     |                   =====================                   |     
     |                           x T B                           |     
     |                   =====================                   |     
     |                         S. Grimme                         |     
     |          Mulliken Center for Theoretical Chemistry        |     
     |                    University of Bonn                     |     
      -----------------------------------------------------------      

   * xtb version 6.5.1 (579679a) compiled by 'ehlert@majestix' on 2022-07-11

   xtb is free software: you can redistribute it and/or modify it under
   the terms of the GNU Lesser General Public License as published by
   the Free Software Foundation, either version 3 of the License, or
   (at your option) any later version.
   
   xtb is distributed in the hope that it will be useful,
   but WITHOUT ANY WARRANTY; without even the implied warranty of
   MERCHANTABILITY or FITNESS FOR A PARTICULAR PURPOSE.  See the
   GNU Lesser General Public License for more details.
   
   Cite this work as:
   * C. Bannwarth, E. Caldeweyher, S. Ehlert, A. Hansen, P. Pracht,
     J. Seibert, S. Spicher, S. Grimme, WIREs Comput. Mol. Sci., 2020, 11,
     e01493. DOI: 10.1002/wcms.1493
   
   for GFN2-xTB:
   * C. Bannwarth, S. Ehlert and S. Grimme., J. Chem. Theory Comput., 2019,
     15, 1652-1671. DOI: 10.1021/acs.jctc.8b01176
   for GFN1-xTB:
   * S. Grimme, C. Bannwarth, P. Shushkov, J. Chem. Theory Comput., 2017,
     13, 1989-2009. DOI: 10.1021/acs.jctc.7b00118
   for GFN0-xTB:
   * P. Pracht, E. Caldeweyher, S. Ehlert, S. Grimme, ChemRxiv, 2019, preprint.
     DOI: 10.26434/chemrxiv.8326202.v1
   for GFN-FF:
   * S. Spicher and S. Grimme, Angew. Chem. Int. Ed., 2020, 59, 15665-15673.
     DOI: 10.1002/anie.202004239
   
   for ALPB and GBSA implicit solvation:
   * S. Ehlert, M. Stahn, S. Spicher, S. Grimme, J. Chem. Theory Comput.,
     2021, 17, 4250-4261. DOI: 10.1021/acs.jctc.1c00471
   
   for DFT-D4:
   * E. Caldeweyher, C. Bannwarth and S. Grimme, J. Chem. Phys., 2017,
     147, 034112. DOI: 10.1063/1.4993215
   * E. Caldeweyher, S. Ehlert, A. Hansen, H. Neugebauer, S. Spicher,
     C. Bannwarth and S. Grimme, J. Chem. Phys., 2019, 150, 154122.
     DOI: 10.1063/1.5090222
   * E. Caldeweyher, J.-M. Mewes, S. Ehlert and S. Grimme, Phys. Chem. Chem. Phys.
     2020, 22, 8499-8512. DOI: 10.1039/D0CP00502A
   
   for sTDA-xTB:
   * S. Grimme and C. Bannwarth, J. Chem. Phys., 2016, 145, 054103.
     DOI: 10.1063/1.4959605
   
   in the mass-spec context:
   * V. Asgeirsson, C. Bauer and S. Grimme, Chem. Sci., 2017, 8, 4879.
     DOI: 10.1039/c7sc00601b
   * J. Koopman and S. Grimme, ACS Omega 2019, 4, 12, 15120-15133.
     DOI: 10.1021/acsomega.9b02011
   
   for metadynamics refer to:
   * S. Grimme, J. Chem. Theory Comput., 2019, 155, 2847-2862
     DOI: 10.1021/acs.jctc.9b00143
   
   for SPH calculations refer to:
   * S. Spicher and S. Grimme, J. Chem. Theory Comput., 2021, 17, 1701-1714
     DOI: 10.1021/acs.jctc.0c01306
   
   with help from (in alphabetical order)
   P. Atkinson, C. Bannwarth, F. Bohle, G. Brandenburg, E. Caldeweyher
   M. Checinski, S. Dohm, S. Ehlert, S. Ehrlich, I. Gerasimov, C. Hölzer
   A. Katbashev, J. Koopman, C. Lavigne, S. Lehtola, F. März, M. Müller,
   F. Musil, H. Neugebauer, J. Pisarek, C. Plett, P. Pracht, F. Pultar,
   J. Seibert, P. Shushkov, S. Spicher, M. Stahn, M. Steiner, T. Strunk,
   J. Stückrath, T. Rose, and J. Unsleber
   
 * started run on 2022/11/23 at 19:44:19.329     

           -------------------------------------------------
          |                Calculation Setup                |
           -------------------------------------------------

          program call               : xtb xtbopt.coord --gfn2 --sp --gbsa water
          hostname                   : cn0253
          coordinate file            : xtbopt.coord
          omp threads                :                    40

   ID    Z sym.   atoms
    1    1 h      1, 3, 4, 6, 7, 9, 10, 12, 13, 15, 16, 18, 19, 21, 22, 24,
                  25, 27, 28, 30, 31, 33, 34, 36, 37, 39, 40, 42, 43, 45, 46,
                  48, 49, 51, 52, 54, 55, 57, 58, 60, 61, 63, 64, 66, 67, 69,
                  70, 72, 73, 75, 76, 78, 79, 81, 82, 84, 85, 87, 88, 90, 91,
                  93, 94, 96, 97, 99, 100, 102, 103, 105, 106, 108, 109, 111,
                  112, 114, 115, 117, 118, 120, 121, 123, 124, 126, 127, 129,
                  130, 132, 133, 135, 136, 138, 139
    2    8 o      2, 5, 8, 11, 14, 17, 20, 23, 26, 29, 32, 35, 38, 41, 44,
                  47, 50, 53, 56, 59, 62, 65, 68, 71, 74, 77, 80, 83, 86, 89,
                  92, 95, 98, 101, 104, 107, 110, 113, 116, 119, 122, 125,
                  128, 131, 134, 137

molecular fragmentation (1/2 indicates fragments):
122211122222222222222222222222222222222222222222222222222222222222222222
2222222222222222222222222222222222222222222222222222222222222222222
# atoms in fragment 1/2:     4   135
 fragment masses (1/2) :       19.02      810.69
CMA distance (Bohr)    :   1.767
constraining FC (au)   :  0.0500
########################################################################
[WARNING] Please study the warnings concerning your input carefully
-1- prog_main: Charge in sdf/mol input was overwritten
########################################################################

           -------------------------------------------------
          |                 G F N 2 - x T B                 |
           -------------------------------------------------

        Reference                      10.1021/acs.jctc.8b01176
      * Hamiltonian:
        H0-scaling (s, p, d)           1.850000    2.230000    2.230000
        zeta-weighting                 0.500000
      * Dispersion:
        s8                             2.700000
        a1                             0.520000
        a2                             5.000000
        s9                             5.000000
      * Repulsion:
        kExp                           1.500000    1.000000
        rExp                           1.000000
      * Coulomb:
        alpha                          2.000000
        third order                    shell-resolved
        anisotropic                    true
        a3                             3.000000
        a5                             4.000000
        cn-shift                       1.200000
        cn-exp                         4.000000
        max-rad                        5.000000

      * Solvation model:               GBSA
        Solvent                        water
        Parameter file                 internal GFN2-xTB/GBSA
        Dielectric constant                8.0200E+01
        Reference state                gsolv [1 M gas/solution]
        Free energy shift                  1.8574E-03 Eh       1.1656E+00 kcal/mol
        Temperature                        2.9815E+02 K
        Density                            1.0000E+00 kg/L
        Solvent mass                       1.8000E+01 g/mol
        Interaction kernel             Still
        Born radius scaling (c1)           1.5524E+00
        Born radii integrator          GBOBC
        Born offset                        2.4628E-02 a0       4.6540E-02 AA
        H-bond correction              true
        Ion screening                  false
        Surface tension                    1.0000E-05 Eh       1.5569E+01 dyn/cm
        Grid points                               230 per atom

          ...................................................
          :                      SETUP                      :
          :.................................................:
          :  # basis functions                 277          :
          :  # atomic orbitals                 277          :
          :  # shells                          185          :
          :  # electrons                       368          :
          :  max. iterations                   250          :
          :  Hamiltonian                  GFN2-xTB          :
          :  restarted?                      false          :
          :  GBSA solvation                   true          :
          :  PC potential                    false          :
          :  electronic temp.          300.0000000     K    :
          :  accuracy                    1.0000000          :
          :  -> integral cutoff          0.2500000E+02      :
          :  -> integral neglect         0.1000000E-07      :
          :  -> SCF convergence          0.1000000E-05 Eh   :
          :  -> wf. convergence          0.1000000E-03 e    :
          :  Broyden damping             0.4000000          :
          ...................................................

 iter      E             dE          RMSdq      gap      omega  full diag
   1   -235.7706852 -0.235771E+03  0.408E+00    9.04       0.0  T
   2   -235.7947227 -0.240375E-01  0.240E+00    9.01       1.0  T
   3   -235.8032842 -0.856147E-02  0.269E-01    8.90       1.0  T
   4   -235.8046738 -0.138957E-02  0.579E-02    8.95       1.0  T
   5   -235.8047307 -0.569892E-04  0.335E-02    8.94       1.0  T
   6   -235.8047409 -0.101268E-04  0.452E-03    8.94       1.9  T
   7   -235.8047413 -0.426381E-06  0.965E-04    8.94       8.8  T
   8   -235.8047413 -0.120331E-07  0.486E-04    8.94      17.5  T

   *** convergence criteria satisfied after 8 iterations ***

         #    Occupation            Energy/Eh            Energy/eV
      -------------------------------------------------------------
         1        2.0000           -0.6616066             -18.0032
       ...           ...                  ...                  ...
       178        2.0000           -0.3985394             -10.8448
       179        2.0000           -0.3954524             -10.7608
       180        2.0000           -0.3948545             -10.7445
       181        2.0000           -0.3925593             -10.6821
       182        2.0000           -0.3919823             -10.6664
       183        2.0000           -0.3915602             -10.6549
       184        2.0000           -0.3894196             -10.5966 (HOMO)
       185                         -0.0607654              -1.6535 (LUMO)
       186                         -0.0094173              -0.2563
       187                         -0.0054515              -0.1483
       188                         -0.0036442              -0.0992
       189                          0.0346136               0.9419
       ...                                ...                  ...
       277                          0.4194805              11.4146
      -------------------------------------------------------------
                  HL-Gap            0.3286542 Eh            8.9431 eV
             Fermi-level           -0.2250925 Eh           -6.1251 eV

 SCC (total)                   0 d,  0 h,  0 min,  0.229 sec
 SCC setup                      ...        0 min,  0.004 sec (  1.683%)
 Dispersion                     ...        0 min,  0.003 sec (  1.518%)
 classical contributions        ...        0 min,  0.000 sec (  0.149%)
 integral evaluation            ...        0 min,  0.010 sec (  4.477%)
 iterations                     ...        0 min,  0.179 sec ( 77.948%)
 molecular gradient             ...        0 min,  0.027 sec ( 11.939%)
 printout                       ...        0 min,  0.005 sec (  2.157%)

         :::::::::::::::::::::::::::::::::::::::::::::::::::::
         ::                     SUMMARY                     ::
         :::::::::::::::::::::::::::::::::::::::::::::::::::::
         :: total energy            -234.384955720518 Eh    ::
         :: total w/o Gsasa/hb      -234.300644601750 Eh    ::
         :: gradient norm              0.048283260692 Eh/a0 ::
         :: HOMO-LUMO gap              8.943136361169 eV    ::
         ::.................................................::
         :: SCC energy              -235.804741314569 Eh    ::
         :: -> isotropic ES            1.432880529922 Eh    ::
         :: -> anisotropic ES         -0.292298701026 Eh    ::
         :: -> anisotropic XC         -0.021878820083 Eh    ::
         :: -> dispersion             -0.117350790692 Eh    ::
         :: -> Gsolv                  -0.167987587898 Eh    ::
         ::    -> Gelec               -0.083676469130 Eh    ::
         ::    -> Gsasa                0.000218890249 Eh    ::
         ::    -> Ghb                 -0.086387452143 Eh    ::
         ::    -> Gshift               0.001857443127 Eh    ::
         :: repulsion energy           1.405066845687 Eh    ::
         :: add. restraining           0.000000000000 Eh    ::
         :: total charge               1.000000000000 e     ::
         :::::::::::::::::::::::::::::::::::::::::::::::::::::

           -------------------------------------------------
          |                Property Printout                |
           -------------------------------------------------

    * Orbital Energies and Occupations

         #    Occupation            Energy/Eh            Energy/eV
      -------------------------------------------------------------
         1        2.0000           -0.6616066             -18.0032
       ...           ...                  ...                  ...
       172        2.0000           -0.4044204             -11.0048
       173        2.0000           -0.4042680             -11.0007
       174        2.0000           -0.4037297             -10.9860
       175        2.0000           -0.4023988             -10.9498
       176        2.0000           -0.3991063             -10.8602
       177        2.0000           -0.3986298             -10.8473
       178        2.0000           -0.3985394             -10.8448
       179        2.0000           -0.3954524             -10.7608
       180        2.0000           -0.3948545             -10.7445
       181        2.0000           -0.3925593             -10.6821
       182        2.0000           -0.3919823             -10.6664
       183        2.0000           -0.3915602             -10.6549
       184        2.0000           -0.3894196             -10.5966 (HOMO)
       185                         -0.0607654              -1.6535 (LUMO)
       186                         -0.0094173              -0.2563
       187                         -0.0054515              -0.1483
       188                         -0.0036442              -0.0992
       189                          0.0346136               0.9419
       190                          0.0387225               1.0537
       191                          0.0488030               1.3280
       192                          0.0514616               1.4003
       193                          0.0574322               1.5628
       194                          0.0682507               1.8572
       195                          0.0787604               2.1432
       ...                                ...                  ...
       277                          0.4194805              11.4146
      -------------------------------------------------------------
                  HL-Gap            0.3286542 Eh            8.9431 eV
             Fermi-level           -0.2250925 Eh           -6.1251 eV

     #   Z          covCN         q      C6AA      α(0)
     1   1 h        0.805     0.420     0.449     1.053
     2   8 o        1.622    -0.639    26.140     6.901
     3   1 h        0.804     0.341     0.611     1.228
     4   1 h        0.804     0.335     0.625     1.242
     5   8 o        2.372    -0.523    23.343     6.525
     6   1 h        0.803     0.406     0.474     1.081
     7   1 h        0.828     0.407     0.469     1.075
     8   8 o        1.607    -0.671    26.952     7.007
     9   1 h        0.804     0.325     0.651     1.268
    10   1 h        0.803     0.347     0.595     1.211
    11   8 o        1.613    -0.640    26.168     6.904
    12   1 h        0.803     0.338     0.617     1.234
    13   1 h        0.803     0.342     0.608     1.225
    14   8 o        1.605    -0.686    27.345     7.058
    15   1 h        0.802     0.337     0.620     1.237
    16   1 h        0.804     0.326     0.648     1.264
    17   8 o        1.607    -0.655    26.544     6.954
    18   1 h        0.803     0.338     0.617     1.234
    19   1 h        0.803     0.329     0.639     1.256
    20   8 o        1.607    -0.678    27.121     7.029
    21   1 h        0.802     0.353     0.582     1.198
    22   1 h        0.804     0.355     0.577     1.194
    23   8 o        1.607    -0.672    26.969     7.009
    24   1 h        0.803     0.357     0.572     1.188
    25   1 h        0.805     0.320     0.664     1.280
    26   8 o        1.607    -0.675    27.053     7.020
    27   1 h        0.804     0.347     0.595     1.212
    28   1 h        0.803     0.338     0.617     1.234
    29   8 o        1.607    -0.680    27.184     7.037
    30   1 h        0.803     0.348     0.594     1.211
    31   1 h        0.803     0.359     0.567     1.183
    32   8 o        1.646    -0.659    26.623     6.965
    33   1 h        0.802     0.346     0.597     1.214
    34   1 h        0.802     0.362     0.561     1.177
    35   8 o        1.608    -0.654    26.512     6.949
    36   1 h        0.803     0.363     0.558     1.174
    37   1 h        0.805     0.309     0.694     1.308
    38   8 o        1.608    -0.677    27.108     7.027
    39   1 h        0.805     0.332     0.633     1.250
    40   1 h        0.803     0.352     0.584     1.200
    41   8 o        1.608    -0.670    26.929     7.004
    42   1 h        0.804     0.341     0.610     1.227
    43   1 h        0.804     0.321     0.660     1.277
    44   8 o        1.604    -0.693    27.522     7.080
    45   1 h        0.802     0.357     0.571     1.188
    46   1 h        0.803     0.323     0.656     1.272
    47   8 o        1.608    -0.658    26.620     6.963
    48   1 h        0.804     0.331     0.634     1.251
    49   1 h        0.804     0.332     0.633     1.250
    50   8 o        1.607    -0.676    27.073     7.022
    51   1 h        0.803     0.322     0.660     1.276
    52   1 h        0.804     0.340     0.611     1.228
    53   8 o        1.608    -0.673    27.004     7.013
    54   1 h        0.803     0.352     0.583     1.200
    55   1 h        0.804     0.335     0.626     1.242
    56   8 o        1.608    -0.651    26.433     6.939
    57   1 h        0.806     0.309     0.695     1.309
    58   1 h        0.803     0.342     0.607     1.224
    59   8 o        1.606    -0.689    27.424     7.068
    60   1 h        0.804     0.315     0.676     1.292
    61   1 h        0.802     0.360     0.566     1.181
    62   8 o        1.607    -0.686    27.352     7.058
    63   1 h        0.804     0.327     0.646     1.262
    64   1 h        0.803     0.355     0.576     1.193
    65   8 o        1.608    -0.667    26.840     6.992
    66   1 h        0.805     0.315     0.678     1.293
    67   1 h        0.802     0.368     0.549     1.164
    68   8 o        1.606    -0.657    26.607     6.962
    69   1 h        0.802     0.331     0.635     1.252
    70   1 h        0.803     0.329     0.641     1.257
    71   8 o        1.608    -0.697    27.627     7.094
    72   1 h        0.804     0.339     0.615     1.232
    73   1 h        0.804     0.343     0.606     1.223
    74   8 o        1.608    -0.658    26.617     6.963
    75   1 h        0.806     0.313     0.684     1.299
    76   1 h        0.803     0.349     0.591     1.208
    77   8 o        1.609    -0.660    26.669     6.970
    78   1 h        0.803     0.364     0.556     1.172
    79   1 h        0.806     0.304     0.708     1.321
    80   8 o        1.609    -0.663    26.756     6.981
    81   1 h        0.805     0.327     0.644     1.261
    82   1 h        0.805     0.328     0.642     1.259
    83   8 o        1.607    -0.693    27.526     7.081
    84   1 h        0.804     0.357     0.572     1.188
    85   1 h        0.803     0.345     0.600     1.217
    86   8 o        1.608    -0.649    26.385     6.933
    87   1 h        0.803     0.350     0.589     1.205
    88   1 h        0.806     0.303     0.712     1.325
    89   8 o        1.607    -0.666    26.824     6.990
    90   1 h        0.805     0.339     0.613     1.230
    91   1 h        0.803     0.345     0.599     1.216
    92   8 o        1.609    -0.658    26.627     6.964
    93   1 h        0.804     0.340     0.613     1.230
    94   1 h        0.805     0.321     0.660     1.276
    95   8 o        1.609    -0.665    26.793     6.986
    96   1 h        0.805     0.311     0.688     1.303
    97   1 h        0.803     0.343     0.605     1.221
    98   8 o        1.607    -0.660    26.670     6.970
    99   1 h        0.801     0.350     0.589     1.206
   100   1 h        0.806     0.313     0.684     1.299
   101   8 o        1.610    -0.630    25.913     6.870
   102   1 h        0.806     0.305     0.706     1.319
   103   1 h        0.804     0.340     0.612     1.228
   104   8 o        1.608    -0.672    26.966     7.009
   105   1 h        0.804     0.314     0.680     1.296
   106   1 h        0.804     0.338     0.618     1.235
   107   8 o        1.610    -0.658    26.628     6.965
   108   1 h        0.805     0.333     0.631     1.248
   109   1 h        0.805     0.338     0.618     1.235
   110   8 o        1.609    -0.680    27.181     7.036
   111   1 h        0.805     0.310     0.691     1.305
   112   1 h        0.803     0.356     0.574     1.190
   113   8 o        1.609    -0.647    26.345     6.927
   114   1 h        0.804     0.351     0.587     1.203
   115   1 h        0.805     0.327     0.645     1.262
   116   8 o        1.610    -0.658    26.619     6.963
   117   1 h        0.805     0.330     0.638     1.255
   118   1 h        0.805     0.336     0.622     1.239
   119   8 o        1.610    -0.637    26.088     6.894
   120   1 h        0.806     0.304     0.710     1.324
   121   1 h        0.804     0.328     0.642     1.258
   122   8 o        1.607    -0.680    27.175     7.036
   123   1 h        0.805     0.316     0.676     1.291
   124   1 h        0.802     0.365     0.554     1.169
   125   8 o        1.610    -0.648    26.375     6.931
   126   1 h        0.805     0.342     0.607     1.224
   127   1 h        0.805     0.326     0.646     1.263
   128   8 o        1.608    -0.668    26.873     6.996
   129   1 h        0.804     0.329     0.639     1.255
   130   1 h        0.804     0.336     0.621     1.238
   131   8 o        1.610    -0.653    26.484     6.946
   132   1 h        0.806     0.326     0.649     1.265
   133   1 h        0.805     0.337     0.619     1.235
   134   8 o        1.609    -0.648    26.372     6.931
   135   1 h        0.806     0.317     0.672     1.288
   136   1 h        0.804     0.348     0.593     1.209
   137   8 o        1.610    -0.659    26.655     6.968
   138   1 h        0.805     0.321     0.660     1.276
   139   1 h        0.805     0.340     0.611     1.228

 Mol. C6AA /au·bohr⁶  :      96011.285506
 Mol. C8AA /au·bohr⁸  :    1738558.114661
 Mol. α(0) /au        :        435.788353


Wiberg/Mayer (AO) data.
largest (>0.10) Wiberg bond orders for each atom

 ---------------------------------------------------------------------------
     #   Z sym  total        # sym  WBO       # sym  WBO       # sym  WBO
 ---------------------------------------------------------------------------
     1   1 h    0.823 --     5 o    0.680     2 o    0.128
     2   8 o    1.908 --     4 h    0.832     3 h    0.827     1 h    0.128
     3   1 h    0.884 --     2 o    0.827
     4   1 h    0.888 --     2 o    0.832
     5   8 o    2.226 --     6 h    0.715     1 h    0.680     7 h    0.662
     6   1 h    0.835 --     5 o    0.715    11 o    0.109
     7   1 h    0.834 --     5 o    0.662    32 o    0.164
     8   8 o    1.855 --     9 h    0.850    10 h    0.814
     9   1 h    0.894 --     8 o    0.850
    10   1 h    0.879 --     8 o    0.814
    11   8 o    1.941 --    13 h    0.824    12 h    0.815     6 h    0.109
    12   1 h    0.886 --    11 o    0.815
    13   1 h    0.883 --    11 o    0.824
    14   8 o    1.828 --    16 h    0.834    15 h    0.806
    15   1 h    0.886 --    14 o    0.806
    16   1 h    0.894 --    14 o    0.834
    17   8 o    1.895 --    19 h    0.832    18 h    0.821
    18   1 h    0.886 --    17 o    0.821
    19   1 h    0.891 --    17 o    0.832
    20   8 o    1.916 --    22 h    0.807    21 h    0.796
    21   1 h    0.875 --    20 o    0.796
    22   1 h    0.874 --    20 o    0.807
    23   8 o    1.857 --    25 h    0.853    24 h    0.786
    24   1 h    0.872 --    23 o    0.786
    25   1 h    0.897 --    23 o    0.853
    26   8 o    1.879 --    27 h    0.818    28 h    0.812
    27   1 h    0.880 --    26 o    0.818
    28   1 h    0.886 --    26 o    0.812
    29   8 o    1.893 --    30 h    0.813    31 h    0.803
    30   1 h    0.879 --    29 o    0.813
    31   1 h    0.871 --    29 o    0.803
    32   8 o    1.966 --    33 h    0.803    34 h    0.776     7 h    0.164
    33   1 h    0.880 --    32 o    0.803
    34   1 h    0.869 --    32 o    0.776
    35   8 o    1.868 --    37 h    0.881    36 h    0.792
    36   1 h    0.868 --    35 o    0.792
    37   1 h    0.904 --    35 o    0.881
    38   8 o    1.834 --    39 h    0.862    40 h    0.823
    39   1 h    0.890 --    38 o    0.862
    40   1 h    0.876 --    38 o    0.823
    41   8 o    1.828 --    43 h    0.852    42 h    0.843
    42   1 h    0.884 --    41 o    0.843
    43   1 h    0.897 --    41 o    0.852
    44   8 o    1.848 --    46 h    0.839    45 h    0.772
    45   1 h    0.872 --    44 o    0.772
    46   1 h    0.896 --    44 o    0.839
    47   8 o    1.857 --    48 h    0.842    49 h    0.837
    48   1 h    0.890 --    47 o    0.842
    49   1 h    0.890 --    47 o    0.837
    50   8 o    1.846 --    51 h    0.830    52 h    0.822
    51   1 h    0.896 --    50 o    0.830
    52   1 h    0.884 --    50 o    0.822
    53   8 o    1.859 --    55 h    0.845    54 h    0.821
    54   1 h    0.876 --    53 o    0.821
    55   1 h    0.888 --    53 o    0.845
    56   8 o    1.834 --    57 h    0.898    58 h    0.822
    57   1 h    0.904 --    56 o    0.898
    58   1 h    0.883 --    56 o    0.822
    59   8 o    1.839 --    60 h    0.866    61 h    0.788
    60   1 h    0.900 --    59 o    0.866
    61   1 h    0.870 --    59 o    0.788
    62   8 o    1.838 --    63 h    0.844    64 h    0.805
    63   1 h    0.893 --    62 o    0.844
    64   1 h    0.874 --    62 o    0.805
    65   8 o    1.857 --    66 h    0.890    67 h    0.786
    66   1 h    0.901 --    65 o    0.890
    67   1 h    0.865 --    65 o    0.786
    68   8 o    1.905 --    70 h    0.826    69 h    0.806
    69   1 h    0.890 --    68 o    0.806
    70   1 h    0.892 --    68 o    0.826
    71   8 o    1.817 --    72 h    0.839    73 h    0.831
    72   1 h    0.885 --    71 o    0.839
    73   1 h    0.883 --    71 o    0.831
    74   8 o    1.834 --    75 h    0.897    76 h    0.814
    75   1 h    0.902 --    74 o    0.897
    76   1 h    0.878 --    74 o    0.814
    77   8 o    1.838 --    79 h    0.900    78 h    0.808
    78   1 h    0.867 --    77 o    0.808
    79   1 h    0.907 --    77 o    0.900
    80   8 o    1.812 --    82 h    0.869    81 h    0.859
    81   1 h    0.893 --    80 o    0.859
    82   1 h    0.892 --    80 o    0.869
    83   8 o    1.858 --    84 h    0.826    85 h    0.818
    84   1 h    0.872 --    83 o    0.826
    85   1 h    0.881 --    83 o    0.818
    86   8 o    1.838 --    88 h    0.903    87 h    0.810
    87   1 h    0.878 --    86 o    0.810
    88   1 h    0.908 --    86 o    0.903
    89   8 o    1.869 --    90 h    0.843    91 h    0.823
    90   1 h    0.885 --    89 o    0.843
    91   1 h    0.881 --    89 o    0.823
    92   8 o    1.824 --    94 h    0.875    93 h    0.840
    93   1 h    0.885 --    92 o    0.840
    94   1 h    0.897 --    92 o    0.875
    95   8 o    1.814 --    96 h    0.890    97 h    0.824
    96   1 h    0.903 --    95 o    0.890
    97   1 h    0.882 --    95 o    0.824
    98   8 o    1.849 --   100 h    0.894    99 h    0.797
    99   1 h    0.878 --    98 o    0.797
   100   1 h    0.902 --    98 o    0.894
   101   8 o    1.850 --   102 h    0.905   103 h    0.847
   102   1 h    0.907 --   101 o    0.905
   103   1 h    0.884 --   101 o    0.847
   104   8 o    1.814 --   105 h    0.852   106 h    0.837
   105   1 h    0.901 --   104 o    0.852
   106   1 h    0.886 --   104 o    0.837
   107   8 o    1.839 --   108 h    0.872   109 h    0.854
   108   1 h    0.889 --   107 o    0.872
   109   1 h    0.886 --   107 o    0.854
   110   8 o    1.810 --   111 h    0.893   112 h    0.806
   111   1 h    0.904 --   110 o    0.893
   112   1 h    0.873 --   110 o    0.806
   113   8 o    1.861 --   115 h    0.886   114 h    0.836
   114   1 h    0.877 --   113 o    0.836
   115   1 h    0.893 --   113 o    0.886
   116   8 o    1.813 --   117 h    0.884   118 h    0.861
   117   1 h    0.891 --   116 o    0.884
   118   1 h    0.887 --   116 o    0.861
   119   8 o    1.821 --   120 h    0.904   121 h    0.856
   120   1 h    0.908 --   119 o    0.904
   121   1 h    0.892 --   119 o    0.856
   122   8 o    1.844 --   123 h    0.888   124 h    0.774
   123   1 h    0.900 --   122 o    0.888
   124   1 h    0.866 --   122 o    0.774
   125   8 o    1.832 --   127 h    0.889   126 h    0.857
   126   1 h    0.883 --   125 o    0.857
   127   1 h    0.893 --   125 o    0.889
   128   8 o    1.830 --   129 h    0.855   130 h    0.843
   129   1 h    0.891 --   128 o    0.855
   130   1 h    0.887 --   128 o    0.843
   131   8 o    1.812 --   132 h    0.889   133 h    0.865
   132   1 h    0.894 --   131 o    0.889
   133   1 h    0.886 --   131 o    0.865
   134   8 o    1.847 --   135 h    0.896   136 h    0.835
   135   1 h    0.900 --   134 o    0.896
   136   1 h    0.879 --   134 o    0.835
   137   8 o    1.821 --   138 h    0.879   139 h    0.856
   138   1 h    0.897 --   137 o    0.879
   139   1 h    0.884 --   137 o    0.856
 ---------------------------------------------------------------------------

Topologies differ in total number of bonds
Writing topology from bond orders to xtbtopo.mol

molecular dipole:
                 x           y           z       tot (Debye)
 q only:        1.173       0.109      -0.125
   full:        1.982      -0.283      -0.612       5.321
molecular quadrupole (traceless):
                xx          xy          yy          xz          yz          zz
 q only:       14.140       6.566     -17.839      -0.883      18.416       3.699
  q+dip:       18.546       7.791     -19.381      -0.865      27.084       0.835
   full:       18.801       7.787     -18.677      -0.711      27.769      -0.124


           -------------------------------------------------
          | TOTAL ENERGY             -234.384955720518 Eh   |
          | GRADIENT NORM               0.048283260692 Eh/α |
          | HOMO-LUMO GAP               8.943136361169 eV   |
           -------------------------------------------------

------------------------------------------------------------------------
 * finished run on 2022/11/23 at 19:44:19.656     
------------------------------------------------------------------------
 total:
 * wall-time:     0 d,  0 h,  0 min,  0.327 sec
 *  cpu-time:     0 d,  0 h,  0 min,  9.504 sec
 * ratio c/w:    29.042 speedup
 SCF:
 * wall-time:     0 d,  0 h,  0 min,  0.231 sec
 *  cpu-time:     0 d,  0 h,  0 min,  7.329 sec
 * ratio c/w:    31.694 speedup

