142
 energy: -239.302747967748 gnorm: 0.013314271771 xtb: 6.5.1 (579679a)
h            0.00000000000000        0.00000000000000        0.00000000000000
o            0.16149299561718       -0.16621830097898       -1.50057086758144
h            1.00521810863865        0.07146439786989       -1.92527509787841
h           -0.13810425198700       -0.99544811434505       -1.91003708809231
o           -0.21545167851123        0.18282941923788        0.98968623488001
h            0.61962629711286        0.33604631202236        1.54200867093706
h           -0.85580750350045        1.00496918516192        0.99759634404570
o           -3.29559008664490        0.04179871452212       -2.26136676869688
h           -3.40129241523821       -0.72937305543090       -2.83974448353666
h           -2.61291222428158        0.60578825399682       -2.68577930922102
o            1.81655253776549        0.45685024261460        2.52464023357154
h            1.56027362064237        0.50601604305336        3.47119991345229
h            2.47690704939962        1.16049206193277        2.37234316470089
o           -0.44458775835242       -2.38846844580485       -3.00485200441864
h           -0.38055510719335       -3.22840947357775       -2.48726191723897
h           -1.38377021281813       -2.33844915634565       -3.26133734852286
o           -1.35874332453954        1.54105866482527       -3.29594367481214
h           -0.78953867174889        0.98471298054143       -3.86486474822903
h           -1.37480628884930        2.43809787020032       -3.68643686198296
o           -0.04436745038376        2.58229532492235       -1.24432758765469
h           -0.50332681160295        2.09717549953013       -1.96845914297192
h            0.75129550409701        2.07383776289548       -1.00175515855993
o            2.41163086295606       -1.16157769013215       -0.08174799351574
h            1.58174679295042       -1.68052878748547       -0.00462910327059
h            3.11367879422201       -1.67509334508978        0.34190598827900
o           -2.16294302252871       -1.26015897338632       -0.22334140357919
h           -2.47267079359266       -0.80719627971084        0.58350089006441
h           -2.50729510848069       -0.73619809549780       -0.97616352813427
o            0.15216203518261       -2.48369373907010        0.31780615961513
h            0.19127700015398       -2.50035614612410        1.29579769087959
h           -0.68239604558942       -2.01485834176725        0.11508937582248
o           -1.64390710738307        2.20611895952296        0.73888936934787
h           -2.51804934078252        2.04222368682824        0.31372861829334
h           -1.08252196956682        2.58525464774757        0.01375873412356
o            2.12464561168166        1.48898239705669       -0.12275525481111
h            2.33309110854280        0.53189071735296       -0.06832140056112
h            2.82212221157188        1.91748840430081       -0.63047932030590
o            0.31687367700136       -0.12712368850605       -4.62845640268522
h            0.03730083533938       -1.00145120738811       -4.33554295786094
h            1.10953673436045        0.10225411861299       -4.10654343370719
o           -0.22436486618407        2.62725598925093        3.56083856943585
h           -0.67632128645293        1.77411229300298        3.63300354064055
h           -0.93313673442610        3.28542453938822        3.44287255918038
o           -1.32894000210502        0.05038369942529        3.87629320826915
h           -1.91929153783355        0.14589872696414        3.08414734596190
h           -1.86488141348198       -0.52559248673693        4.45915357999272
o            2.28278706480996        0.77411768897984       -3.00136390144217
h            3.08584648380424        0.29018617257733       -2.74364569045283
h            2.47623845866177        1.70806179103086       -2.80780330330022
o           -0.03618096614330       -2.16397835813238        2.95790692677422
h            0.65273283704153       -2.36803728310038        3.62242098662256
h           -0.42357751260161       -1.30963638969593        3.22342380794015
o           -4.39848686592111       -2.13508909761270        2.45707564673987
h           -3.69809620100143       -2.78000789907912        2.22545010122919
h           -4.97048398755327       -2.09027587427008        1.67279698060264
o            3.06902334096528        3.24137098217515       -2.12891120438579
h            3.87689236401307        3.67835645913302       -2.39655300825490
h            2.36281653798475        3.92426144141839       -2.13263782234024
o           -0.14500314144677       -4.48406123108181       -1.38691748042612
h            0.77569285733372       -4.76990148356258       -1.50194658325374
h           -0.09684006341541       -3.82548849948243       -0.65418387780679
o            3.45308154273342       -1.68620830715880        2.51582597488930
h            4.22315898258746       -1.24177151289229        2.11841125116004
h            2.76058055318138       -0.99338544483638        2.48326771830947
o           -3.21459136305962       -3.57370136804265       -0.98236871695885
h           -2.69519122214812       -4.35820674415834       -0.79588012186056
h           -2.77200802722148       -2.83119438782993       -0.50522679112655
o           -3.06372905735632        0.05956606057378        1.93837468166332
h           -3.62639802265338       -0.70722811858540        2.21548564685367
h           -3.61789977264203        0.86118490230158        2.00736892196213
o            2.57222797375642       -4.30229121364609       -0.99816972589288
h            2.35634840078499       -4.13876349121749       -0.06345663851268
h            2.48819107205306       -3.45716178765492       -1.47587698077264
o            3.61389190791374        2.49303205310360        2.27978214308876
h            4.07222441969079        2.88539274000151        3.02273020666013
h            2.90803854010050        3.11925115050518        2.00738207706099
o            4.40368681393896       -0.31047623379491       -1.67512503558674
h            3.67867705580314       -0.82724972665020       -1.27137609284550
h            5.09588407731898       -0.94975083778475       -1.84885045996903
o            4.91873383325425        0.15220783867862        1.14055899388220
h            4.88780601282380        0.11769928478005        0.17411643124587
h            4.60433271742360        1.02425938817233        1.40622031713497
o            1.26003161479776        3.52037968908971        1.50667830581475
h            1.38367392112663        2.78488835622624        0.88524241146955
h            0.73293667790045        3.17849704310852        2.26198055864024
o            2.22451508421589       -3.97393237651003        1.73759829009059
h            2.64310112498086       -3.13380517095485        2.02368611224820
h            2.51741811864114       -4.63557407452494        2.36545608014010
o           -3.91065700308098        2.15102524623426       -0.62141997174636
h           -3.90610695660282        1.43118254541897       -1.26782874297471
h           -3.56126713319620        2.94364582819708       -1.08334141539065
o           -2.50949217897673        4.17177863565464       -1.61380844627553
h           -1.86423328034193        4.56717547727109       -1.00376860957351
h           -2.16518610152030        4.28324700241298       -2.50544703885224
o           -0.67807282769050        5.07926410496065        0.31226539582900
h           -1.27018970345563        5.28380461488435        1.04256506427391
h            0.07002140480361        4.60201575093837        0.71997842860233
o           -3.12813220538098       -2.45713972893381       -3.37443419732994
h           -3.23090516454617       -2.95351018828193       -2.52264158985657
h           -3.59470680619363       -2.95168917085080       -4.04717084791540
o            2.32668024693743       -2.20595787443765       -2.79360053161796
h            2.77922949345101       -2.53347460965149       -3.57057517703273
h            1.37703742464251       -2.26191775504587       -2.97293389587997
o           -2.17972284847167       -3.51880210323578        1.90371908497829
h           -1.73706703413984       -4.36864525889018        1.74353523803973
h           -1.51618200283307       -3.00385294001116        2.39130205434221
o            1.94110277391004       -2.27024358417371        4.76255084054451
h            1.81298878139611       -1.42958000316771        5.21617844005827
h            2.72695272850135       -2.16396261743397        4.20768937002290
o           -2.29857106924552        4.08585573392643        2.57360432502876
h           -3.20837276993658        3.92453216019363        2.83286477937497
h           -2.12597384825853        3.44800549150408        1.85314848567031
o            1.08830305523033        0.46836717734628        5.09495647260464
h            0.15914663733476        0.27367137500937        4.88427653145128
h            1.09667006455406        1.35669884562926        5.45779512114199
o           -5.26119795358173       -1.82515897306693       -0.12945339248995
h           -5.03239436440934       -1.09695811202767       -0.71131145020657
h           -4.81193102896295       -2.60741410339166       -0.47687846665665
o            4.69793142043964       -2.75206073877164       -0.10061938916476
h            5.31925399479513       -3.03959206769537        0.56720843137589
h            4.26532007647613       -3.54212070697252       -0.46250522818990
o            0.91975817916742        4.87151017913563       -2.07833222127828
h            0.71904721938896        5.58366124886448       -1.46628152726287
h            0.46743831103220        4.07882360177889       -1.69689792706659
o           -2.90021406762676       -1.87458544358142        4.82160367846589
h           -3.63168900926236       -1.95273921273072        4.19264369161873
h           -2.50033059982648       -2.74427135589482        4.87797398363611
o           -0.88936294898742        4.08628534948628       -4.05332895884396
h           -0.36692345875796        3.73683174190776       -4.79132167737512
h           -0.24087276205245        4.54629407590827       -3.49410031262769
o            0.86103768961537        2.49910928263986       -5.45951793388220
h            1.79234626061134        2.46927576180767       -5.23612977580729
h            0.57538390381749        1.58465888118019       -5.56709870900104
o           -4.59929921939070        2.27827799192793        1.98648950749940
h           -5.51426254290314        2.08566633969811        2.19032097498856
h           -4.54458545726669        2.39275242920727        1.02014637975395
o           -0.28804180367635       -5.39379694537920        1.36225544671403
h           -0.25451993498614       -5.62803050284769        0.42960051224304
h            0.50708050265457       -4.87472418253743        1.54516282414441
o            1.72330709081672       -2.66056178246085       -5.48402343940846
h            0.85634259715123       -3.05059409077486       -5.61183643305033
h            1.76224751360406       -1.87067305154446       -6.02683853904784
142
 energy: -239.304308310391 gnorm: 0.008658631613 xtb: 6.5.1 (579679a)
h            0.00000000000000       -0.00000000000000        0.00000000000000
o            0.16053400670433       -0.16481680352771       -1.50236068480804
h            1.00808155276744        0.06886529816169       -1.92228087441059
h           -0.13019860778822       -1.00070507077685       -1.90489743991320
o           -0.21547863406840        0.18268955402971        0.98991839734746
h            0.61996166652839        0.33474160701126        1.54188600848976
h           -0.85465649610675        1.00534988737815        0.99822448509387
o           -3.29714816439909        0.04238234076606       -2.26310551848920
h           -3.40096838905364       -0.73046833053444       -2.83940644580115
h           -2.61169678491831        0.60454208005598       -2.68541607890587
o            1.81604622237960        0.45719587619133        2.52505081110255
h            1.56102663247568        0.50589674460711        3.47186102328385
h            2.47740189806367        1.15972001891036        2.37228322282083
o           -0.45457288440422       -2.38695465868421       -3.00728725287986
h           -0.37576230920796       -3.22602463593974       -2.48982678682427
h           -1.39716579757501       -2.34003708121488       -3.24846460162535
o           -1.35839495811325        1.53886886863542       -3.29867867760645
h           -0.78211773310241        0.98459899940494       -3.86260307442817
h           -1.37200523674101        2.43711857037841       -3.68643179013451
o           -0.04388561391589        2.58178428571019       -1.24466236274571
h           -0.50346418211606        2.09539817875796       -1.96730536118167
h            0.75147687529547        2.07281192890864       -1.00118230686458
o            2.41045446843990       -1.15751387479616       -0.07624576604798
h            1.58315288993915       -1.68136021546947       -0.00742464742802
h            3.11539094885452       -1.67634989053683        0.33588863722876
o           -2.16527662704013       -1.26006359057399       -0.22318931330717
h           -2.47191392231951       -0.80622675089828        0.58427064451648
h           -2.50802786753104       -0.73434011414017       -0.97522391443688
o            0.15115962235449       -2.48387703398185        0.31838694049802
h            0.19074696715091       -2.50018013684234        1.29617607380575
h           -0.68278273345065       -2.01473637318253        0.11514987113368
o           -1.64387492322875        2.20672710335704        0.73903410118611
h           -2.51764367984373        2.04230416175730        0.31351855229549
h           -1.08180119922844        2.58504352140095        0.01398339130943
o            2.12432975092067        1.48986492818826       -0.12221158349433
h            2.33162139026402        0.53217401864597       -0.06886006804291
h            2.82170820671261        1.91689441980852       -0.63113868310927
o            0.32189983290531       -0.13177766409213       -4.63170246917407
h            0.04700987102580       -1.00026931259570       -4.31537596749158
h            1.11317341767455        0.10833907562829       -4.11175051312249
o           -0.22434173576969        2.62816813575374        3.56157871395463
h           -0.67574808912843        1.77464198660488        3.63265649702074
h           -0.93330620163018        3.28584365920684        3.44243904995597
o           -1.33026587952003        0.05260715524202        3.87744203026284
h           -1.91780229461097        0.14361756020610        3.08272258315845
h           -1.86490926962760       -0.52611395639745        4.45884069495680
o            2.28083563710016        0.77549348769073       -3.00599286024291
h            3.07511661743605        0.27903842050413       -2.74208197259422
h            2.48267636416377        1.70576431788182       -2.80472117196426
o           -0.03720963862750       -2.16350209826883        2.95956523045480
h            0.65278875316959       -2.36778038687650        3.62288329187592
h           -0.42319138398268       -1.30852454259690        3.22496891775773
o           -4.39876562756927       -2.13526321318460        2.45700963024192
h           -3.69765374605525       -2.77981745355367        2.22606099702792
h           -4.97043870539291       -2.09118349873844        1.67251230913096
o            3.06991140202089        3.24338215973563       -2.12998422469174
h            3.87839051571113        3.68109979242858       -2.39446302676271
h            2.36382842057893        3.92625241123789       -2.13078083819170
o           -0.14522556023557       -4.48341840293849       -1.38985197659413
h            0.77680553525929       -4.76335168805824       -1.51213921061570
h           -0.09426259919051       -3.82410369933940       -0.65829124145413
o            3.45412572106402       -1.68493884116259        2.51975254183903
h            4.22328643572104       -1.24386389366408        2.11670508929072
h            2.76087173237404       -0.99345164099923        2.47995264872331
o           -3.21386523933007       -3.57309507535566       -0.98350772404614
h           -2.69402164929956       -4.35729268430001       -0.79729106530808
h           -2.77100751308847       -2.83078672631191       -0.50616995991208
o           -3.06479650376516        0.06005875081146        1.93858232300277
h           -3.62660629231369       -0.70723186137041        2.21602885357135
h           -3.61910005518162        0.86141350365420        2.00854484967150
o            2.57102921847482       -4.30960684174715       -0.99425512564850
h            2.35565495493579       -4.12914979035884       -0.06282745750875
h            2.49407114443623       -3.47141548465904       -1.48770490138503
o            3.61372109159328        2.49328700196144        2.28011775783772
h            4.07224259218859        2.88593395076435        3.02277823906897
h            2.90802999088650        3.11935069094702        2.00706192643746
o            4.40171095063120       -0.30518715681060       -1.67084423698571
h            3.66932259867996       -0.82420992602729       -1.28290579244766
h            5.08652727266917       -0.94890796804893       -1.85775545835822
o            4.92055802754225        0.15206790678099        1.14129672267726
h            4.88697027209990        0.11241528093352        0.17492387632829
h            4.60265251437779        1.02381512289857        1.40346252043927
o            1.25949484464392        3.52067966013560        1.50638130163603
h            1.38494934289670        2.78487117520903        0.88550049286487
h            0.73291663915136        3.17818339386615        2.26171230006867
o            2.21927657061603       -3.97248406595858        1.74351102368056
h            2.64409865815663       -3.13337814684796        2.02365316140527
h            2.52259666788243       -4.63609202158490        2.36416299662775
o           -3.91171947886091        2.15157451636898       -0.62144423507755
h           -3.90601869523266        1.43120486679936       -1.26717175988284
h           -3.56082653308088        2.94367543487898       -1.08307670893477
o           -2.50953136649685        4.17248184941751       -1.61404278824913
h           -1.86391064240486        4.56621936087285       -1.00321423488786
h           -2.16391273739035        4.28323235266582       -2.50520782631226
o           -0.67806857345998        5.07963444515636        0.31206790759917
h           -1.26984147793912        5.28298236992147        1.04296772276306
h            0.06995443845536        4.60115942477896        0.71873065192830
o           -3.13737062826821       -2.46124696248274       -3.37760420134412
h           -3.23398405617445       -2.95306891335654       -2.52202489954100
h           -3.60881304163795       -2.95941729435645       -4.04420149203874
o            2.33728113141116       -2.21260476513669       -2.76554263519755
h            2.75972199155022       -2.51313213396059       -3.57394763761056
h            1.38629234538671       -2.24084786262654       -2.93792623936152
o           -2.18056777720112       -3.51883841665217        1.90442585861711
h           -1.73679457484261       -4.36778118171628        1.74197962492922
h           -1.51601710405599       -3.00292394355611        2.38976244746224
o            1.94098371888910       -2.27011690954517        4.76361440169450
h            1.81398936243471       -1.42879726596051        5.21623175614320
h            2.72635419556376       -2.16503197581652        4.20769903773104
o           -2.29909568445929        4.08676251726091        2.57304111483816
h           -3.20858377746245        3.92466676999031        2.83287028283720
h           -2.12584304757637        3.44810990205057        1.85340116729571
o            1.08821950958121        0.46892327705270        5.09594997933905
h            0.15942033555376        0.27346168524967        4.88442742420856
h            1.09583103728751        1.35754772602510        5.45798507938989
o           -5.26285238273772       -1.82583444020290       -0.13044558916263
h           -5.03013954168248       -1.09701433413400       -0.70994535888482
h           -4.81029785630983       -2.60754479597649       -0.47489615932322
o            4.69776815382291       -2.75099825267536       -0.09647602921262
h            5.32152771960238       -3.04891311775088        0.56438645708483
h            4.26266177475314       -3.53497211534695       -0.46909882693005
o            0.91776760020514        4.87150760853753       -2.07995219196626
h            0.71903555625236        5.58345236909645       -1.46699738673495
h            0.46965515313016        4.07789112724376       -1.69519138394136
o           -2.90176844645094       -1.87438983905312        4.82339730631836
h           -3.63195006552108       -1.95308803504819        4.19293506126266
h           -2.50118183934069       -2.74382180607881        4.88038787029782
o           -0.88838325383090        4.08563057445467       -4.05585584356145
h           -0.36326312555408        3.73958182127345       -4.79343555534555
h           -0.24249771108612        4.54627451848812       -3.49397369418337
o            0.86432994223657        2.50189392042009       -5.47471772110793
h            1.79029808976969        2.47236305082891       -5.22856571458146
h            0.57290699681043        1.58614728276478       -5.55398709762044
o           -4.60138912959234        2.27870147117452        1.98723835995711
h           -5.51686671022200        2.08768310066608        2.19065857623233
h           -4.54569517998744        2.39272816995996        1.02089999589999
o           -0.28942352384171       -5.39428946648347        1.36011379035691
h           -0.25295338898275       -5.62739306797512        0.42714673005286
h            0.50522709721113       -4.87479447407710        1.54517163132357
o            1.70393180478123       -2.61723399164673       -5.39555448954179
h            0.86333298551690       -3.05190223403897       -5.56194363625688
h            1.72388057679568       -1.82344416194508       -5.93345272671617
142
 energy: -239.305349431200 gnorm: 0.008258543368 xtb: 6.5.1 (579679a)
h            0.00000000000000       -0.00000000000000        0.00000000000000
o            0.16008693208116       -0.16229299936536       -1.50310727053696
h            1.01048114971908        0.06331738179048       -1.92218873237015
h           -0.13452953979303       -0.99817572879036       -1.90278378541085
o           -0.21552152938065        0.18215791794557        0.98993275988166
h            0.62035709878026        0.33317215076415        1.54207942859619
h           -0.85407583811366        1.00473580457970        0.99927398443925
o           -3.29801968000855        0.04164713100266       -2.26462115588085
h           -3.40370700274809       -0.73116561061649       -2.84040934391965
h           -2.61248516173204        0.60321785607715       -2.68711422572422
o            1.81458209592435        0.45855584610395        2.52470110579199
h            1.56201465826816        0.50570108440638        3.47213902284640
h            2.47843139558411        1.15865769263171        2.37212244563218
o           -0.46725121566520       -2.37397705448788       -3.00454295103500
h           -0.36820341617454       -3.21906016615267       -2.49956738089203
h           -1.41145236060190       -2.33929021001076       -3.23906697154725
o           -1.35673944235921        1.53654354846063       -3.30152845123548
h           -0.78198729195726        0.97964957757716       -3.86362809740497
h           -1.36917951514865        2.43449955045523       -3.69023624272711
o           -0.04382202194395        2.58175436484462       -1.24528808656009
h           -0.50298773059565        2.09241690789092       -1.96552924100300
h            0.75231996692086        2.07422985645110       -1.00039984299489
o            2.40540086304565       -1.14922523953196       -0.06685303694825
h            1.58580067473408       -1.68511653114477       -0.00422630472462
h            3.12164804431788       -1.67307066436710        0.32011124807371
o           -2.16677383229376       -1.25849064734157       -0.22263195712861
h           -2.47434984983444       -0.80632972819048        0.58544223474101
h           -2.50924024909307       -0.73230893595229       -0.97402996977611
o            0.14943319987641       -2.48443791564213        0.31805221238491
h            0.19199354796798       -2.50305107266517        1.29557118453394
h           -0.68523233321270       -2.01623016972269        0.11788949840974
o           -1.64348130540589        2.20706647297645        0.73943810765568
h           -2.51795683603337        2.04326584318372        0.31544116572942
h           -1.08211954283771        2.58573986842167        0.01421289868150
o            2.12259759550772        1.49161098443367       -0.12571711694301
h            2.33063370592538        0.53420035941325       -0.06344289281188
h            2.82638542989071        1.91600206265039       -0.62797222364898
o            0.33101919427314       -0.13570929971290       -4.63343418133240
h            0.05821697773578       -0.99567747962049       -4.28542157714122
h            1.11933799416001        0.11573639873324       -4.11326231578582
o           -0.22456735655023        2.62885494299688        3.56041755464025
h           -0.67572083822209        1.77537492811396        3.63418256037722
h           -0.93376004614266        3.28658691838431        3.44354794342575
o           -1.33136794846542        0.05323546239824        3.87785816098944
h           -1.92089446637006        0.14745563841748        3.08527384178216
h           -1.86637147958484       -0.52441318116624        4.46006388399104
o            2.27734730498098        0.78079604216923       -3.01089158149865
h            3.07006219844186        0.27503396880056       -2.75913804959532
h            2.48884159262386        1.70753495629410       -2.80401356724145
o           -0.03768961255347       -2.16307108377497        2.95983758190438
h            0.65283018378696       -2.36874814339659        3.62235179505421
h           -0.42237634388043       -1.30815602558644        3.22634705722255
o           -4.39765683426313       -2.13506182515794        2.45697248111793
h           -3.69608951411738       -2.77971151421147        2.22694835555011
h           -4.97018683397150       -2.09295982980670        1.67303174744727
o            3.07067228264027        3.24452708427615       -2.13098670766714
h            3.88135163199712        3.68178208130544       -2.38954364985355
h            2.36585028602634        3.92843212285939       -2.13193364615125
o           -0.14115506082677       -4.47699712616590       -1.40111467404265
h            0.78100027430685       -4.75913214778346       -1.52093933149666
h           -0.09057717766897       -3.82506668533146       -0.66337037276273
o            3.45589891856809       -1.68423526156187        2.52261977155975
h            4.22481391555698       -1.24514854538706        2.11681483275198
h            2.76282911197084       -0.99314150465991        2.48069972793544
o           -3.21204760506299       -3.57244681844714       -0.98395253436897
h           -2.69088933717061       -4.35605617286083       -0.79895771729788
h           -2.76931538590108       -2.83019736173710       -0.50624943289952
o           -3.06571490764237        0.06091182149560        1.93792777372324
h           -3.62624559565435       -0.70709403421598        2.21615760695946
h           -3.62084595371739        0.86147574435511        2.00908482159223
o            2.57312969299332       -4.32314474935704       -0.99046832213001
h            2.35014625435789       -4.12525673095532       -0.06450989713572
h            2.50559226482670       -3.49315240343981       -1.50328513525940
o            3.61346378877642        2.49405659840763        2.27920193104260
h            4.07357004684421        2.88433294111103        3.02210927176987
h            2.90774058633366        3.12098754285086        2.00897135741914
o            4.38762903449210       -0.30804636733664       -1.66955851942408
h            3.67207608356467       -0.84280285283623       -1.27151638550324
h            5.07957388751028       -0.93976596785722       -1.87139829812171
o            4.92203749051744        0.15024681004295        1.13955100574851
h            4.88335189103166        0.10437872635325        0.17326409886192
h            4.60299632427376        1.02245952220444        1.39844186461441
o            1.25821712905435        3.52084757415446        1.50446170148802
h            1.38631177141947        2.78334143661984        0.88607024061926
h            0.73358916557079        3.17883440844387        2.26140755587880
o            2.21459823747282       -3.96822860571277        1.74814610155243
h            2.64482728232386       -3.13193654133585        2.02824739518398
h            2.52547356494513       -4.63696877104441        2.35943438055534
o           -3.91155703274803        2.15120843374590       -0.62150475622413
h           -3.90645576798125        1.43170991706946       -1.26809653698893
h           -3.56209532792276        2.94425750865285       -1.08248474428474
o           -2.50756095692735        4.16997617081367       -1.61434646593505
h           -1.86437354901436        4.56673891291118       -1.00272311037829
h           -2.16339310765654        4.28523203980694       -2.50539315069115
o           -0.67825221976263        5.07850237545089        0.31112453803472
h           -1.26968060694540        5.28341238287057        1.04190885612022
h            0.06975664595264        4.60072952384983        0.71881788824481