      -----------------------------------------------------------      
     |                   =====================                   |     
     |                           x T B                           |     
     |                   =====================                   |     
     |                         S. Grimme                         |     
     |          Mulliken Center for Theoretical Chemistry        |     
     |                    University of Bonn                     |     
      -----------------------------------------------------------      

   * xtb version 6.5.1 (579679a) compiled by 'ehlert@majestix' on 2022-07-11

   xtb is free software: you can redistribute it and/or modify it under
   the terms of the GNU Lesser General Public License as published by
   the Free Software Foundation, either version 3 of the License, or
   (at your option) any later version.
   
   xtb is distributed in the hope that it will be useful,
   but WITHOUT ANY WARRANTY; without even the implied warranty of
   MERCHANTABILITY or FITNESS FOR A PARTICULAR PURPOSE.  See the
   GNU Lesser General Public License for more details.
   
   Cite this work as:
   * C. Bannwarth, E. Caldeweyher, S. Ehlert, A. Hansen, P. Pracht,
     J. Seibert, S. Spicher, S. Grimme, WIREs Comput. Mol. Sci., 2020, 11,
     e01493. DOI: 10.1002/wcms.1493
   
   for GFN2-xTB:
   * C. Bannwarth, S. Ehlert and S. Grimme., J. Chem. Theory Comput., 2019,
     15, 1652-1671. DOI: 10.1021/acs.jctc.8b01176
   for GFN1-xTB:
   * S. Grimme, C. Bannwarth, P. Shushkov, J. Chem. Theory Comput., 2017,
     13, 1989-2009. DOI: 10.1021/acs.jctc.7b00118
   for GFN0-xTB:
   * P. Pracht, E. Caldeweyher, S. Ehlert, S. Grimme, ChemRxiv, 2019, preprint.
     DOI: 10.26434/chemrxiv.8326202.v1
   for GFN-FF:
   * S. Spicher and S. Grimme, Angew. Chem. Int. Ed., 2020, 59, 15665-15673.
     DOI: 10.1002/anie.202004239
   
   for ALPB and GBSA implicit solvation:
   * S. Ehlert, M. Stahn, S. Spicher, S. Grimme, J. Chem. Theory Comput.,
     2021, 17, 4250-4261. DOI: 10.1021/acs.jctc.1c00471
   
   for DFT-D4:
   * E. Caldeweyher, C. Bannwarth and S. Grimme, J. Chem. Phys., 2017,
     147, 034112. DOI: 10.1063/1.4993215
   * E. Caldeweyher, S. Ehlert, A. Hansen, H. Neugebauer, S. Spicher,
     C. Bannwarth and S. Grimme, J. Chem. Phys., 2019, 150, 154122.
     DOI: 10.1063/1.5090222
   * E. Caldeweyher, J.-M. Mewes, S. Ehlert and S. Grimme, Phys. Chem. Chem. Phys.
     2020, 22, 8499-8512. DOI: 10.1039/D0CP00502A
   
   for sTDA-xTB:
   * S. Grimme and C. Bannwarth, J. Chem. Phys., 2016, 145, 054103.
     DOI: 10.1063/1.4959605
   
   in the mass-spec context:
   * V. Asgeirsson, C. Bauer and S. Grimme, Chem. Sci., 2017, 8, 4879.
     DOI: 10.1039/c7sc00601b
   * J. Koopman and S. Grimme, ACS Omega 2019, 4, 12, 15120-15133.
     DOI: 10.1021/acsomega.9b02011
   
   for metadynamics refer to:
   * S. Grimme, J. Chem. Theory Comput., 2019, 155, 2847-2862
     DOI: 10.1021/acs.jctc.9b00143
   
   for SPH calculations refer to:
   * S. Spicher and S. Grimme, J. Chem. Theory Comput., 2021, 17, 1701-1714
     DOI: 10.1021/acs.jctc.0c01306
   
   with help from (in alphabetical order)
   P. Atkinson, C. Bannwarth, F. Bohle, G. Brandenburg, E. Caldeweyher
   M. Checinski, S. Dohm, S. Ehlert, S. Ehrlich, I. Gerasimov, C. Hölzer
   A. Katbashev, J. Koopman, C. Lavigne, S. Lehtola, F. März, M. Müller,
   F. Musil, H. Neugebauer, J. Pisarek, C. Plett, P. Pracht, F. Pultar,
   J. Seibert, P. Shushkov, S. Spicher, M. Stahn, M. Steiner, T. Strunk,
   J. Stückrath, T. Rose, and J. Unsleber
   
 * started run on 2022/11/03 at 00:49:15.947     

           -------------------------------------------------
          |                Calculation Setup                |
           -------------------------------------------------

          program call               : xtb cluster.xyz --gfn2 --ohess
          hostname                   : cn0272
          coordinate file            : cluster.xyz
          omp threads                :                     1

   ID    Z sym.   atoms
    1    1 H      1, 3, 5, 6, 8, 10-12, 14, 15, 17, 18, 20, 21, 23, 24, 26,
                  27, 29, 30, 32, 33, 35, 36, 38, 39, 41, 42, 44, 45, 47, 48,
                  50, 51, 53, 54, 56, 57, 59, 60, 62, 63, 65, 66, 68, 69, 71,
                  72, 74, 75, 77, 78, 80, 81, 83, 84, 86, 87, 89, 90, 92, 93,
                  95, 96, 98, 99, 101, 102, 104, 105, 107, 108, 110, 111,
                  113, 114, 116, 117, 119, 120, 122, 123, 125, 126, 128, 129,
                  131, 132, 134, 135, 137, 138, 140, 141, 143, 144, 146, 147,
                  149, 150, 152, 153, 155, 156, 158, 159, 161, 162, 164, 165,
                  167, 168, 170, 171, 173, 174, 176, 177, 179, 180, 182, 183,
                  185, 186, 188, 189, 191, 192, 194, 195, 197, 198, 200, 201,
                  203, 204, 206, 207, 209, 210, 212, 213, 215, 216, 218, 219,
                  221, 222, 224, 225, 227, 228, 230, 231, 233, 234, 236, 237,
                  239, 240, 242, 243, 245, 246, 248, 249, 251, 252, 254, 255,
                  257, 258, 260, 261, 263, 264, 266, 267, 269, 270, 272, 273,
                  275, 276, 278, 279, 281, 282, 284, 285, 287, 288, 290, 291,
                  293, 294, 296, 297, 299, 300, 302, 303, 305, 306, 308, 309,
                  311, 312, 314, 315, 317, 318, 320, 321, 323, 324, 326, 327,
                  329, 330, 332, 333, 335, 336, 338, 339, 341, 342, 344, 345,
                  347, 348, 350, 351, 353, 354, 356, 357, 359, 360, 362, 363,
                  365, 366, 368, 369, 371, 372, 374, 375, 377, 378, 380, 381,
                  383, 384, 386, 387, 389, 390, 392, 393, 395, 396, 398, 399,
                  401, 402, 404, 405, 407, 408, 410, 411, 413, 414, 416, 417,
                  419, 420, 422, 423, 425, 426, 428, 429, 431, 432, 434, 435,
                  437, 438, 440, 441, 443, 444, 446, 447, 449, 450, 452, 453,
                  455, 456, 458, 459, 461, 462, 464, 465, 467, 468, 470, 471,
                  473, 474, 476, 477, 479, 480, 482, 483, 485, 486, 488, 489,
                  491, 492, 494, 495, 497, 498, 500, 501, 503, 504, 506, 507,
                  509, 510, 512, 513, 515, 516, 518, 519, 521, 522, 524, 525,
                  527, 528, 530, 531, 533, 534, 536, 537, 539, 540, 542, 543,
                  545, 546, 548, 549, 551, 552, 554, 555, 557, 558, 560, 561,
                  563, 564, 566, 567, 569, 570, 572, 573, 575, 576, 578, 579,
                  581, 582, 584, 585, 587, 588, 590, 591, 593, 594, 596, 597,
                  599, 600, 602, 603, 605, 606, 608, 609, 611, 612
    2    6 C      2, 4
    3    8 O      7, 13, 16, 19, 22, 25, 28, 31, 34, 37, 40, 43, 46, 49, 52,
                  55, 58, 61, 64, 67, 70, 73, 76, 79, 82, 85, 88, 91, 94, 97,
                  100, 103, 106, 109, 112, 115, 118, 121, 124, 127, 130, 133,
                  136, 139, 142, 145, 148, 151, 154, 157, 160, 163, 166, 169,
                  172, 175, 178, 181, 184, 187, 190, 193, 196, 199, 202, 205,
                  208, 211, 214, 217, 220, 223, 226, 229, 232, 235, 238, 241,
                  244, 247, 250, 253, 256, 259, 262, 265, 268, 271, 274, 277,
                  280, 283, 286, 289, 292, 295, 298, 301, 304, 307, 310, 313,
                  316, 319, 322, 325, 328, 331, 334, 337, 340, 343, 346, 349,
                  352, 355, 358, 361, 364, 367, 370, 373, 376, 379, 382, 385,
                  388, 391, 394, 397, 400, 403, 406, 409, 412, 415, 418, 421,
                  424, 427, 430, 433, 436, 439, 442, 445, 448, 451, 454, 457,
                  460, 463, 466, 469, 472, 475, 478, 481, 484, 487, 490, 493,
                  496, 499, 502, 505, 508, 511, 514, 517, 520, 523, 526, 529,
                  532, 535, 538, 541, 544, 547, 550, 553, 556, 559, 562, 565,
                  568, 571, 574, 577, 580, 583, 586, 589, 592, 595, 598, 601,
                  604, 607, 610
    4    7 N      9

molecular fragmentation (1/2 indicates fragments):
111111111111222222222222222222222222222222222222222222222222222222222222
222222222222222222222222222222222222222222222222222222222222222222222222
222222222222222222222222222222222222222222222222222222222222222222222222
222222222222222222222222222222222222222222222222222222222222222222222222
222222222222222222222222222222222222222222222222222222222222222222222222
222222222222222222222222222222222222222222222222222222222222222222222222
222222222222222222222222222222222222222222222222222222222222222222222222
222222222222222222222222222222222222222222222222222222222222222222222222
222222222222222222222222222222222222
# atoms in fragment 1/2:    12   600
 fragment masses (1/2) :       62.09     3603.06
CMA distance (Bohr)    :   3.151
constraining FC (au)   :  0.0500

           -------------------------------------------------
          |                 G F N 2 - x T B                 |
           -------------------------------------------------

        Reference                      10.1021/acs.jctc.8b01176
      * Hamiltonian:
        H0-scaling (s, p, d)           1.850000    2.230000    2.230000
        zeta-weighting                 0.500000
      * Dispersion:
        s8                             2.700000
        a1                             0.520000
        a2                             5.000000
        s9                             5.000000
      * Repulsion:
        kExp                           1.500000    1.000000
        rExp                           1.000000
      * Coulomb:
        alpha                          2.000000
        third order                    shell-resolved
        anisotropic                    true
        a3                             3.000000
        a5                             4.000000
        cn-shift                       1.200000
        cn-exp                         4.000000
        max-rad                        5.000000


          ...................................................
          :                      SETUP                      :
          :.................................................:
          :  # basis functions                1224          :
          :  # atomic orbitals                1224          :
          :  # shells                          816          :
          :  # electrons                      1626          :
          :  max. iterations                   250          :
          :  Hamiltonian                  GFN2-xTB          :
          :  restarted?                      false          :
          :  GBSA solvation                  false          :
          :  PC potential                    false          :
          :  electronic temp.          300.0000000     K    :
          :  accuracy                    1.0000000          :
          :  -> integral cutoff          0.2500000E+02      :
          :  -> integral neglect         0.1000000E-07      :
          :  -> SCF convergence          0.1000000E-05 Eh   :
          :  -> wf. convergence          0.1000000E-03 e    :
          :  Broyden damping             0.4000000          :
          ...................................................

 iter      E             dE          RMSdq      gap      omega  full diag
   1  -1039.6736865 -0.103967E+04  0.406E+00    7.97       0.0  T
   2  -1039.7838248 -0.110138E+00  0.241E+00    8.29       1.0  T
   3  -1039.8084864 -0.246615E-01  0.225E-01    8.13       1.0  T
   4  -1039.8124265 -0.394014E-02  0.904E-02    8.16       1.0  T
   5  -1039.8129338 -0.507341E-03  0.294E-02    8.19       1.0  T
   6  -1039.8129652 -0.313682E-04  0.135E-02    8.20       1.0  T
   7  -1039.8129703 -0.508962E-05  0.185E-03    8.20       2.2  T
   8  -1039.8129707 -0.420557E-06  0.618E-04    8.20       6.5  T
   9  -1039.8129707 -0.162097E-07  0.204E-04    8.20      19.8  T

   *** convergence criteria satisfied after 9 iterations ***

         #    Occupation            Energy/Eh            Energy/eV
      -------------------------------------------------------------
         1        2.0000           -0.7357134             -20.0198
       ...           ...                  ...                  ...
       807        2.0000           -0.4595609             -12.5053
       808        2.0000           -0.4589038             -12.4874
       809        2.0000           -0.4587935             -12.4844
       810        2.0000           -0.4570033             -12.4357
       811        2.0000           -0.4537707             -12.3477
       812        2.0000           -0.4519807             -12.2990
       813        2.0000           -0.4486495             -12.2084 (HOMO)
       814                         -0.1473847              -4.0105 (LUMO)
       815                         -0.1355603              -3.6888
       816                         -0.1253735              -3.4116
       817                         -0.1220205              -3.3203
       818                         -0.1113611              -3.0303
       ...                                ...                  ...
      1224                          0.3760526              10.2329
      -------------------------------------------------------------
                  HL-Gap            0.3012649 Eh            8.1978 eV
             Fermi-level           -0.2980171 Eh           -8.1095 eV

 SCC (total)                   0 d,  0 h,  0 min, 17.499 sec
 SCC setup                      ...        0 min,  0.036 sec (  0.205%)
 Dispersion                     ...        0 min,  0.100 sec (  0.569%)
 classical contributions        ...        0 min,  0.021 sec (  0.120%)
 integral evaluation            ...        0 min,  0.709 sec (  4.051%)
 iterations                     ...        0 min,  6.887 sec ( 39.360%)
 molecular gradient             ...        0 min,  9.673 sec ( 55.279%)
 printout                       ...        0 min,  0.073 sec (  0.415%)

         :::::::::::::::::::::::::::::::::::::::::::::::::::::
         ::                     SUMMARY                     ::
         :::::::::::::::::::::::::::::::::::::::::::::::::::::
         :: total energy           -1033.481957746799 Eh    ::
         :: gradient norm              0.000372932965 Eh/a0 ::
         :: HOMO-LUMO gap              8.197833920411 eV    ::
         ::.................................................::
         :: SCC energy             -1039.812970740904 Eh    ::
         :: -> isotropic ES            5.727237397845 Eh    ::
         :: -> anisotropic ES         -1.311525151060 Eh    ::
         :: -> anisotropic XC         -0.097715920633 Eh    ::
         :: -> dispersion             -0.631673162614 Eh    ::
         :: repulsion energy           6.208956557867 Eh    ::
         :: add. restraining           0.000000000000 Eh    ::
         :: total charge               1.000000000000 e     ::
         :::::::::::::::::::::::::::::::::::::::::::::::::::::

      ----------------------------------------------------------- 
     |                       L-ANC optimizer                     |
      ----------------------------------------------------------- 
          low memory version by Sebastian Ehlert

          ...................................................
          :                      SETUP                      :
          :.................................................:
          :   energy convergence        0.5000000E-05 Eh    :
          :   grad. convergence         0.1000000E-02 Eh/a0 :
          :   optimization log               true           :
          :   writing optlog all                1     steps :
          :   Hessian reset                    20     steps :
          :   maximium step len.        1.0000000     a0    :
          :   LBFGS images                     20           :
          ...................................................
 * calculating model hessian...
Using Lindh-Hessian (1995)
 Shifting diagonal of input Hessian by   1.037500006146729E-002
 Lowest  eigenvalues of input Hessian
    0.010000    0.000000    0.000000    0.000000    0.000000    0.000000
    0.000000    0.010390    0.010405    0.010424    0.010490    0.010503
    0.010520    0.010539    0.010545    0.010580    0.010589    0.010611
 Highest eigenvalues
    1.435507    1.437073    1.438568    1.445303    1.462689    1.506762
 

........................................................................
.............................. CYCLE    1 ..............................
........................................................................
   1  -1039.8128591 -0.103981E+04  0.158E-03    8.20       0.0  T
   2  -1039.8128591 -0.418552E-07  0.955E-04    8.20       4.2  T
   3  -1039.8128591 -0.114026E-07  0.116E-04    8.20      34.8  T
     SCC iter.                  ...        0 min,  2.053 sec
     gradient                   ...        0 min,  9.523 sec
 * total energy  : -1033.4819561 Eh     change        0.1682191E-05 Eh
   gradient norm :     0.0006248 Eh/a0  converged?    E=F G=T D=F
   step length   :     0.0211538 a0

........................................................................
.............................. CYCLE    2 ..............................
........................................................................
   1  -1039.8128955 -0.103981E+04  0.103E-03    8.20       0.0  T
   2  -1039.8128955 -0.211492E-07  0.620E-04    8.20       6.5  T
   3  -1039.8128956 -0.522618E-08  0.839E-05    8.20      48.2  T
     SCC iter.                  ...        0 min,  2.002 sec
     gradient                   ...        0 min,  9.518 sec
 * total energy  : -1033.4819590 Eh     change       -0.2964217E-05 Eh
   gradient norm :     0.0001544 Eh/a0  converged?    E=T G=T D=F
   step length   :     0.0132093 a0

   *** GEOMETRY OPTIMIZATION CONVERGED AFTER 2 CYCLES ***

------------------------------------------------------------------------
 total energy gain   :        -0.0000013 Eh       -0.0008 kcal/mol
 total RMSD          :         0.0004915 a0        0.0003 Å
 total power (kW/mol):        -0.0016830 (step)   -0.0001 (real)
------------------------------------------------------------------------

 L-ANCopt (total)              0 d,  0 h,  0 min, 31.404 sec
 setup                          ...        0 min,  0.022 sec (  0.069%)
 model hessian                  ...        0 min,  4.702 sec ( 14.971%)
 ANC generation                 ...        0 min,  1.715 sec (  5.461%)
 coordinate transformation      ...        0 min,  0.014 sec (  0.044%)
 Rational function              ...        0 min,  0.003 sec (  0.010%)
 singlepoint calculation        ...        0 min, 24.929 sec ( 79.382%)
 optimization log               ...        0 min,  0.016 sec (  0.051%)
 hessian update                 ...        0 min,  0.000 sec (  0.000%)

================
 final structure:
================
612
 xtb: 6.5.1 (579679a)
H           -0.87781230638178        0.39756964243186        0.05775766723861
C           -0.38810459407047        1.17451815724968       -0.52514814223571
H           -0.41440441392142        0.89917173948182       -1.57644436523484
C            1.05956312469569        1.31781023648465       -0.08087348138741
H            1.46095388974399        2.24164308111312       -0.48906167374365
H            1.63083925002748        0.48460765826164       -0.47107374443981
O           -1.10547214942791        2.38831779982804       -0.41525385672963
H           -1.16568621825807        2.63697945737766        0.52574323955460
N            1.17381214628847        1.33625947442870        1.38511514577563
H            1.94057249464513        1.98454904405326        1.66712037946115
H            1.41788822412740        0.37655249711302        1.76349810372719
H            0.30190129619939        1.69512610987029        1.81405817199599
O            6.24377937130805        6.72112448299323       -0.98350552870503
H            5.37163047610641        6.76316269100521       -0.53311955299324
H            6.57818158248625        7.61586057872731       -1.02635183411289
O            2.11442568218018        4.11183623245004       -3.19145193782191
H            1.15682599370901        3.96346790132638       -2.97572348432245
H            2.35651696362831        4.97290111437778       -2.81178691584941
O           10.51358803113628        2.45119126963288       -1.90906779904608
H            9.57466638179736        2.14464906169313       -1.88629056662380
H           10.52244862314287        3.16305243633588       -2.55270936802976
O           -3.36307586307236        1.35760932744838        2.34198834022108
H           -3.65445887338155        2.24543617289924        2.05793665098666
H           -3.77550351848588        0.68964232050958        1.76790395075663
O           -2.66726601218460        4.70206510224371       -0.04172824821452
H           -2.85581181654959        4.13025487477447       -0.81958375885080
H           -3.24850325229559        4.39534880108096        0.68286752993334
O           -0.69534454559669       -3.35974910366880       -4.71678230328803
H           -1.30606156849585       -3.62379865854715       -5.42683976030334
H            0.18447727922110       -3.32539658694268       -5.11674452911278
O            3.90249064582103        1.16679358621615        1.06731437110716
H            4.40455837064941        0.86454306876214        1.83408914474985
H            4.21867448103128        2.05132688456270        0.87036915258316
O            7.50640449524050        4.24673751173518       -1.41912176129957
H            7.34092816166990        5.16237324629055       -1.17001408677479
H            8.11500653511993        3.86783370585625       -0.74352138037922
O            2.01731931259787       -0.93710783116011        2.40535093367510
H            2.32995121935487       -0.53895813581005        3.23326174465669
H            2.82935478146908       -1.25078108329841        1.95386915844283
O           -0.30736203097303       -1.44535939317534       -2.68472994737522
H           -0.01818881312803       -2.36436361650187       -2.56465789512141
H            0.47301626984982       -0.89108737840189       -2.53193661769998
O            5.89443565382712        2.55273236690770       -3.18433058952793
H            5.05266775295094        2.25276908255236       -2.79732300120984
H            5.84397956105181        3.51694446175655       -3.18306589361997
O            8.81782861867362        3.70372003594312       -3.89228632095329
H            8.31093399710705        3.88104664362611       -3.08399812763663
H            8.16149584127183        3.44792351652578       -4.57023484671104
O           -1.19320597487594       -0.18652611525363        2.34201941061876
H           -1.71505422187860       -0.97844287912534        2.61012923264246
H           -1.85012175101469        0.53514786094576        2.33468653421045
O           -1.64863114441349        1.85643564984726        4.53189034258767
H           -1.89615505429734        0.95191454009979        4.74042550337918
H           -2.28862450875742        2.44812394202307        4.95981212836529
O           -1.70260237867051        5.40058363676201        3.30301240613318
H           -2.03977860223939        4.57693751798379        2.92820273936449
H           -0.81738588381846        5.52709497793803        2.90188977140614
O            1.93739196511985       -0.63915586625530       -5.27983092560922
H            2.11488876816904       -1.53243283385636       -4.93413015046088
H            2.75686778392604       -0.32298446966670       -5.70140161764077
O           -1.51693425391978       -4.51157725168087        2.57750257859096
H           -1.45140230363834       -4.45364541774761        1.61880330441547
H           -2.07168994272502       -5.29045427728928        2.78055390253468
O            1.11856102671771       -3.63660484678106        2.27257526110688
H            0.82954022217036       -4.56414968624443        2.39122223920287
H            2.09830947124246       -3.65738646406925        2.17347994295843
O            1.48285992798434       -2.06262573553498        7.07089938026164
H            0.69380529753192       -2.22729957500968        7.60750344279097
H            1.20265618648898       -2.24985106460063        6.15459829108618
O           -0.66522394953794        0.33916005506384        6.95593620994318
H           -0.78001115073086       -0.56123112200913        7.30275949978780
H           -0.36406151089372        0.22559465169043        6.02437827203279
O            4.51573610725120        2.43841998279614        3.63705181722496
H            4.09267934563972        1.65652151567101        4.04167860620224
H            5.04033466567983        2.89534247148460        4.31072019962005
O           -0.36431646727296        3.59792477601520       -2.71209197009933
H           -0.60726077303717        3.24144345875220       -1.83996668422168
H           -0.50739443962187        2.90742788385528       -3.37183436652668
O           -4.27080347817232        3.85945409886708        1.95429177041081
H           -4.37190950635019        4.27721351207076        2.83922094591993
H           -5.18749818367625        3.69489132476089        1.66041151517020
O           -3.95932659683954       -1.00299550916222        1.12118398127126
H           -3.36572311676756       -1.29371769407395        0.41214516369072
H           -3.67562727520185       -1.50030890647472        1.90900253192950
O            2.00335631122900       -1.89524118833540       -0.98727604060786
H            2.36686358872308       -2.75402830717187       -0.72732328285213
H            1.21338541451925       -1.78811881118329       -0.42284476616012
O            8.03672943790882        1.46822841996211       -2.11420788304732
H            8.24577232099518        0.80484852265615       -2.80362396853760
H            7.28672133705944        1.98507997760074       -2.49006976829934
O           -3.20221329794273        0.89611477558270       -1.33964707701322
H           -3.78167054430130        1.23202535478236       -0.62782770943697
H           -2.82726650199619        0.03533765340090       -1.07061283126383
O            3.53487694292913        2.24969746762088       -1.84129820541814
H            3.04400658918305        3.02128754566672       -2.17590994916104
H            4.09501046975813        2.59824246607895       -1.12726960095591
O            2.63016069865978        0.35224807139015        7.14702785334007
H            2.06817498793919        1.10109505914148        7.38522828371031
H            2.07099487806404       -0.44940356290749        7.19079215775854
O           -2.66971119032866       -2.23717881799594        3.06343208256764
H           -2.60213461705063       -1.95395285509846        3.99925527946878
H           -2.22562258926718       -3.11127819595798        2.96462818295156
O           -1.93225429985441        1.03103620427558       -7.48016971132554
H           -0.96744418413468        0.89009936489310       -7.51893893882116
H           -2.32144851220534        0.15691280191803       -7.53213960416852
O            3.84381904694512        6.82050986153923        0.27675447240771
H            3.29642260894158        7.51559287980224       -0.10607756750567
H            3.41118013521437        5.96837093932020       -0.03572552727735
O           -0.44571390052773        4.43543350738538       -5.80067182556880
H           -0.92669338927736        4.83312617999685       -5.05077809430267
H           -0.22618042960795        3.53248962398920       -5.51587051035276
O            7.54836905774759       -3.86915269938478       -2.04315940815850
H            7.18025564593738       -2.99235404908764       -1.86952582476233
H            8.21427624209430       -4.02801656185590       -1.35540859419621
O           -1.47516597373461       -4.05999018694233       -0.18320392669342
H           -1.01921477045499       -3.20379744279527       -0.00523242255613
H           -1.61677729905020       -4.10479935952885       -1.15358161192732
O           -9.56463611909583       -3.64921732873418        2.78617807335893
H           -9.11793518173446       -4.04529207171489        2.01005347945547
H          -10.25253093338474       -4.26313066617064        3.04146696337287
O           -8.04583382429973       -4.85540222788360        0.89955784019356
H           -7.99264198603066       -4.88850267268676       -0.06734820117716
H           -7.30859540297919       -4.28106823484626        1.17301657059066
O            0.59681065991003       -2.78366018923837        4.64169188272605
H            0.78168182899687       -2.99699770483305        3.68417117559307
H           -0.32445575390515       -3.05888640062621        4.81747641250136
O            2.64787397761748        4.61897356486717       -0.40054561350468
H            1.69242255993293        4.79852614356722       -0.43891331064183
H            2.78817797777990        4.13200864769930        0.43649054252614
O           -0.73116921018796        7.03826589897459       -2.09422440456132
H           -0.98547390624659        6.41602696335385       -2.80193479889722
H           -1.57619502504561        7.30735096710835       -1.70043097952481
O           -5.59994340616767       -1.38839833189806        3.52996151837118
H           -5.72997364013188       -0.48155210098238        3.17909836431545
H           -6.42332619872696       -1.62089931499441        4.00084719848777
O            8.46793048950076        2.48490593383865        4.41451647155295
H            8.52641407349132        1.56436143144061        4.69645159958672
H            7.92567324468637        2.48275979113616        3.59232216801171
O           -4.49024830906187       -7.10184696715208       -2.96522935255341
H           -4.91492141418447       -7.08847230116124       -2.09543325320031
H           -3.54399800582750       -7.25195147798464       -2.75157696638300
O            5.25899425053804        4.93438500993547        1.93297546727460
H            5.05729897585734        5.75953007072762        1.48469543706899
H            4.76058652641781        4.94879441299631        2.77336044517979
O            4.41711165343455       -0.06560153953717       -3.70485983682320
H            4.28408038687537       -0.11358907109704       -2.73639708630994
H            4.01517137934244        0.77313553952682       -4.00972712400022
O           -0.83373642546091       -6.29006823303008        4.79955340021406
H           -1.66054990652028       -6.67210666974209        4.48011297424256
H           -0.26583789303406       -6.25274934262288        4.00807100284865
O           -1.71135649187294       -3.81726096581984        5.52229579218984
H           -2.66861307806353       -3.72684010717004        5.37023956052852
H           -1.46515379458926       -4.74002008738840        5.31127205712570
O            4.58457978599844       -3.08934710773573       -2.36904201199689
H            5.17553356187759       -2.31798981055326       -2.40401577279262
H            4.70967063396556       -3.46022666128713       -1.47001166245677
O            2.20629078281635        5.07929322220962       -5.75909818846106
H            2.21910355159044        4.73311396746060       -4.84552054303218
H            1.26128591072595        5.08931506622320       -5.98851116863082
O            5.39857758850483        3.15258931530203       -0.12183087955095
H            6.10260806525153        3.48013161862855       -0.71868858629586
H            5.29736953211499        3.83301285386012        0.56392762650848
O            0.67529753815542        0.26126941808035       -7.58132609993084
H            1.20546117841196        1.02962298259595       -7.82074541327237
H            1.06864333758027       -0.07555507336265       -6.75229275782840
O           -2.44970595123313       -1.59584651313678       -1.07386113528161
H           -3.16873803545758       -1.98939423256974       -1.60381872823864
H           -1.66067247056913       -1.55163784700460       -1.64713071146941
O           -0.70640018500771       -2.00627591995572       -7.38330359557793
H           -0.31356883541568       -1.26998326965662       -7.87044806994107
H            0.05474651937691       -2.57175721880908       -7.15342869713307
O            4.07808579109665        5.24736273528021        4.37075905950613
H            3.51617141254203        4.62112108305900        4.86349427286350
H            4.94829976890716        5.15023938793806        4.78168767386364
O           -2.68999497739680        3.68817729418763       -7.16886931173375
H           -2.47834523541278        2.75447079062490       -7.32836270646653
H           -1.85296583828926        4.07501130779116       -6.85043855045846
O            4.13939520524170       -0.42906454321162       -1.07943063542400
H            3.30795143206647       -0.95365638255274       -1.11594728373340
H            3.97776167253886        0.31845975519806       -0.47767512312299
O           -3.18908000520515        1.31116707276702        7.34818759075974
H           -3.64673691983986        1.22607774955648        6.49408902127297
H           -2.26139044983160        1.03496170966318        7.19587558852822
O            5.19318242915348        1.98416478466187        6.94542386529802
H            4.97028396000761        1.51485210438065        7.75009204843884
H            5.58916564472540        1.31655780473223        6.34217568110503
O            1.57623575448115        0.58176089000973       -2.95431686870032
H            1.89091711438062        0.08854536561828       -3.74421375676126
H            2.33787447439427        1.03212990338225       -2.56490004903267
O           -2.51455137892414       -3.91361638873706       -6.70540460888358
H           -1.98102067541106       -3.34070328033399       -7.27529900355612
H           -3.35360513509463       -3.44019059022732       -6.58141610445251
O           -1.07028354726602       -0.39394894611624       -5.10228717463448
H           -0.71331703012892       -0.81733434470970       -4.29973251234117
H           -0.92720940532367       -1.00633737127907       -5.84383827625017
O            0.34522722989899       -6.21301212446772       -3.82632947311788
H            1.13447655142642       -6.04633834152545       -4.36114279757532
H           -0.43084134509388       -6.15788153044551       -4.41570607513787
O            8.98074512797111       -5.18567322862504        2.50640257513892
H            8.10748734614231       -5.47877024803234        2.80439485756895
H            9.15623087105456       -4.35391713131674        2.97089723708068
O            1.36402119748185       -7.33574931202085       -1.51194138524801
H            0.88529487979391       -7.18478409418153       -2.33877843003944
H            2.23492721318356       -6.92648574127937       -1.67932200590167
O           -6.21254480329658        1.04003905316070        2.59076703589133
H           -5.77642515426578        1.42193271495356        1.80802319334104
H           -7.13225515722713        0.88112390423290        2.29917481752254
O           10.53724587869032        2.88987568554061        2.61774615177161
H            9.94336286639683        3.05557680847947        1.85352351811868
H            9.96855246295755        2.99459734467502        3.39811563941104
O           10.24688913112896        1.68212525306281       -4.99974831956897
H           10.13293225973121        1.87163641056078       -5.93169287262098
H            9.81427035810744        2.42971161235910       -4.53368135099265
O           11.92653614351851        1.75421728898978        0.37652983266414
H           11.76241608036788        2.34184391265210        1.12226548567043
H           11.57854325195552        2.20085665689308       -0.41348775497887
O           -4.66899476751607       -0.17077089256230       -3.18247148320660
H           -4.21610570322977        0.22087832501803       -2.39311296844324
H           -4.12436600431451       -0.96133787137972       -3.38760705264999
O            4.89340655027560        4.25411074255209       -5.68968410370782
H            5.13119368485886        4.70403331685206       -4.86170611458019
H            4.10347766456201        4.70499166256071       -6.01465424796555
O            0.33950649967586       -0.08733947382250        4.51816401591928
H            0.60071297127489       -1.02246412658097        4.55834951614613
H           -0.23472183500842       -0.04158027402389        3.72458142428101
O           -8.34996482579567       -1.92713363258597        0.70542575788656
H           -7.52520757871352       -2.24758878629159        1.10474499775443
H           -8.46828033992145       -1.00503952453298        1.00232085238398
O           -7.08133190454649        0.95530591009906       -5.41846568895526
H           -6.24125647258674        0.72625698764817       -5.85996094725316
H           -7.04281335386381        0.59646607856961       -4.51028052324686
O            3.04112427348268       -6.83046827773001        1.17171739533918
H            4.01657830935365       -6.71019181803938        1.04044901240851
H            2.73607428095202       -7.39875540391237        0.46123297838093
O            5.26392602312040       -3.82796254824891        0.08325542493916
H            4.61717512862698       -3.62402847316403        0.78883819952736
H            6.02037340940932       -3.23668643837533        0.25016640554426
O           -6.78261930134704        3.05698987110184        4.37333263550488
H           -6.51914440677290        2.51405789784147        3.60288023027823
H           -7.74195216838666        3.20252284908609        4.25394634123421
O            2.76764125856138        3.45167629468974        1.96871659881062
H            3.41144805322017        3.15859067231016        2.65098696838091
H            2.07914422582375        3.98145001324828        2.40512744257145
O           -7.75055634793702        6.10697807359134        1.71159753456780
H           -6.91113201658591        6.43024319999827        1.33198978373246
H           -7.82877397859730        6.48134174891882        2.58883206898903
O            0.00476525958855        5.19102971919703       -0.24165920998624
H           -0.89063096634902        4.83372358646490       -0.10689391399240
H           -0.12513372109118        5.92552817945414       -0.87040934171086
O            0.75162920492187        5.17267206055383        2.33485428727055
H            1.33570829402163        5.92451739304054        2.57532448660626
H            0.51889548291537        5.31961194860876        1.39240470521817
O            3.71914625829989       -6.05520825554133        4.03374655326131
H            2.95570042806259       -5.77677399771512        4.58867900512153
H            3.44979797898247       -6.84206222200795        3.55650042376671
O            6.79690077887217       -2.73801378030637        3.21269949708287
H            7.68767128248103       -2.60515652878592        3.55143937306492
H            6.84241004458621       -2.44652689271093        2.27125637037098
O           -3.09117860551714       -2.13016406512344       -3.93483932200607
H           -2.13966011783203       -2.19312444848873       -4.07357165550446
H           -3.51839428482266       -2.24521343526825       -4.80104555155477
O           -8.55462430903705        0.64885107324901        1.40263536344180
H           -8.22019948826567        0.99569014931632        0.55761984322593
H           -9.31520261603120        1.22824643271825        1.59922135218220
O            3.80203230870626        0.45790663636887       -6.93256591228754
H            3.32194428103199        1.30662120337272       -6.95998153533152
H            4.69710583946160        0.62791510940828       -6.61450367027906
O           -4.24713592146919        3.82716107207480       -5.06594453803896
H           -3.75424849058972        3.91142907084684       -5.92004791153146
H           -3.86707476237293        3.01385056045713       -4.68897092872304
O            4.39361166614460       -2.23523805394955        4.32632653758375
H            4.24126628583333       -2.73752361057196        5.14905594773712
H            5.32993437428536       -2.31945411223434        4.07682681925120
O            3.71854974125138       -3.49991450802706        6.62573365788501
H            2.92067656753780       -3.00912384864819        6.90932156773756
H            3.39376520749792       -4.38123847791369        6.41323700635454
O           -1.99276964149379       -6.18961890453400       -5.21848295058567
H           -2.82376083938815       -6.45506562200468       -4.81836000586611
H           -2.20883475744999       -5.48341751230571       -5.84648762996856
O            3.43509346357484        2.18824217948670       -4.68973368155091
H            2.87205286402736        2.76477925486800       -4.16017351990573
H            4.09793398827812        2.77713513349495       -5.08982734819077
O            6.16513039860097       -6.20011066817446       -1.96891507212616
H            6.64270566773281       -5.34633250817271       -1.96354403912499
H            6.19359917398763       -6.52582613295025       -1.06109133612791
O            3.32442885111848        0.21623331559325        4.54184181586933
H            3.03313701697396        0.32517218090064        5.46519565187634
H            3.81141855734208       -0.62905081104223        4.50124236211927
O           -0.07689211551246       -1.97630047689793        0.63235629836611
H            0.41514522882727       -2.55488369211413        1.25680214690181
H           -0.43041929254946       -1.26366417420910        1.18642314907881
O            5.89561408965351        0.17222176404577        2.79461560063705
H            5.84994036599997        0.11616569641935        3.76470235545807
H            6.83476133540467       -0.02583432087955        2.58068001818999
O           12.05422767017927       -0.93707630161409       -0.19671926872435
H           11.91233466956396       -0.89111592207410       -1.15243698953948
H           12.32877053631026       -0.04464736001912        0.05496917470726
O           -6.14342602450015       -1.74614240122356        6.63310840560573
H           -6.87686867504865       -2.19996798847623        6.19952346718356
H           -6.27914535042062       -0.80950707701964        6.41137083679195
O           -3.66471935851654       -1.32812779016178        7.85602154193384
H           -4.58930736997024       -1.54369911393415        7.68489888749683
H           -3.61847966541523       -0.35567676965880        7.93940172129168
O           -9.14781802699080       -0.64095479853151       -6.01691483649258
H           -9.42064237929746       -0.50474476633615       -6.92303090664222
H           -8.34499059393702       -0.08848215823321       -5.87024848184554
O           -4.09341493050424       -4.08395651694677        0.24368834739577
H           -4.36525573358694       -5.00439429259766        0.05252858478031
H           -3.11753826598846       -4.04158235512466        0.16457032756272
O           -2.95922273738387        3.71849410633708        6.04127142365306
H           -3.10769370984666        3.13368528265622        6.79980229089905
H           -2.03393629792463        4.02525477781044        6.07581112572642
O          -10.42415708034896        2.57304711622351        1.45389169360569
H          -10.08816719871099        3.35425338097628        0.95777675335632
H          -11.19538880379918        2.28102632725654        0.96562914888370
O           -4.85352581974482       -2.63053507747960       -1.84835530199395
H           -4.80527461513353       -3.21849983036700       -2.62025660228432
H           -4.68504275962711       -3.19162416070443       -1.06757735307089
O           -5.15529018265397        1.84164895720408        0.16299638876076
H           -5.37534727497918        2.66093527531306       -0.30651585352017
H           -5.69549447131428        1.12706107328231       -0.23015314107925
O           -4.29432012153558        0.95669323798724        4.83018690122589
H           -5.24634496840737        0.80499481523559        4.89184357274339
H           -4.07478725827244        1.18443326688031        3.90120985168159
O            6.35289026349430       -5.41015545283549        3.26451109425046
H            5.57591952115795       -5.66688341521902        3.77559799898446
H            6.37781420713269       -4.43007376016256        3.24994896687553
O            6.61353621396973        0.49209425799135       -0.11624054824627
H            7.30155483970055        0.84772726705756       -0.71720021642321
H            6.03932594216330        1.24038259543942        0.08087421672201
O           -6.60281361513679       -7.00843156657504        1.69894709909220
H           -6.19396461177044       -6.61052645544556        2.48024386294949
H           -7.32903973011678       -6.40442664260905        1.45806040225786
O            2.61896758806649        7.00397305473101        2.82753660591486
H            3.11895752631752        7.00151379458105        1.99557408704158
H            3.15857822770909        6.53911844531693        3.48558799164047
O           -2.11494839079128       -4.48559738475036       -2.71531639951497
H           -2.98653661238623       -4.30331418417908       -3.09662203150067
H           -1.47377629031713       -4.13641682894867       -3.36147013952366
O           -7.61027147227259        0.24788631913671       -2.83194804339775
H           -8.55680328114752        0.20252997382631       -3.09920068588671
H           -7.43147906938363       -0.61440183921975       -2.42237333314865
O           -9.51279233504547        0.08918123403144        4.66312056743258
H           -9.98971023840454       -0.29446408038792        3.87063485511913
H          -10.14590178465830        0.07222954566002        5.38178894085432
O           -7.96054355067275       -2.23433756607169        4.55397794149113
H           -8.51814603441432       -1.44295320872899        4.61799240804302
H           -8.43145641555019       -2.83670698518972        3.95499534956388
O           -5.33936803310392       -5.19608857985523        3.38657775089913
H           -5.62209372514799       -4.51260757199032        2.74942780149982
H           -5.05806395484163       -4.69418650433184        4.17147756961010
O           -4.65879011402620       -4.57100527566619       -3.77488020309784
H           -5.50743346449993       -4.47498983920923       -4.22732088813698
H           -4.62579480774124       -5.51499027810272       -3.50003203074805
O            8.51436356343902       -0.17282430601055       -4.16674573204631
H            9.20956739049915        0.40166817708212       -4.54556268579027
H            7.72858907009320       -0.06435339843961       -4.74423525600410
O            0.56094700479268       -4.03977724490603       -2.20419852876272
H            0.45169600151372       -4.85185138325972       -2.73188082762561
H            1.10732423189993       -4.25876801927699       -1.42785095390339
O           -4.40665178035063       -3.31673233236758        5.12810228631281
H           -4.48995624945331       -2.64576144351887        4.42819566203704
H           -4.91320658855484       -2.94613315630378        5.86602415187039
O            9.97537564206530       -2.23761217675253        0.99232061443116
H           10.71431773660094       -1.75855294275514        0.56998095220878
H            9.89178479803403       -3.07589408044168        0.50673504597666
O           -2.74203222364235       -7.75125246794923        0.55178093100747
H           -2.65386237589561       -8.62005001971632        0.16180212774149
H           -1.89427017844674       -7.28059886514384        0.35226056449173
O           -4.53358279753484       -2.13035092036468       -6.23852233498568
H           -4.54899775886765       -1.20833001111158       -6.54304188636395
H           -5.35268766270221       -2.22331874871047       -5.71415466216881
O            0.23820130496835        7.70397197253819        1.36686392040776
H            0.64136878489426        8.12067242183165        2.12941472928020
H           -0.67677227550567        8.04554178839135        1.28332737560731
O            4.39461624408088       -1.59851453532271        1.38606085822638
H            4.97600246891253       -1.05426231243773        1.94056255728869
H            4.46996235783590       -1.25016352227101        0.48399443045958
O           -0.91320841714672        2.88775493800431        2.24887378553477
H           -0.21954314018714        3.51045631315951        2.50116650897710
H           -1.22723875886148        2.47017186082319        3.08459821607406
O            2.00705817468451        2.54610738435088       -6.98420762510806
H            1.47940215169173        2.30696258696013       -6.19889643600715
H            2.24047121770840        3.47449033168142       -6.85294053003872
O           -4.84091601858191        5.68572979846114       -3.21976961394285
H           -5.69544500627273        6.01701571070892       -3.49725090925670
H           -4.61196268781644        4.96242067231619       -3.84802119565074
O           -8.03857870610027        1.97607453014854       -0.87619222243379
H           -8.03979827008868        2.84206791432313       -1.33391202218940
H           -7.71518679561113        1.33395229546618       -1.54808512433277
O            9.45919224859081        0.52093847666113        0.06604661904999
H            9.37186347662615       -0.23259019798515       -0.56838390731782
H           10.40540201797866        0.67686803257668        0.19291652004052
O           -5.28736843025739        6.64301496488252        0.76475666709736
H           -4.76775269748538        7.09177379499912        0.08099193271770
H           -4.73998678644949        6.69222975814532        1.58540943915501
O            7.21468936540462       -2.04347575914270        0.66328868558847
H            6.96761633606874       -1.11907740260796        0.48194195378417
H            8.18634699563381       -2.06031697019236        0.65825628558661
O            0.79311744599268       -6.27328980274499        2.57560661579821
H            0.20503226998631       -6.42445211458811        1.80437374371557
H            1.67052510167763       -6.52950617550305        2.25252351757674
O            9.03209749982331       -0.33136972980961        5.21978301330359
H            9.91464401426907        0.04804879377191        5.18610059470219
H            9.07924612628566       -1.11911203345127        4.65172548410460
O           -1.92445785701913       -7.11705227251322       -2.23289005362046
H           -1.91457150558978       -6.14211123612312       -2.35886026286917
H           -1.29495048206489       -7.46867425788525       -2.86274855639031
O            6.53828397503886       -1.20610679995368       -2.25494833382699
H            6.23357838861068       -0.70353210027618       -3.01827934384403
H            6.29968486696333       -0.67157784532406       -1.47108504389393
O           -6.92340987848536        0.71259005685774        5.63107819637268
H           -7.78911783278070        0.46183606723408        5.28720997525484
H           -6.85672587397003        1.67211214166720        5.44512115883686
O            9.31013765699584       -4.65704156482772       -0.06099870061440
H            9.92479469073622       -5.30072638747846       -0.41140751668958
H            9.10570024976990       -4.93674701217927        0.86553245642642
O            8.52581160088610       -2.92512794298061       -4.53564632857367
H            8.26241042521397       -3.34200516233751       -3.70029979644386
H            8.67621558009774       -1.98690363797570       -4.33701137243454
O            3.00748036722814        3.25825000044892        5.92842701229640
H            3.77751588010059        2.78726609422888        6.29640294147147
H            2.30254433614347        3.18050340706118        6.58880686480245
O            9.58255443852717       -2.59447366177253        3.58181279001460
H            9.70769267210455       -2.32543256635825        2.63356415546153
H           10.46200337192089       -2.72321976137711        3.93787653025033
O           -3.05602274155147       -6.63279725650266        3.08067307612091
H           -3.06274519197777       -7.15422651552698        2.26432903858416
H           -3.93204387330491       -6.20932135474426        3.16704514774676
O          -10.76517299723274       -1.14557171238781        2.79363910996694
H          -10.34159692331902       -2.00364639043998        2.62150093961569
H          -11.06332307700464       -0.79452261710688        1.93961904457251
O           -6.07400186705261       -0.56387883631899       -0.43587474136615
H           -5.46846218196146       -0.77636654574215        0.29417745406749
H           -5.77007561363241       -1.13689566030862       -1.15507757587807
O          -10.19650110486846       -2.59546219380982       -2.66118743320963
H          -10.63804045127256       -2.83059151582879       -1.81900861010942
H           -9.24548604921431       -2.54251621220142       -2.40782829872351
O            2.85995190596153        6.65834234281703       -2.78722195712432
H            2.41839946554055        7.14435494254727       -2.05842178658852
H            2.57355096555112        7.06104394281205       -3.60815112057001
O            1.41780532135599       -3.44874863790181       -6.53155902708640
H            1.69347462649667       -4.36672359497091       -6.46015923198974
H            2.22951535923699       -2.95773753546501       -6.78650890681476
O           -9.20337321082988       -3.30181240506226       -5.10423136085856
H           -9.75564272212152       -3.16879246529943       -4.31635300353596
H           -9.04487473375950       -2.41682053084281       -5.46906217891893
O           -9.42123245748301        2.83886341502993        4.02229203979072
H           -9.83195478119063        2.91687172370243        3.14981303719518
H           -9.46684008732726        1.89782302305803        4.24848200377969
O           -4.96781086900507       -6.53907988894376       -0.30861702237251
H           -4.13815183226769       -7.00682524197334       -0.07599668943627
H           -5.60592715233647       -6.79371529402381        0.40566143565535
O           11.01713947170491        0.30709618486275        3.23664088720221
H           11.62642181659454       -0.05333859597899        2.59059502715501
H           10.94089147611898        1.26432025879944        3.02725378611408
O           -2.01648384981246        5.40468758950874       -3.81477097892786
H           -2.81772997531278        5.76216049953939       -4.20031725874562
H           -2.27703566460310        4.62368396362069       -3.28371502452742
O          -10.67071072509273        1.38914500654831       -1.25039310831204
H           -9.75007065080002        1.64983196078431       -1.04320416583584
H          -10.63950088482703        0.98916260218992       -2.13184801978317
O           -6.50550082951320       -1.85422422342326       -4.47224658936226
H           -7.03860693261163       -2.38989196390279       -3.88149927008215
H           -5.97248396201682       -1.27483078695085       -3.90699039654696
O           -3.81377868125493        6.94709124534698        2.93616469113725
H           -4.36788832125392        6.53728437796960        3.61562971224467
H           -2.96848480307797        6.45097561397926        3.02524799597977
O            3.54106845926353       -5.97085313738543       -2.26599480496858
H            3.31878728193996       -5.78735165857225       -3.19533166323538
H            4.51589059361990       -6.09426253013564       -2.21421525067086
O            1.53440649698411        8.02909880546530       -0.92470243583613
H            1.15254195386530        7.89665422225555       -0.02577873399221
H            0.74990394493472        7.97580492344245       -1.48992618593719
O           -0.44496688292527       -6.47681347199715        0.25469804354107
H            0.20413382686497       -6.81358718396773       -0.39891438304184
H           -0.70609596640538       -5.57523393378927       -0.02274761631859
O          -11.76522148171587       -0.32997060810793        0.37172172173515
H          -12.70482483817473       -0.18493620762415        0.26993315026353
H          -11.30868667813876        0.30369849216688       -0.24604828469728
O            1.70174648674561       -5.12783266064003        5.51908900863604
H            0.93517308057825       -5.70595683497529        5.58567148361166
H            1.35490660722378       -4.27388350048991        5.18454067233109
O            5.60592237542671       -6.33136394121597        0.80500457487676
H            5.48835974388599       -5.40901037687860        0.47026923298543
H            5.98771507995883       -6.20481644819984        1.69032914942303
O            2.35950051906134       -2.89150290729152       -3.83066561388173
H            3.16936890665197       -2.78113507806673       -3.29810287939980
H            1.67087862321582       -3.16672364412544       -3.19140669917015
O            6.24402962983927       -0.00421606519018       -5.56980397443520
H            6.24552420918219       -0.93647256657480       -5.87261575293632
H            5.57043866677690        0.00869037216005       -4.85219439584296
O           -9.56353584634278        4.70441071011821        0.11283120231972
H           -9.06042920226948        5.33488896514512        0.64464530491199
H           -9.14056474470686        4.67381541593585       -0.75592029227694
O           -7.89106949122747        4.35797629729399       -2.08867652628117
H           -7.01135073747984        4.44296344990923       -1.65026811328581
H           -7.73011662199901        4.19832485034562       -3.02760615918053
O            6.87535238874622        2.65355036086169        2.30304388482056
H            6.31674767463796        1.86176069856774        2.45460861543114
H            6.30486288438062        3.43011299016016        2.36053856043116
O            6.28191203755665        0.02858835552698        5.45674464245431
H            5.87802365699045       -0.56617174061848        6.12730663808603
H            7.23900267212170       -0.10354248088618        5.50141777153054
O           -6.94440492146850       -4.89641746210216       -1.62348547355458
H           -7.08878847890056       -5.06957704273730       -2.57091088514926
H           -6.19719559233212       -5.43511941076738       -1.33706040321865
O           -0.35420347604025        4.27661862360894        5.52889207361956
H           -0.70902747922842        4.91998767580964        4.90094109683682
H            0.09706041924613        3.60030470667340        4.97470791328440
O           -6.90761139191278        3.55705031303173       -4.67027677427829
H           -7.17643166399298        2.70690144288999       -5.06779165640424
H           -6.02619020853380        3.74642716887899       -5.04504395923653
O           -6.95564951166251        3.47584675012828        1.50013520835428
H           -7.35082410258737        4.34695982710983        1.64560300296901
H           -7.38156085457682        3.09675491045865        0.72454611690173
O          -10.81812231090276       -2.88662876891790       -0.08064520606648
H           -9.92100975750372       -2.72065812460388        0.25252439485336
H          -11.29372225080214       -2.05627722037680        0.07560227174020
O            2.43808792651973       -4.52523608250649       -0.34621616130590
H            2.56360707609629       -5.09082863805043        0.42720429643997
H            2.96858215581199       -4.94337254106865       -1.05372348938427
O            5.23413983492581        5.28348007968238       -3.16613040436988
H            4.36781565723580        5.69320388107102       -3.02527542081140
H            5.82012013812743        5.72456806747818       -2.53716606362055
O            5.33562119894425       -4.66453455686569       -4.37629335480616
H            5.08560462242861       -4.11155163230108       -3.59702451490759
H            6.04823587537541       -5.23354239919346       -4.08074781029740
O          -10.15759256615098       -0.08978672128402       -3.51705281768216
H          -10.03551999909348       -0.18521746232489       -4.47423230354926
H          -10.31087275333068       -1.00688067424267       -3.18573476023764
O            7.22408497272606        2.68302950490990       -5.85113058389758
H            6.45114818873698        3.25405797283834       -5.94622598405634
H            6.88078171010214        1.78775957580991       -5.73412131535808
O            0.80353429125008        2.55760885932960        7.44563879970660
H            0.19859209525892        1.79552045285697        7.36790026550437
H            0.33421202513259        3.28847544693376        7.02280108364269
O            8.44727365522968       -0.16413203414410        2.39176609873240
H            9.27104521101281       -0.02176887228007        2.87902494193004
H            8.67539940604997        0.07977097191856        1.47234241624674
O            3.70179514377678       -3.96894030755765        2.33062742500361
H            3.76634031075956       -4.77517599216264        2.87350530559742
H            3.94001605082897       -3.22042197525761        2.90899232254803
O           -5.64239073744223        2.39447812865084       -2.59438279393098
H           -5.68526134303271        1.44693855004772       -2.75803152430105
H           -6.15031878671995        2.81918083147689       -3.30673046261387
O            8.79986850175450        3.04676391348168        0.54787694375238
H            8.99917748666596        2.15110958207104        0.20623231939827
H            8.03265424738332        2.91670540019865        1.14335217278950
O           -3.32517182601362        6.98608598254691       -1.12696468476197
H           -3.04507306746402        6.13512558356374       -0.68578504676238
H           -3.76545867876010        6.71476983363688       -1.94262666922594
O           -4.80685356483780        4.85350516575240        4.36413725780964
H           -4.15777407485265        4.52633637633352        5.00919608685553
H           -5.59635518383529        4.28569682386914        4.47423899168649
O           -5.55336522611127        4.48454257393355       -0.83036438672975
H           -5.49739459236677        5.17251240512102       -0.14098461445848
H           -5.07986949779028        4.82135623745767       -1.60714570546994
O            0.25583133299166        1.93112939451791       -4.85678693506904
H           -0.26094479761540        1.16051610403376       -5.16000664994208
H            0.82651291312502        1.55971220259123       -4.15080172410809
O            1.15840685014021        2.51896719231526        4.08744467284938
H            1.94142428022183        2.70355460488726        4.62911679967086
H            0.88856292330782        1.61456204880559        4.30964703555908
O           -2.31443124502666        8.48292285792264        1.09367120063922
H           -2.68167438544798        8.11511963081025        0.28131943826392
H           -2.86824445556655        8.16441483905588        1.81855590257929
O           -4.70213995528391        0.59164813219459       -6.70034015083486
H           -4.55589326826824        1.11705174065989       -7.48689894802309
H           -4.06751030615171        0.94544198767143       -6.01769195880287
O           11.29751943893495       -0.00627730818127       -2.78107406439709
H           11.08555269771442        0.89420527455025       -2.45582399494400
H           11.40866200174531        0.09397241850280       -3.72812262102699
O            3.71170840978746       -2.27557370252971       -7.23023872363827
H            3.69806934227176       -1.31371356322343       -7.34160026497875
H            4.60148099296508       -2.49438709066961       -6.92823148720544
O           -3.16187835711790        1.34256185032334       -4.71981656116739
H           -3.72706874792581        0.82430831966178       -4.10194015802930
H           -2.37569314446951        0.79494090341343       -4.88660524800458
O           -3.16076856872838        3.36666575806409       -2.30415735335205
H           -4.09944970488310        3.10802574530721       -2.42110518895350
H           -2.74309851920520        2.53599124317052       -2.02630234660992
O            6.26279245879390        3.87694525697768        5.30944106874483
H            7.14484759765976        3.53580726761054        5.07939534050105
H            6.02301817027064        3.45096194779333        6.14177428534333
O            9.23794095989362       -1.43311704757187       -1.66491609456206
H            8.37702247587362       -1.30386029940442       -2.09243994208301
H            9.91561919314467       -1.09889970382288       -2.27283587349792
O           -6.06892753185713       -3.15008531281556        1.68954120600890
H           -5.28565700976893       -3.32214787860859        1.13100892356077
H           -5.80680658373210       -2.44762999873932        2.33907352212433
O           -7.31043830268995       -4.94847836090289       -4.33670169901667
H           -7.50161566023132       -5.77583011170800       -4.77716142663705
H           -7.99303997259498       -4.30523050909707       -4.65887521938401
O           -7.70357621893201       -2.31175855648368       -1.83948464581684
H           -7.25010995391958       -3.16901528676328       -1.76299361848921
H           -7.91585674193076       -2.05873711505928       -0.91079582727667
O            2.74905225721084       -5.29008904067975       -4.84608620389770
H            2.57889923620478       -4.35693134192525       -4.55079513065733
H            3.69057649193394       -5.28984316037639       -5.06996816467738
O           -2.59957018833764       -0.97157090727461        5.33549576968671
H           -2.83893137307107       -1.30195753855638        6.21607854099670
H           -3.32805278379847       -0.36306724028855        5.08925381031874
O            6.25539786832109       -2.66389058700406       -5.95427383602934
H            5.79506374687497       -3.36061005838334       -5.44913327765801
H            7.18380135808857       -2.77624962328462       -5.66079546914883
O            4.97536308560785       -1.14093453279989        7.42320214838137
H            4.14654038039951       -0.63665667858300        7.43664415663138
H            4.72680569036323       -2.06872854391493        7.33792901827228
O           -1.11090050971897       -2.31733521804189        7.72332967163838
H           -1.31119577493336       -2.89917747267159        6.96305228162230
H           -1.96711475964526       -2.12602157780430        8.12716548710405
 
 Bond Distances (Angstroems)
 ---------------------------
H1-C2=1.0878         C2-H1=1.0878         C2-H3=1.0871         C2-C4=1.5211         C2-O7=1.4142         H3-C2=1.0871         
C4-C2=1.5211         C4-H5=1.0868         C4-H6=1.0830         C4-N9=1.4705         H5-C4=1.0868         H6-C4=1.0830         
O7-C2=1.4142         O7-H8=0.9752         H8-O7=0.9752         N9-C4=1.4705         N9-H10=1.0429        N9-H11=1.0601        
N9-H12=1.0359        H10-N9=1.0429        H11-N9=1.0601        H12-N9=1.0359        O13-H14=0.9825       O13-H15=0.9561       
H14-O13=0.9825       H15-O13=0.9561       O16-H17=0.9927       O16-H18=0.9717       H17-O16=0.9927       H18-O16=0.9717       
O19-H20=0.9880       O19-H21=0.9597       H20-O19=0.9880       H21-O19=0.9597       O22-H23=0.9766       O22-H24=0.9725       
H23-O22=0.9766       H24-O22=0.9725       O25-H26=0.9837       O25-H27=0.9782       H26-O25=0.9837       H27-O25=0.9782       
O28-H29=0.9731       O28-H30=0.9671       H29-O28=0.9731       H30-O28=0.9671       O31-H32=0.9651       O31-H33=0.9598       
H32-O31=0.9651       H33-O31=0.9598       O34-H35=0.9632       O34-H36=0.9851       H35-O34=0.9632       H36-O34=0.9851       
O37-H38=0.9704       O37-H39=0.9806       H38-O37=0.9704       H39-O37=0.9806       O40-H41=0.9709       O40-H42=0.9693       
H41-O40=0.9709       H42-O40=0.9693       O43-H44=0.9738       O43-H45=0.9655       H44-O43=0.9738       H45-O43=0.9655       
O46-H47=0.9704       O46-H48=0.9777       H47-O46=0.9704       H48-O46=0.9777       O49-H50=0.9856       O49-H51=0.9759       
H50-O49=0.9856       H51-O49=0.9759       O52-H53=0.9607       O52-H54=0.9710       H53-O52=0.9607       H54-O52=0.9710       
O55-H56=0.9657       O55-H57=0.9801       H56-O55=0.9657       H57-O55=0.9801       O58-H59=0.9741       O58-H60=0.9743       
H59-O58=0.9741       H60-O58=0.9743       O61-H62=0.9627       O61-H63=0.9776       H62-O61=0.9627       H63-O61=0.9776       
O64-H65=0.9787       O64-H66=0.9850       H65-O64=0.9787       H66-O64=0.9850       O67-H68=0.9683       O67-H69=0.9763       
H68-O67=0.9683       H69-O67=0.9763       O70-H71=0.9717       O70-H72=0.9856       H71-O70=0.9717       H72-O70=0.9856       
O73-H74=0.9768       O73-H75=0.9684       H74-O73=0.9768       H75-O73=0.9684       O76-H77=0.9730       O76-H78=0.9657       
H77-O76=0.9730       H78-O76=0.9657       O79-H80=0.9838       O79-H81=0.9766       H80-O79=0.9838       H81-O79=0.9766       
O82-H83=0.9693       O82-H84=0.9739       H83-O82=0.9693       H84-O82=0.9739       O85-H86=0.9681       O85-H87=0.9768       
H86-O85=0.9681       H87-O85=0.9768       O88-H89=0.9793       O88-H90=0.9854       H89-O88=0.9793       H90-O88=0.9854       
O91-H92=0.9774       O91-H93=0.9767       H92-O91=0.9774       H93-O91=0.9767       O94-H95=0.9738       O94-H96=0.9721       
H95-O94=0.9738       H96-O94=0.9721       O97-H98=0.9661       O97-H99=0.9784       H98-O97=0.9661       H99-O97=0.9784       
O100-H101=0.9801     O100-H102=0.9854     H101-O100=0.9801     H102-O100=0.9854     O103-H104=0.9758     O103-H105=0.9583     
H104-O103=0.9758     H105-O103=0.9583     O106-H107=0.9640     O106-H108=1.0055     H107-O106=0.9640     H108-O106=1.0055     
O109-H110=0.9756     O109-H111=0.9719     H110-O109=0.9756     H111-O109=0.9719     O112-H113=0.9667     O112-H114=0.9704     
H113-O112=0.9667     H114-O112=0.9704     O115-H116=0.9862     O115-H117=0.9817     H116-O115=0.9862     H117-O115=0.9817     
O118-H119=0.9792     O118-H120=0.9567     H119-O118=0.9792     H120-O118=0.9567     O121-H122=0.9689     O121-H123=0.9737     
H122-O121=0.9689     H123-O121=0.9737     O124-H125=0.9983     O124-H126=0.9774     H125-O124=0.9983     H126-O124=0.9774     
O127-H128=0.9729     O127-H129=0.9785     H128-O127=0.9729     H129-O127=0.9785     O130-H131=0.9761     O130-H132=0.9703     
H131-O130=0.9761     H132-O130=0.9703     O133-H134=0.9810     O133-H135=0.9766     H134-O133=0.9810     H135-O133=0.9766     
O136-H137=0.9645     O136-H138=0.9849     H137-O136=0.9645     H138-O136=0.9849     O139-H140=0.9680     O139-H141=0.9816     
H140-O139=0.9680     H141-O139=0.9816     O142-H143=0.9605     O142-H144=0.9772     H143-O142=0.9605     H144-O142=0.9772     
O145-H146=0.9787     O145-H147=0.9788     H146-O145=0.9787     H147-O145=0.9788     O148-H149=0.9652     O148-H150=0.9749     
H149-O148=0.9652     H150-O148=0.9749     O151-H152=0.9735     O151-H153=0.9781     H152-O151=0.9735     H153-O151=0.9781     
O154-H155=0.9723     O154-H156=0.9805     H155-O154=0.9723     H156-O154=0.9805     O157-H158=0.9771     O157-H159=0.9725     
H158-O157=0.9771     H159-O157=0.9725     O160-H161=0.9794     O160-H162=0.9713     H161-O160=0.9794     H162-O160=0.9713     
O163-H164=0.9637     O163-H165=0.9775     H164-O163=0.9637     H165-O163=0.9775     O166-H167=0.9761     O166-H168=0.9763     
H167-O166=0.9761     H168-O166=0.9763     O169-H170=0.9663     O169-H171=0.9757     H170-O169=0.9663     H171-O169=0.9757     
O172-H173=0.9750     O172-H174=0.9672     H173-O172=0.9750     H174-O172=0.9672     O175-H176=0.9706     O175-H177=0.9755     
H176-O175=0.9706     H177-O175=0.9755     O178-H179=0.9838     O178-H180=0.9732     H179-O178=0.9838     H180-O178=0.9732     
O181-H182=0.9727     O181-H183=0.9798     H182-O181=0.9727     H183-O181=0.9798     O184-H185=0.9578     O184-H186=0.9831     
H185-O184=0.9578     H186-O184=0.9831     O187-H188=0.9830     O187-H189=0.9667     H188-O187=0.9830     H189-O187=0.9667     
O190-H191=0.9683     O190-H192=0.9713     H191-O190=0.9683     H192-O190=0.9713     O193-H194=0.9751     O193-H195=0.9723     
H194-O193=0.9751     H195-O193=0.9723     O196-H197=0.9678     O196-H198=0.9761     H197-O196=0.9678     H198-O196=0.9761     
O199-H200=0.9681     O199-H201=0.9687     H200-O199=0.9681     H201-O199=0.9687     O202-H203=0.9673     O202-H204=0.9767     
H203-O202=0.9673     H204-O202=0.9767     O205-H206=0.9740     O205-H207=0.9778     H206-O205=0.9740     H207-O205=0.9778     
O208-H209=0.9819     O208-H210=0.9713     H209-O208=0.9819     H210-O208=0.9713     O211-H212=0.9578     O211-H213=0.9815     
H212-O211=0.9578     H213-O211=0.9815     O214-H215=0.9635     O214-H216=0.9720     H215-O214=0.9635     H216-O214=0.9720     
O217-H218=0.9907     O217-H219=0.9817     H218-O217=0.9907     H219-O217=0.9817     O220-H221=0.9719     O220-H222=0.9659     
H221-O220=0.9719     H222-O220=0.9659     O223-H224=0.9718     O223-H225=0.9806     H224-O223=0.9718     H225-O223=0.9806     
O226-H227=0.9708     O226-H228=0.9759     H227-O226=0.9708     H228-O226=0.9759     O229-H230=0.9763     O229-H231=0.9773     
H230-O229=0.9763     H231-O229=0.9773     O232-H233=0.9916     O232-H234=0.9596     H233-O232=0.9916     H234-O232=0.9596     
O235-H236=0.9786     O235-H237=0.9745     H236-O235=0.9786     H237-O235=0.9745     O238-H239=0.9787     O238-H240=0.9776     
H239-O238=0.9787     H240-O238=0.9776     O241-H242=0.9828     O241-H243=0.9722     H242-O241=0.9828     H243-O241=0.9722     
O244-H245=0.9763     O244-H246=0.9570     H245-O244=0.9763     H246-O244=0.9570     O247-H248=0.9734     O247-H249=0.9755     
H248-O247=0.9734     H249-O247=0.9755     O250-H251=0.9820     O250-H252=0.9818     H251-O250=0.9820     H252-O250=0.9818     
O253-H254=0.9840     O253-H255=0.9589     H254-O253=0.9840     H255-O253=0.9589     O256-H257=0.9622     O256-H258=0.9866     
H257-O256=0.9622     H258-O256=0.9866     O259-H260=0.9636     O259-H261=0.9727     H260-O259=0.9636     H261-O259=0.9727     
O262-H263=0.9727     O262-H264=0.9761     H263-O262=0.9727     H264-O262=0.9761     O265-H266=0.9755     O265-H267=0.9650     
H266-O265=0.9755     H267-O265=0.9650     O268-H269=0.9897     O268-H270=0.9737     H269-O268=0.9897     H270-O268=0.9737     
O271-H272=0.9759     O271-H273=0.9726     H272-O271=0.9759     H273-O271=0.9726     O274-H275=0.9787     O274-H276=0.9630     
H275-O274=0.9787     H276-O274=0.9630     O277-H278=0.9597     O277-H279=0.9694     H278-O277=0.9597     H279-O277=0.9694     
O280-H281=0.9643     O280-H282=0.9727     H281-O280=0.9643     H282-O280=0.9727     O283-H284=0.9783     O283-H285=0.9649     
H284-O283=0.9783     H285-O283=0.9649     O286-H287=0.9743     O286-H288=0.9764     H287-O286=0.9743     H288-O286=0.9764     
O289-H290=0.9833     O289-H291=0.9694     H290-O289=0.9833     H291-O289=0.9694     O292-H293=0.9728     O292-H294=0.9834     
H293-O292=0.9728     H294-O292=0.9834     O295-H296=0.9673     O295-H297=0.9670     H296-O295=0.9673     H297-O295=0.9670     
O298-H299=0.9653     O298-H300=0.9720     H299-O298=0.9653     H300-O298=0.9720     O301-H302=0.9647     O301-H303=0.9771     
H302-O301=0.9647     H303-O301=0.9771     O304-H305=0.9561     O304-H306=0.9855     H305-O304=0.9561     H306-O304=0.9855     
O307-H308=0.9786     O307-H309=0.9800     H308-O307=0.9786     H309-O307=0.9800     O310-H311=0.9692     O310-H312=0.9754     
H311-O310=0.9692     H312-O310=0.9754     O313-H314=0.9845     O313-H315=0.9584     H314-O313=0.9845     H315-O313=0.9584     
O316-H317=0.9715     O316-H318=0.9761     H317-O316=0.9715     H318-O316=0.9761     O319-H320=0.9696     O319-H321=0.9783     
H320-O319=0.9696     H321-O319=0.9783     O322-H323=0.9660     O322-H324=0.9814     H323-O322=0.9660     H324-O322=0.9814     
O325-H326=0.9648     O325-H327=0.9805     H326-O325=0.9648     H327-O325=0.9805     O328-H329=0.9803     O328-H330=0.9636     
H329-O328=0.9803     H330-O328=0.9636     O331-H332=0.9674     O331-H333=0.9748     H332-O331=0.9674     H333-O331=0.9748     
O334-H335=0.9706     O334-H336=0.9697     H335-O334=0.9706     H336-O334=0.9697     O337-H338=0.9687     O337-H339=0.9750     
H338-O337=0.9687     H339-O337=0.9750     O340-H341=0.9846     O340-H342=0.9712     H341-O340=0.9846     H342-O340=0.9712     
O343-H344=1.0013     O343-H345=0.9579     H344-O343=1.0013     H345-O343=0.9579     O346-H347=0.9702     O346-H348=0.9713     
H347-O346=0.9702     H348-O346=0.9713     O349-H350=0.9762     O349-H351=0.9732     H350-O349=0.9762     H351-O349=0.9732     
O352-H353=0.9665     O352-H354=0.9837     H353-O352=0.9665     H354-O352=0.9837     O355-H356=0.9782     O355-H357=0.9812     
H356-O355=0.9782     H357-O355=0.9812     O358-H359=0.9746     O358-H360=0.9743     H359-O358=0.9746     H360-O358=0.9743     
O361-H362=0.9731     O361-H363=0.9687     H362-O361=0.9731     H363-O361=0.9687     O364-H365=0.9767     O364-H366=0.9724     
H365-O364=0.9767     H366-O364=0.9724     O367-H368=0.9564     O367-H369=0.9900     H368-O367=0.9564     H369-O367=0.9900     
O370-H371=0.9711     O370-H372=0.9770     H371-O370=0.9711     H372-O370=0.9770     O373-H374=0.9579     O373-H375=0.9802     
H374-O373=0.9579     H375-O373=0.9802     O376-H377=0.9704     O376-H378=0.9699     H377-O376=0.9704     H378-O376=0.9699     
O379-H380=0.9657     O379-H381=0.9856     H380-O379=0.9657     H381-O379=0.9856     O382-H383=0.9759     O382-H384=0.9662     
H383-O382=0.9759     H384-O382=0.9662     O385-H386=0.9576     O385-H387=0.9850     H386-O385=0.9576     H387-O385=0.9850     
O388-H389=0.9795     O388-H390=0.9840     H389-O388=0.9795     H390-O388=0.9840     O391-H392=0.9889     O391-H393=0.9673     
H392-O391=0.9889     H393-O391=0.9673     O394-H395=0.9690     O394-H396=0.9877     H395-O394=0.9690     H396-O394=0.9877     
O397-H398=0.9739     O397-H399=0.9718     H398-O397=0.9739     H399-O397=0.9718     O400-H401=0.9816     O400-H402=0.9695     
H401-O400=0.9816     H402-O400=0.9695     O403-H404=0.9612     O403-H405=0.9723     H404-O403=0.9612     H405-O403=0.9723     
O406-H407=0.9831     O406-H408=0.9574     H407-O406=0.9831     H408-O406=0.9574     O409-H410=0.9634     O409-H411=0.9783     
H410-O409=0.9634     H411-O409=0.9783     O412-H413=0.9647     O412-H414=0.9796     H413-O412=0.9647     H414-O412=0.9796     
O415-H416=0.9565     O415-H417=0.9892     H416-O415=0.9565     H417-O415=0.9892     O418-H419=0.9700     O418-H420=0.9707     
H419-O418=0.9700     H420-O418=0.9707     O421-H422=0.9748     O421-H423=0.9691     H422-O421=0.9748     H423-O421=0.9691     
O424-H425=0.9936     O424-H426=0.9575     H425-O424=0.9936     H426-O424=0.9575     O427-H428=0.9687     O427-H429=0.9768     
H428-O427=0.9687     H429-O427=0.9768     O430-H431=0.9723     O430-H432=0.9703     H431-O430=0.9723     H432-O430=0.9703     
O433-H434=0.9720     O433-H435=0.9685     H434-O433=0.9720     H435-O433=0.9685     O436-H437=0.9795     O436-H438=0.9856     
H437-O436=0.9795     H438-O436=0.9856     O439-H440=0.9810     O439-H441=0.9582     H440-O439=0.9810     H441-O439=0.9582     
O442-H443=0.9611     O442-H444=0.9823     H443-O442=0.9611     H444-O442=0.9823     O445-H446=0.9713     O445-H447=0.9703     
H446-O445=0.9713     H447-O445=0.9703     O448-H449=0.9675     O448-H450=0.9689     H449-O448=0.9675     H450-O448=0.9689     
O451-H452=0.9804     O451-H453=0.9911     H452-O451=0.9804     H453-O451=0.9911     O454-H455=0.9584     O454-H456=0.9828     
H455-O454=0.9584     H456-O454=0.9828     O457-H458=0.9583     O457-H459=0.9797     H458-O457=0.9583     H459-O457=0.9797     
O460-H461=0.9790     O460-H462=0.9685     H461-O460=0.9790     H462-O460=0.9685     O463-H464=0.9592     O463-H465=0.9692     
H464-O463=0.9592     H465-O463=0.9692     O466-H467=0.9678     O466-H468=0.9842     H467-O466=0.9678     H468-O466=0.9842     
O469-H470=0.9730     O469-H471=0.9840     H470-O469=0.9730     H471-O469=0.9840     O472-H473=0.9856     O472-H474=0.9684     
H473-O472=0.9856     H474-O472=0.9684     O475-H476=0.9808     O475-H477=0.9788     H476-O475=0.9808     H477-O475=0.9788     
O478-H479=0.9562     O478-H480=0.9958     H479-O478=0.9562     H480-O478=0.9958     O481-H482=0.9624     O481-H483=0.9805     
H482-O481=0.9624     H483-O481=0.9805     O484-H485=0.9882     O484-H486=0.9724     H485-O484=0.9882     H486-O484=0.9724     
O487-H488=0.9755     O487-H489=0.9791     H488-O487=0.9755     H489-O487=0.9791     O490-H491=0.9802     O490-H492=0.9843     
H491-O490=0.9802     H492-O490=0.9843     O493-H494=0.9661     O493-H495=0.9667     H494-O493=0.9661     H495-O493=0.9667     
O496-H497=0.9866     O496-H498=0.9659     H497-O496=0.9866     H498-O496=0.9659     O499-H500=0.9808     O499-H501=0.9653     
H500-O499=0.9808     H501-O499=0.9653     O502-H503=0.9831     O502-H504=0.9672     H503-O502=0.9831     H504-O502=0.9672     
O505-H506=0.9739     O505-H507=0.9647     H506-O505=0.9739     H507-O505=0.9647     O508-H509=0.9665     O508-H510=0.9840     
H509-O508=0.9665     H510-O508=0.9840     O511-H512=0.9762     O511-H513=0.9763     H512-O511=0.9762     H513-O511=0.9763     
O514-H515=0.9676     O514-H516=0.9626     H515-O514=0.9676     H516-O514=0.9626     O517-H518=0.9713     O517-H519=0.9696     
H518-O517=0.9713     H519-O517=0.9696     O520-H521=0.9663     O520-H522=0.9782     H521-O520=0.9663     H522-O520=0.9782     
O523-H524=0.9686     O523-H525=0.9662     H524-O523=0.9686     H525-O523=0.9662     O526-H527=0.9877     O526-H528=0.9586     
H527-O526=0.9877     H528-O526=0.9586     O529-H530=0.9696     O529-H531=0.9871     H530-O529=0.9696     H531-O529=0.9871     
O532-H533=0.9657     O532-H534=0.9659     H533-O532=0.9657     H534-O532=0.9659     O535-H536=0.9761     O535-H537=0.9660     
H536-O535=0.9761     H537-O535=0.9660     O538-H539=0.9676     O538-H540=0.9782     H539-O538=0.9676     H540-O538=0.9782     
O541-H542=0.9741     O541-H543=0.9755     H542-O541=0.9741     H543-O541=0.9755     O544-H545=0.9625     O544-H546=0.9725     
H545-O544=0.9625     H546-O544=0.9725     O547-H548=0.9791     O547-H549=0.9799     H548-O547=0.9791     H549-O547=0.9799     
O550-H551=0.9986     O550-H552=0.9658     H551-O550=0.9986     H552-O550=0.9658     O553-H554=0.9718     O553-H555=0.9787     
H554-O553=0.9718     H555-O553=0.9787     O556-H557=0.9755     O556-H558=0.9701     H557-O556=0.9755     H558-O556=0.9701     
O559-H560=0.9761     O559-H561=0.9808     H560-O559=0.9761     H561-O559=0.9808     O562-H563=0.9698     O562-H564=0.9696     
H563-O562=0.9698     H564-O562=0.9696     O565-H566=0.9644     O565-H567=0.9662     H566-O565=0.9644     H567-O565=0.9662     
O568-H569=0.9571     O568-H570=0.9970     H569-O568=0.9571     H570-O568=0.9970     O571-H572=0.9806     O571-H573=0.9588     
H572-O571=0.9806     H573-O571=0.9588     O574-H575=0.9684     O574-H576=0.9648     H575-O574=0.9684     H576-O574=0.9648     
O577-H578=0.9848     O577-H579=0.9725     H578-O577=0.9848     H579-O577=0.9725     O580-H581=0.9807     O580-H582=0.9704     
H581-O580=0.9807     H582-O580=0.9704     O583-H584=0.9733     O583-H585=0.9653     H584-O583=0.9733     H585-O583=0.9653     
O586-H587=0.9699     O586-H588=0.9698     H587-O586=0.9699     H588-O586=0.9698     O589-H590=0.9773     O589-H591=0.9920     
H590-O589=0.9773     H591-O589=0.9920     O592-H593=0.9566     O592-H594=0.9917     H593-O592=0.9566     H594-O592=0.9917     
O595-H596=0.9728     O595-H597=0.9857     H596-O595=0.9728     H597-O595=0.9857     O598-H599=0.9934     O598-H600=0.9678     
H599-O598=0.9934     H600-O598=0.9678     O601-H602=0.9705     O601-H603=0.9806     H602-O601=0.9705     H603-O601=0.9806     
O604-H605=0.9760     O604-H606=0.9801     H605-O604=0.9760     H606-O604=0.9801     O607-H608=0.9703     O607-H609=0.9643     
H608-O607=0.9703     H609-O607=0.9643     O610-H611=0.9781     O610-H612=0.9658     H611-O610=0.9781     H612-O610=0.9658     
 C  H  Rav=1.0862 sigma=0.0019  Rmin=1.0830  Rmax=1.0878     4
 C  C  Rav=1.5211 sigma=0.0000  Rmin=1.5211  Rmax=1.5211     1
 N  H  Rav=1.0463 sigma=0.0102  Rmin=1.0359  Rmax=1.0601     3
 N  C  Rav=1.4705 sigma=0.0000  Rmin=1.4705  Rmax=1.4705     1
 O  H  Rav=0.9738 sigma=0.0086  Rmin=0.9561  Rmax=1.0055   401
 O  C  Rav=1.4142 sigma=0.0000  Rmin=1.4142  Rmax=1.4142     1
 
 selected bond angles (degree)
 --------------------
H3-C2-H1=109.05                C4-C2-H1=109.83                C4-C2-H3=109.23                O7-C2-H1=110.06                
O7-C2-H3=106.28                O7-C2-C4=112.29                H5-C4-C2=108.78                H6-C4-C2=108.93                
H6-C4-H5=108.90                N9-C4-C2=111.49                N9-C4-H5=109.58                N9-C4-H6=109.14                
H8-O7-C2=108.98                H10-N9-C4=109.54               H11-N9-C4=111.25               H11-N9-H10=107.27              
H12-N9-C4=110.60               H12-N9-H10=106.95              H12-N9-H11=111.08              
 
 selected dihedral angles (degree)
 ---------------------------------
H5-C4-C2-H1=193.65            H5-C4-C2-H3= 74.09            H5-C4-C2-O7=316.46            H6-C4-C2-H1= 75.09            
H6-C4-C2-H3=315.53            H6-C4-C2-O7=197.90            N9-C4-C2-H1=314.59            N9-C4-C2-H3=195.04            
N9-C4-C2-O7= 77.41            H8-O7-C2-H1= 57.73            H8-O7-C2-H3=175.67            H8-O7-C2-C4=295.04            
H10-N9-C4-C2=215.41           H10-N9-C4-H5=335.88           H10-N9-C4-H6= 95.04           H11-N9-C4-C2= 96.98           
H11-N9-C4-H5=217.45           H11-N9-C4-H6=336.61           H12-N9-C4-C2=333.04           H12-N9-C4-H5= 93.51           
H12-N9-C4-H6=212.67           
 
 CMA Distance (Angstroems)
 ---------------------------
R(CMA):  1.6672
           -------------------------------------------------
          |                Final Singlepoint                |
           -------------------------------------------------

          ...................................................
          :                      SETUP                      :
          :.................................................:
          :  # basis functions                1224          :
          :  # atomic orbitals                1224          :
          :  # shells                          816          :
          :  # electrons                      1626          :
          :  max. iterations                   250          :
          :  Hamiltonian                  GFN2-xTB          :
          :  restarted?                      false          :
          :  GBSA solvation                  false          :
          :  PC potential                    false          :
          :  electronic temp.          300.0000000     K    :
          :  accuracy                    1.0000000          :
          :  -> integral cutoff          0.2500000E+02      :
          :  -> integral neglect         0.1000000E-07      :
          :  -> SCF convergence          0.1000000E-05 Eh   :
          :  -> wf. convergence          0.1000000E-03 e    :
          :  Broyden damping             0.4000000          :
          ...................................................

 iter      E             dE          RMSdq      gap      omega  full diag
   1  -1039.8128956 -0.103981E+04  0.206E-05    8.20       0.0  T
   2  -1039.8128956 -0.750333E-11  0.123E-05    8.20     327.8  T
   3  -1039.8128956 -0.250111E-11  0.229E-06    8.20    1768.5  T

   *** convergence criteria satisfied after 3 iterations ***

         #    Occupation            Energy/Eh            Energy/eV
      -------------------------------------------------------------
         1        2.0000           -0.7357421             -20.0206
       ...           ...                  ...                  ...
       807        2.0000           -0.4595618             -12.5053
       808        2.0000           -0.4589228             -12.4879
       809        2.0000           -0.4587997             -12.4846
       810        2.0000           -0.4570025             -12.4357
       811        2.0000           -0.4537935             -12.3484
       812        2.0000           -0.4519859             -12.2992
       813        2.0000           -0.4486788             -12.2092 (HOMO)
       814                         -0.1474033              -4.0110 (LUMO)
       815                         -0.1355799              -3.6893
       816                         -0.1253915              -3.4121
       817                         -0.1220325              -3.3207
       818                         -0.1113812              -3.0308
       ...                                ...                  ...
      1224                          0.3760195              10.2320
      -------------------------------------------------------------
                  HL-Gap            0.3012755 Eh            8.1981 eV
             Fermi-level           -0.2980411 Eh           -8.1101 eV

 SCC (total)                   0 d,  0 h,  0 min, 12.500 sec
 SCC setup                      ...        0 min,  0.032 sec (  0.258%)
 Dispersion                     ...        0 min,  0.083 sec (  0.668%)
 classical contributions        ...        0 min,  0.021 sec (  0.165%)
 integral evaluation            ...        0 min,  0.706 sec (  5.648%)
 iterations                     ...        0 min,  1.950 sec ( 15.603%)
 molecular gradient             ...        0 min,  9.636 sec ( 77.088%)
 printout                       ...        0 min,  0.071 sec (  0.570%)

         :::::::::::::::::::::::::::::::::::::::::::::::::::::
         ::                     SUMMARY                     ::
         :::::::::::::::::::::::::::::::::::::::::::::::::::::
         :: total energy           -1033.481959029448 Eh    ::
         :: gradient norm              0.000153677068 Eh/a0 ::
         :: HOMO-LUMO gap              8.198123372519 eV    ::
         ::.................................................::
         :: SCC energy             -1039.812895554583 Eh    ::
         :: -> isotropic ES            5.727347391778 Eh    ::
         :: -> anisotropic ES         -1.311498356213 Eh    ::
         :: -> anisotropic XC         -0.097712039974 Eh    ::
         :: -> dispersion             -0.631674476492 Eh    ::
         :: repulsion energy           6.208879433826 Eh    ::
         :: add. restraining           0.000000000000 Eh    ::
         :: total charge               1.000000000000 e     ::
         :::::::::::::::::::::::::::::::::::::::::::::::::::::

           ------------------------------------------------- 
          |                Numerical Hessian                |
           ------------------------------------------------- 
step length          :   0.00500
SCC accuracy         :   0.30000
Hessian scale factor :   1.00000
frozen atoms in %    :   0.00000    0
RMS gradient         :   0.00015
estimated CPU  time    755.90 min
estimated wall time    757.73 min
