612
 energy: -1033.481957746799 gnorm: 0.000372932965 xtb: 6.5.1 (579679a)
H           -0.87777743350000        0.39766109050000        0.05768000400000
C           -0.38803171380000        1.17460833500000       -0.52519614520000
H           -0.41430527560000        0.89928122920000       -1.57649657210000
C            1.05963037400000        1.31779998540000       -0.08088417870000
H            1.46110697270000        2.24158795210000       -0.48908127560000
H            1.63083817460000        0.48454121350000       -0.47105985520000
O           -1.10537145710000        2.38842284290000       -0.41530603730000
H           -1.16559864730000        2.63709193560000        0.52568635500000
N            1.17384964110000        1.33624776210000        1.38511295590000
H            1.94052919430000        1.98461984990000        1.66714595630000
H            1.41801546460000        0.37655512720000        1.76347430250000
H            0.30189908690000        1.69500352170000        1.81404826000000
O            6.24389721500000        6.72111624380000       -0.98341440720000
H            5.37149591810000        6.76301847160000       -0.53349989470000
H            6.57804155160000        7.61594620030000       -1.02641851320000
O            2.11466131960000        4.11198331700000       -3.19146366520000
H            1.15703354530000        3.96367907850000       -2.97581847760000
H            2.35676345810000        4.97305194780000       -2.81182082100000
O           10.51356471500000        2.45118717630000       -1.90903062030000
H            9.57463445130000        2.14466331770000       -1.88624858630000
H           10.52242513160000        3.16305640100000       -2.55266203880000
O           -3.36309804840000        1.35749969100000        2.34199458500000
H           -3.65440061140000        2.24537432880000        2.05799945890000
H           -3.77553999070000        0.68960247240000        1.76784930340000
O           -2.66726716750000        4.70203243740000       -0.04168700840000
H           -2.85585161820000        4.13028187350000       -0.81956732730000
H           -3.24845950900000        4.39526800260000        0.68292640070000
O           -0.69551303270000       -3.35993110540000       -4.71680307800000
H           -1.30604379630000       -3.62376056820000       -5.42710375170000
H            0.18437409600000       -3.32521004920000       -5.11659452430000
O            3.90245242200000        1.16685560650000        1.06735289790000
H            4.40452047540000        0.86461728030000        1.83413048370000
H            4.21859052590000        2.05140976500000        0.87044574630000
O            7.50643030420000        4.24679287130000       -1.41911366090000
H            7.34100533580000        5.16242390190000       -1.16995967660000
H            8.11501799520000        3.86780726090000       -0.74354521330000
O            2.01736442050000       -0.93710497480000        2.40530352390000
H            2.32992232800000       -0.53887087320000        3.23319814190000
H            2.82944532980000       -1.25076929190000        1.95389438930000
O           -0.30734807940000       -1.44526847730000       -2.68465772560000
H           -0.01805690240000       -2.36425876080000       -2.56474120060000
H            0.47300516730000       -0.89093996660000       -2.53195297660000
O            5.89450334480000        2.55282295100000       -3.18431537220000
H            5.05270765430000        2.25285572410000       -2.79737349540000
H            5.84402636610000        3.51703414640000       -3.18313043310000
O            8.81787777710000        3.70375364430000       -3.89220803540000
H            8.31092904190000        3.88099406980000       -3.08393904210000
H            8.16161102390000        3.44788187150000       -4.57018264050000
O           -1.19316892490000       -0.18650410610000        2.34192839770000
H           -1.71492683120000       -0.97852432260000        2.60991354060000
H           -1.85016718900000        0.53510093120000        2.33476922920000
O           -1.64860322790000        1.85653711940000        4.53183156880000
H           -1.89590094880000        0.95199086360000        4.74047115570000
H           -2.28857641020000        2.44813444330000        4.95990842030000
O           -1.70253511250000        5.40060814460000        3.30310797150000
H           -2.03972357070000        4.57694386630000        2.92835010700000
H           -0.81732646440000        5.52707228710000        2.90195024010000
O            1.93746776450000       -0.63913443050000       -5.27977505820000
H            2.11498350840000       -1.53242983990000       -4.93413945450000
H            2.75692556620000       -0.32291704990000       -5.70134879310000
O           -1.51701716910000       -4.51160200070000        2.57743451550000
H           -1.45147225500000       -4.45363073680000        1.61874048620000
H           -2.07172237150000       -5.29051607780000        2.78046985480000
O            1.11845072870000       -3.63655174870000        2.27252866590000
H            0.82944213770000       -4.56411302600000        2.39106833820000
H            2.09820121410000       -3.65731387390000        2.17344530860000
O            1.48294096000000       -2.06264184250000        7.07085046400000
H            0.69391211580000       -2.22733968850000        7.60748239690000
H            1.20268799240000       -2.24982817450000        6.15455638330000
O           -0.66521188970000        0.33909417870000        6.95588807790000
H           -0.77993790520000       -0.56130627390000        7.30270533580000
H           -0.36405107460000        0.22555619670000        6.02432884540000
O            4.51565232770000        2.43853593070000        3.63706691160000
H            4.09270855350000        1.65655607700000        4.04165580630000
H            5.04026987470000        2.89543113480000        4.31073369000000
O           -0.36408020440000        3.59806652770000       -2.71210202360000
H           -0.60697974530000        3.24157903960000       -1.83997568690000
H           -0.50698034820000        2.90749770830000       -3.37180989620000
O           -4.27077635950000        3.85931074650000        1.95435282720000
H           -4.37181036830000        4.27708789350000        2.83928516040000
H           -5.18749996110000        3.69491085380000        1.66048343890000
O           -3.95934230040000       -1.00303803160000        1.12116175620000
H           -3.36595256140000       -1.29405284300000        0.41206242310000
H           -3.67565603390000       -1.50035728320000        1.90898766270000
O            2.00339260660000       -1.89524386560000       -0.98722525830000
H            2.36688158170000       -2.75403763600000       -0.72726898720000
H            1.21338333630000       -1.78812320490000       -0.42284699060000
O            8.03672235030000        1.46820480110000       -2.11415696440000
H            8.24580432920000        0.80485773710000       -2.80359140920000
H            7.28678330270000        1.98511366930000       -2.49007690660000
O           -3.20223294290000        0.89602924440000       -1.33961440260000
H           -3.78161974790000        1.23207658400000       -0.62779889740000
H           -2.82727450220000        0.03529163230000       -1.07048764870000
O            3.53490351420000        2.24975513350000       -1.84126366940000
H            3.04400932870000        3.02137490700000       -2.17577257390000
H            4.09505517130000        2.59823006900000       -1.12721838760000
O            2.63022787500000        0.35221081850000        7.14705839050000
H            2.06826049310000        1.10106180190000        7.38527504510000
H            2.07102042300000       -0.44941442740000        7.19070119840000
O           -2.66964769800000       -2.23713872780000        3.06337214970000
H           -2.60174531010000       -1.95384942790000        3.99915182580000
H           -2.22574538910000       -3.11132528800000        2.96453286250000
O           -1.93230209930000        1.03119632410000       -7.48060996430000
H           -0.96744462420000        0.89019622850000       -7.51815462160000
H           -2.32147231200000        0.15702629920000       -7.53203254660000
O            3.84381805350000        6.82054967930000        0.27665733200000
H            3.29650138530000        7.51566842460000       -0.10621863820000
H            3.41111497860000        5.96846154420000       -0.03585744340000
O           -0.44554758780000        4.43556453330000       -5.80066436030000
H           -0.92654675140000        4.83312478170000       -5.05070528060000
H           -0.22603146870000        3.53257303610000       -5.51601378690000
O            7.54841408270000       -3.86912737570000       -2.04303809390000
H            7.18030532290000       -2.99233548180000       -1.86937025410000
H            8.21432508600000       -4.02802270080000       -1.35529957470000
O           -1.47529385910000       -4.05998113480000       -0.18323898950000
H           -1.01931100770000       -3.20380378640000       -0.00529678790000
H           -1.61689193640000       -4.10481188580000       -1.15361651560000
O           -9.56470362610000       -3.64910530020000        2.78609777820000
H           -9.11802445490000       -4.04521880490000        2.00998685790000
H          -10.25261311140000       -4.26298891620000        3.04140709320000
O           -8.04594069140000       -4.85537083180000        0.89942475020000
H           -7.99275510580000       -4.88836035140000       -0.06748135660000
H           -7.30875232240000       -4.28099679690000        1.17293267080000
O            0.59676279740000       -2.78361972610000        4.64167264350000
H            0.78158610270000       -2.99698150910000        3.68414672420000
H           -0.32449122120000       -3.05886195680000        4.81751971480000
O            2.64783190250000        4.61899562940000       -0.40056190490000
H            1.69237531870000        4.79853363130000       -0.43891843850000
H            2.78815538100000        4.13209237450000        0.43650290420000
O           -0.73120710300000        7.03814875590000       -2.09437816490000
H           -0.98551603490000        6.41588568080000       -2.80204788520000
H           -1.57623159650000        7.30724564380000       -1.70058509660000
O           -5.59998280810000       -1.38846128010000        3.52997408550000
H           -5.72997013500000       -0.48159033710000        3.17916360010000
H           -6.42337999670000       -1.62095890080000        4.00083386910000
O            8.46790009460000        2.48524358390000        4.41461816520000
H            8.52628493240000        1.56476533620000        4.69674415590000
H            7.92562187510000        2.48300659430000        3.59243460770000
O           -4.49042766420000       -7.10192945840000       -2.96517671630000
H           -4.91479357150000       -7.08869750150000       -2.09522696050000
H           -3.54409912780000       -7.25207681480000       -2.75193472850000
O            5.25894640910000        4.93443616360000        1.93293546070000
H            5.05721515810000        5.75956707780000        1.48466402790000
H            4.76053477810000        4.94880425620000        2.77331119520000
O            4.41721439880000       -0.06554216150000       -3.70480720360000
H            4.28406791260000       -0.11357723000000       -2.73636247590000
H            4.01536274400000        0.77324385240000       -4.00966125780000
O           -0.83378135530000       -6.29010193160000        4.79945288200000
H           -1.66056728420000       -6.67221586330000        4.48003795320000
H           -0.26586787230000       -6.25282872520000        4.00797815500000
O           -1.71134172030000       -3.81735493200000        5.52225902250000
H           -2.66859535480000       -3.72693480510000        5.37019068160000
H           -1.46514020400000       -4.74010391290000        5.31118132520000
O            4.58457533440000       -3.08935312160000       -2.36901249600000
H            5.17559841390000       -2.31804570660000       -2.40398065560000
H            4.70968142200000       -3.46028307180000       -1.47000753090000
O            2.20652355390000        5.07957423120000       -5.75911187340000
H            2.21936398800000        4.73249606180000       -4.84587137870000
H            1.26156612750000        5.08911913900000       -5.98874111470000
O            5.39859265360000        3.15261814820000       -0.12185387490000
H            6.10268739630000        3.48008562380000       -0.71867631280000
H            5.29741032900000        3.83305164810000        0.56389543930000
O            0.67524809660000        0.26126607400000       -7.58126861330000
H            1.20536842180000        1.02965839930000       -7.82066232420000
H            1.06860892720000       -0.07553813010000       -6.75223274890000
O           -2.44980553290000       -1.59589118210000       -1.07392568920000
H           -3.16865807250000       -1.98986496660000       -1.60380829870000
H           -1.66071420490000       -1.55170086440000       -1.64711708160000
O           -0.70648291060000       -2.00619059560000       -7.38314124570000
H           -0.31359349890000       -1.26996126510000       -7.87033194490000
H            0.05461725940000       -2.57172576480000       -7.15325237250000
O            4.07798641260000        5.24734581010000        4.37065605130000
H            3.51603235260000        4.62129644510000        4.86358006170000
H            4.94816483160000        5.15035881100000        4.78169558890000
O           -2.68982711410000        3.68837752690000       -7.16883416750000
H           -2.47825997500000        2.75466519720000       -7.32840618680000
H           -1.85275671370000        4.07512698420000       -6.85040159220000
O            4.13940095100000       -0.42902915270000       -1.07940891980000
H            3.30799136060000       -0.95367533420000       -1.11591269070000
H            3.97774966710000        0.31846106670000       -0.47762142920000
O           -3.18910098350000        1.31096625450000        7.34822210850000
H           -3.64668034490000        1.22613609580000        6.49406089340000
H           -2.26138719970000        1.03483186530000        7.19590899520000
O            5.19321025510000        1.98422546620000        6.94539312640000
H            4.97030143060000        1.51493787270000        7.75006273030000
H            5.58918683220000        1.31660187240000        6.34216374870000
O            1.57649289750000        0.58171373380000       -2.95442526070000
H            1.89126030780000        0.08770907620000       -3.74380586430000
H            2.33815129060000        1.03212898960000       -2.56509501000000
O           -2.51461441390000       -3.91372295560000       -6.70532039730000
H           -1.98091081140000       -3.34084977030000       -7.27509311820000
H           -3.35369863860000       -3.44027132030000       -6.58163385220000
O           -1.07034840550000       -0.39378234430000       -5.10213855760000
H           -0.71340081970000       -0.81712847740000       -4.29954949570000
H           -0.92731116430000       -1.00622781340000       -5.84364539130000
O            0.34518812650000       -6.21289547190000       -3.82637060760000
H            1.13448817180000       -6.04632273810000       -4.36113629300000
H           -0.43083209540000       -6.15788182750000       -4.41582148280000
O            8.98073785890000       -5.18572533950000        2.50638702660000
H            8.10748610410000       -5.47880986450000        2.80440182590000
H            9.15625727640000       -4.35398793890000        2.97090323570000
O            1.36387216180000       -7.33570145380000       -1.51197838690000
H            0.88517233590000       -7.18461946600000       -2.33881003210000
H            2.23482331210000       -6.92653417860000       -1.67930172650000
O           -6.21249901650000        1.03996551820000        2.59071786070000
H           -5.77641863950000        1.42191831310000        1.80797880480000
H           -7.13221361120000        0.88103041220000        2.29915737800000
O           10.53720908730000        2.89016049550000        2.61774148400000
H            9.94325426710000        3.05572015060000        1.85353912430000
H            9.96859707080000        2.99495683410000        3.39815101630000
O           10.24683219070000        1.68209848920000       -4.99979263810000
H           10.13272999930000        1.87155823020000       -5.93172992040000
H            9.81434904530000        2.42974903260000       -4.53372217290000
O           11.92648513670000        1.75427161930000        0.37661503970000
H           11.76242876970000        2.34202132550000        1.12226229500000
H           11.57848835760000        2.20081831230000       -0.41345553640000
O           -4.66905315510000       -0.17091572160000       -3.18258305700000
H           -4.21647832410000        0.22163663320000       -2.39348213160000
H           -4.12406219340000       -0.96138718810000       -3.38710302640000
O            4.89362335120000        4.25402392890000       -5.68982767290000
H            5.13140472660000        4.70395763590000       -4.86185963250000
H            4.10364633850000        4.70483702230000       -6.01476975610000
O            0.33953490680000       -0.08730436570000        4.51808748490000
H            0.60066051660000       -1.02244769040000        4.55841094540000
H           -0.23486746980000       -0.04166329500000        3.72462991780000
O           -8.35001378180000       -1.92709433990000        0.70548656090000
H           -7.52530076550000       -2.24767642470000        1.10478923330000
H           -8.46820769080000       -1.00500786330000        1.00244605160000
O           -7.08134432160000        0.95550206790000       -5.41894537590000
H           -6.24097862450000        0.72611445130000       -5.85971395420000
H           -7.04383908330000        0.59642491370000       -4.51077315080000
O            3.04122497310000       -6.83051998070000        1.17185253820000
H            4.01663602710000       -6.71020056930000        1.04029943080000
H            2.73601101490000       -7.39878959180000        0.46142949150000
O            5.26385950820000       -3.82794572510000        0.08332526020000
H            4.61712128110000       -3.62401581090000        0.78892376380000
H            6.02031591320000       -3.23668037040000        0.25021108950000
O           -6.78254081020000        3.05685139130000        4.37336383710000
H           -6.51911416490000        2.51394167660000        3.60288603720000
H           -7.74189664540000        3.20234704270000        4.25410433640000
O            2.76753020120000        3.45173309910000        1.96873256000000
H            3.41131066800000        3.15865414220000        2.65102812160000
H            2.07907507670000        3.98161421060000        2.40508627530000
O           -7.75053994950000        6.10685114680000        1.71155916090000
H           -6.91114531750000        6.43011433800000        1.33188094680000
H           -7.82877056550000        6.48135422300000        2.58873381010000
O            0.00472580610000        5.19107704370000       -0.24166896450000
H           -0.89067030240000        4.83385486850000       -0.10669323080000
H           -0.12526191970000        5.92560289490000       -0.87036440800000
O            0.75166494570000        5.17283457820000        2.33484152350000
H            1.33571618600000        5.92470518900000        2.57528313180000
H            0.51897833140000        5.31971168130000        1.39237082320000
O            3.71913688550000       -6.05510332770000        4.03369401760000
H            2.95560113520000       -5.77669914590000        4.58851212740000
H            3.44983169480000       -6.84188436830000        3.55629879850000
O            6.79693181700000       -2.73798540490000        3.21263024540000
H            7.68769863320000       -2.60512057180000        3.55137558300000
H            6.84244873140000       -2.44647021790000        2.27119755160000
O           -3.09115546440000       -2.13031033810000       -3.93471240260000
H           -2.13966908480000       -2.19373168260000       -4.07349037670000
H           -3.51843575250000       -2.24508958680000       -4.80091738940000
O           -8.55457304080000        0.64890075980000        1.40258079730000
H           -8.22025954380000        0.99573383350000        0.55752389440000
H           -9.31521294120000        1.22819263660000        1.59922021750000
O            3.80205028650000        0.45783170260000       -6.93255413740000
H            3.32198669150000        1.30656129920000       -6.95999789760000
H            4.69714420040000        0.62782757500000       -6.61454211070000
O           -4.24700609080000        3.82740625020000       -5.06600488100000
H           -3.75430971510000        3.91143653260000       -5.92024116870000
H           -3.86729086600000        3.01384929160000       -4.68920625620000
O            4.39368195020000       -2.23513381020000        4.32627257590000
H            4.24131119370000       -2.73747223650000        5.14896395040000
H            5.32999606880000       -2.31939909610000        4.07675911580000
O            3.71860847570000       -3.49991951570000        6.62560296230000
H            2.92073487320000       -3.00914334720000        6.90921771970000
H            3.39385626390000       -4.38126610340000        6.41317093610000
O           -1.99275631720000       -6.18955953050000       -5.21843398540000
H           -2.82372892690000       -6.45522077650000       -4.81841139700000
H           -2.20895129280000       -5.48356647350000       -5.84662575000000
O            3.43517462600000        2.18823407590000       -4.68979009980000
H            2.87205468880000        2.76487880780000       -4.16043143040000
H            4.09800744800000        2.77706452750000       -5.08998699060000
O            6.16513385140000       -6.20003834570000       -1.96890658210000
H            6.64272652570000       -5.34627017000000       -1.96348067610000
H            6.19360694250000       -6.52581873330000       -1.06110732750000
O            3.32443742240000        0.21628392700000        4.54184324060000
H            3.03320870210000        0.32525335870000        5.46521194510000
H            3.81149682690000       -0.62895954370000        4.50127005620000
O           -0.07698034010000       -1.97628125930000        0.63227736330000
H            0.41504600700000       -2.55487678470000        1.25672120810000
H           -0.43051275160000       -1.26365988990000        1.18635878890000
O            5.89569001410000        0.17237690000000        2.79464327240000
H            5.85001452520000        0.11631863170000        3.76473246770000
H            6.83482410630000       -0.02579083310000        2.58070975590000
O           12.05420613480000       -0.93703600350000       -0.19676454770000
H           11.91234783750000       -0.89103000460000       -1.15248494220000
H           12.32877573420000       -0.04463739960000        0.05498115180000
O           -6.14332642350000       -1.74642063860000        6.63300319490000
H           -6.87689830720000       -2.20020561690000        6.19959901280000
H           -6.27927951390000       -0.80973596400000        6.41164221690000
O           -3.66469116930000       -1.32832160840000        7.85596297180000
H           -4.58930952290000       -1.54383006700000        7.68493924980000
H           -3.61839705100000       -0.35588647730000        7.93949467030000
O           -9.14793559390000       -0.64086154750000       -6.01670272120000
H           -9.42053365430000       -0.50456600840000       -6.92286386870000
H           -8.34493414570000       -0.08870008410000       -5.86984999820000
O           -4.09352248360000       -4.08390835760000        0.24364598470000
H           -4.36533857990000       -5.00437255460000        0.05262485920000
H           -3.11765664930000       -4.04148632910000        0.16451420260000
O           -2.95924212400000        3.71836692830000        6.04137418990000
H           -3.10761595380000        3.13346867060000        6.79985623890000
H           -2.03397355960000        4.02519382340000        6.07586195550000
O          -10.42400558630000        2.57295571920000        1.45404771570000
H          -10.08813422500000        3.35415323750000        0.95784048180000
H          -11.19558128880000        2.28113325830000        0.96621754060000
O           -4.85358481930000       -2.63046475270000       -1.84846520030000
H           -4.80559967870000       -3.21841822980000       -2.62039352280000
H           -4.68505563000000       -3.19161255260000       -1.06774475900000
O           -5.15521991740000        1.84161166680000        0.16296840570000
H           -5.37529096090000        2.66094758530000       -0.30646998170000
H           -5.69550115850000        1.12707032360000       -0.23016119300000
O           -4.29446810410000        0.95655886230000        4.83021083450000
H           -5.24658328310000        0.80544343990000        4.89195623720000
H           -4.07489205900000        1.18426362980000        3.90123680650000
O            6.35287743430000       -5.41009575340000        3.26451143860000
H            5.57590093050000       -5.66683675570000        3.77558396740000
H            6.37784051830000       -4.43001538480000        3.25002667250000
O            6.61350190060000        0.49209060860000       -0.11620787540000
H            7.30152855570000        0.84776498380000       -0.71713263870000
H            6.03929362270000        1.24036781740000        0.08094873680000
O           -6.60297405520000       -7.00834833500000        1.69876897580000
H           -6.19401455140000       -6.61073159440000        2.48015911290000
H           -7.32928346000000       -6.40430310200000        1.45824481200000
O            2.61902026830000        7.00411872350000        2.82747701630000
H            3.11900360530000        7.00162612770000        1.99551268720000
H            3.15858878700000        6.53922995370000        3.48553454770000
O           -2.11504968190000       -4.48579109810000       -2.71529978040000
H           -2.98663683480000       -4.30353938760000       -3.09662149080000
H           -1.47387425620000       -4.13638214460000       -3.36132949670000
O           -7.61017812970000        0.24797607060000       -2.83153854430000
H           -8.55621814160000        0.20230741670000       -3.10050445740000
H           -7.43150026310000       -0.61470860490000       -2.42273164310000
O           -9.51278977500000        0.08914154900000        4.66336974730000
H           -9.98969718640000       -0.29445121660000        3.87085843510000
H          -10.14590848800000        0.07215452710000        5.38202821140000
O           -7.96057192160000       -2.23439757120000        4.55400956630000
H           -8.51818740420000       -1.44302929080000        4.61809513380000
H           -8.43146548820000       -2.83670896750000        3.95495435880000
O           -5.33956995390000       -5.19617529610000        3.38645254530000
H           -5.62201240330000       -4.51258056260000        2.74930291550000
H           -5.05786884650000       -4.69439071610000        4.17128932940000
O           -4.65873948720000       -4.57113747010000       -3.77493592580000
H           -5.50740425090000       -4.47495212440000       -4.22730492450000
H           -4.62595208510000       -5.51511607770000       -3.50001815470000
O            8.51433904130000       -0.17283914390000       -4.16670605000000
H            9.20954970080000        0.40165494870000       -4.54551026800000
H            7.72857804910000       -0.06436953140000       -4.74420572110000
O            0.56090230060000       -4.03970765570000       -2.20414675750000
H            0.45170545800000       -4.85177643570000       -2.73184462350000
H            1.10729498350000       -4.25869097340000       -1.42781322650000
O           -4.40665244200000       -3.31685893230000        5.12798828320000
H           -4.49001513860000       -2.64589302950000        4.42808769910000
H           -4.91318010900000       -2.94629210220000        5.86594161680000
O            9.97541935310000       -2.23762584830000        0.99233362390000
H           10.71434258260000       -1.75854918100000        0.56998933210000
H            9.89186644150000       -3.07592085830000        0.50676576300000
O           -2.74220775800000       -7.75119144280000        0.55128628930000
H           -2.65470782950000       -8.62023109340000        0.16176231220000
H           -1.89349856850000       -7.28195069750000        0.35255711490000
O           -4.53360817850000       -2.13045256360000       -6.23836112300000
H           -4.54928763420000       -1.20853201850000       -6.54315585730000
H           -5.35277125680000       -2.22351826620000       -5.71410812050000
O            0.23835571200000        7.70411784650000        1.36672830830000
H            0.64149040640000        8.12083546840000        2.12928456700000
H           -0.67667008620000        8.04555249340000        1.28325010780000
O            4.39474067320000       -1.59837668590000        1.38607041850000
H            4.97608141040000       -1.05407536670000        1.94056979810000
H            4.47003036500000       -1.25000573500000        0.48400832960000
O           -0.91321413000000        2.88774557460000        2.24883593800000
H           -0.21962516960000        3.51049096370000        2.50121803170000
H           -1.22735752690000        2.47022232280000        3.08454209170000
O            2.00717807830000        2.54609624910000       -6.98417394340000
H            1.47954900950000        2.30686546500000       -6.19887183350000