      -----------------------------------------------------------      
     |                   =====================                   |     
     |                           x T B                           |     
     |                   =====================                   |     
     |                         S. Grimme                         |     
     |          Mulliken Center for Theoretical Chemistry        |     
     |                    University of Bonn                     |     
      -----------------------------------------------------------      

   * xtb version 6.5.1 (579679a) compiled by 'ehlert@majestix' on 2022-07-11

   xtb is free software: you can redistribute it and/or modify it under
   the terms of the GNU Lesser General Public License as published by
   the Free Software Foundation, either version 3 of the License, or
   (at your option) any later version.
   
   xtb is distributed in the hope that it will be useful,
   but WITHOUT ANY WARRANTY; without even the implied warranty of
   MERCHANTABILITY or FITNESS FOR A PARTICULAR PURPOSE.  See the
   GNU Lesser General Public License for more details.
   
   Cite this work as:
   * C. Bannwarth, E. Caldeweyher, S. Ehlert, A. Hansen, P. Pracht,
     J. Seibert, S. Spicher, S. Grimme, WIREs Comput. Mol. Sci., 2020, 11,
     e01493. DOI: 10.1002/wcms.1493
   
   for GFN2-xTB:
   * C. Bannwarth, S. Ehlert and S. Grimme., J. Chem. Theory Comput., 2019,
     15, 1652-1671. DOI: 10.1021/acs.jctc.8b01176
   for GFN1-xTB:
   * S. Grimme, C. Bannwarth, P. Shushkov, J. Chem. Theory Comput., 2017,
     13, 1989-2009. DOI: 10.1021/acs.jctc.7b00118
   for GFN0-xTB:
   * P. Pracht, E. Caldeweyher, S. Ehlert, S. Grimme, ChemRxiv, 2019, preprint.
     DOI: 10.26434/chemrxiv.8326202.v1
   for GFN-FF:
   * S. Spicher and S. Grimme, Angew. Chem. Int. Ed., 2020, 59, 15665-15673.
     DOI: 10.1002/anie.202004239
   
   for ALPB and GBSA implicit solvation:
   * S. Ehlert, M. Stahn, S. Spicher, S. Grimme, J. Chem. Theory Comput.,
     2021, 17, 4250-4261. DOI: 10.1021/acs.jctc.1c00471
   
   for DFT-D4:
   * E. Caldeweyher, C. Bannwarth and S. Grimme, J. Chem. Phys., 2017,
     147, 034112. DOI: 10.1063/1.4993215
   * E. Caldeweyher, S. Ehlert, A. Hansen, H. Neugebauer, S. Spicher,
     C. Bannwarth and S. Grimme, J. Chem. Phys., 2019, 150, 154122.
     DOI: 10.1063/1.5090222
   * E. Caldeweyher, J.-M. Mewes, S. Ehlert and S. Grimme, Phys. Chem. Chem. Phys.
     2020, 22, 8499-8512. DOI: 10.1039/D0CP00502A
   
   for sTDA-xTB:
   * S. Grimme and C. Bannwarth, J. Chem. Phys., 2016, 145, 054103.
     DOI: 10.1063/1.4959605
   
   in the mass-spec context:
   * V. Asgeirsson, C. Bauer and S. Grimme, Chem. Sci., 2017, 8, 4879.
     DOI: 10.1039/c7sc00601b
   * J. Koopman and S. Grimme, ACS Omega 2019, 4, 12, 15120-15133.
     DOI: 10.1021/acsomega.9b02011
   
   for metadynamics refer to:
   * S. Grimme, J. Chem. Theory Comput., 2019, 155, 2847-2862
     DOI: 10.1021/acs.jctc.9b00143
   
   for SPH calculations refer to:
   * S. Spicher and S. Grimme, J. Chem. Theory Comput., 2021, 17, 1701-1714
     DOI: 10.1021/acs.jctc.0c01306
   
   with help from (in alphabetical order)
   P. Atkinson, C. Bannwarth, F. Bohle, G. Brandenburg, E. Caldeweyher
   M. Checinski, S. Dohm, S. Ehlert, S. Ehrlich, I. Gerasimov, C. Hölzer
   A. Katbashev, J. Koopman, C. Lavigne, S. Lehtola, F. März, M. Müller,
   F. Musil, H. Neugebauer, J. Pisarek, C. Plett, P. Pracht, F. Pultar,
   J. Seibert, P. Shushkov, S. Spicher, M. Stahn, M. Steiner, T. Strunk,
   J. Stückrath, T. Rose, and J. Unsleber
   
 * started run on 2022/11/24 at 12:04:43.997     

           -------------------------------------------------
          |                Calculation Setup                |
           -------------------------------------------------

          program call               : xtb solvent_cluster.coord --gfn2 --input xcontrol --opt 1
          hostname                   : cn0430
          coordinate file            : solvent_cluster.coord
          omp threads                :                     2

   ID    Z sym.   atoms
    1    8 o      1, 4, 7, 10, 13, 16, 19, 22, 25, 28, 31, 34, 37, 40, 43,
                  46, 49, 52, 55, 58, 61, 64, 67, 70, 73, 76, 79, 82, 85, 88,
                  91, 94, 97, 100, 103, 106, 109, 112, 115, 118, 121, 124,
                  127, 130, 133, 136, 139, 142, 145, 148, 151, 154, 157, 160,
                  163, 166, 169, 172, 175, 178, 181, 184, 187, 190, 193, 196,
                  199, 202, 205, 208, 211, 214, 217, 220, 223, 226, 229, 232,
                  235, 238, 241, 244, 247, 250, 253, 256, 259, 262, 265, 268,
                  271, 274, 277, 280, 283, 286, 289, 292, 295, 298, 301, 304,
                  307, 310, 313, 316, 319, 322, 325, 328, 331, 334, 337, 340,
                  343, 346, 349, 352, 355, 358, 361, 364, 367, 370, 373, 376,
                  379, 382, 385, 388, 391, 394, 397, 400, 403, 406, 409, 412,
                  415, 418, 421, 424, 427, 430, 433, 436, 439, 442, 445, 448,
                  451, 454, 457, 460, 463, 466, 469, 472, 475, 478, 481, 484,
                  487, 490, 493, 496, 499, 502, 505, 508, 511, 514, 517, 520,
                  523, 526, 529, 532, 535, 538, 541, 544, 547, 550, 553, 556,
                  559, 562, 565, 568, 571, 574, 577, 580, 583, 586, 589, 592,
                  595, 598, 601, 604, 607, 610, 613, 616, 619, 622, 625, 628,
                  631, 634, 637, 640, 643, 646, 649, 652, 655, 658, 661, 664,
                  667, 670, 673, 676, 679, 682, 685, 688, 691, 694, 697, 700,
                  703, 706, 709, 712, 715, 718, 721, 724, 727, 730, 733, 736,
                  739, 742, 745, 748, 751, 754
    2    1 h      2, 3, 5, 6, 8, 9, 11, 12, 14, 15, 17, 18, 20, 21, 23, 24,
                  26, 27, 29, 30, 32, 33, 35, 36, 38, 39, 41, 42, 44, 45, 47,
                  48, 50, 51, 53, 54, 56, 57, 59, 60, 62, 63, 65, 66, 68, 69,
                  71, 72, 74, 75, 77, 78, 80, 81, 83, 84, 86, 87, 89, 90, 92,
                  93, 95, 96, 98, 99, 101, 102, 104, 105, 107, 108, 110, 111,
                  113, 114, 116, 117, 119, 120, 122, 123, 125, 126, 128, 129,
                  131, 132, 134, 135, 137, 138, 140, 141, 143, 144, 146, 147,
                  149, 150, 152, 153, 155, 156, 158, 159, 161, 162, 164, 165,
                  167, 168, 170, 171, 173, 174, 176, 177, 179, 180, 182, 183,
                  185, 186, 188, 189, 191, 192, 194, 195, 197, 198, 200, 201,
                  203, 204, 206, 207, 209, 210, 212, 213, 215, 216, 218, 219,
                  221, 222, 224, 225, 227, 228, 230, 231, 233, 234, 236, 237,
                  239, 240, 242, 243, 245, 246, 248, 249, 251, 252, 254, 255,
                  257, 258, 260, 261, 263, 264, 266, 267, 269, 270, 272, 273,
                  275, 276, 278, 279, 281, 282, 284, 285, 287, 288, 290, 291,
                  293, 294, 296, 297, 299, 300, 302, 303, 305, 306, 308, 309,
                  311, 312, 314, 315, 317, 318, 320, 321, 323, 324, 326, 327,
                  329, 330, 332, 333, 335, 336, 338, 339, 341, 342, 344, 345,
                  347, 348, 350, 351, 353, 354, 356, 357, 359, 360, 362, 363,
                  365, 366, 368, 369, 371, 372, 374, 375, 377, 378, 380, 381,
                  383, 384, 386, 387, 389, 390, 392, 393, 395, 396, 398, 399,
                  401, 402, 404, 405, 407, 408, 410, 411, 413, 414, 416, 417,
                  419, 420, 422, 423, 425, 426, 428, 429, 431, 432, 434, 435,
                  437, 438, 440, 441, 443, 444, 446, 447, 449, 450, 452, 453,
                  455, 456, 458, 459, 461, 462, 464, 465, 467, 468, 470, 471,
                  473, 474, 476, 477, 479, 480, 482, 483, 485, 486, 488, 489,
                  491, 492, 494, 495, 497, 498, 500, 501, 503, 504, 506, 507,
                  509, 510, 512, 513, 515, 516, 518, 519, 521, 522, 524, 525,
                  527, 528, 530, 531, 533, 534, 536, 537, 539, 540, 542, 543,
                  545, 546, 548, 549, 551, 552, 554, 555, 557, 558, 560, 561,
                  563, 564, 566, 567, 569, 570, 572, 573, 575, 576, 578, 579,
                  581, 582, 584, 585, 587, 588, 590, 591, 593, 594, 596, 597,
                  599, 600, 602, 603, 605, 606, 608, 609, 611, 612, 614, 615,
                  617, 618, 620, 621, 623, 624, 626, 627, 629, 630, 632, 633,
                  635, 636, 638, 639, 641, 642, 644, 645, 647, 648, 650, 651,
                  653, 654, 656, 657, 659, 660, 662, 663, 665, 666, 668, 669,
                  671, 672, 674, 675, 677, 678, 680, 681, 683, 684, 686, 687,
                  689, 690, 692, 693, 695, 696, 698, 699, 701, 702, 704, 705,
                  707, 708, 710, 711, 713, 714, 716, 717, 719, 720, 722, 723,
                  725, 726, 728, 729, 731, 732, 734, 735, 737, 738, 740, 741,
                  743, 744, 746, 747, 749, 750, 752, 753, 755, 756

molecular fragmentation (1/2 indicates fragments):
111222222222222222222222222222222222222222222222222222222222222222222222
222222222222222222222222222222222222222222222222222222222222222222222222
222222222222222222222222222222222222222222222222222222222222222222222222
222222222222222222222222222222222222222222222222222222222222222222222222
222222222222222222222222222222222222222222222222222222222222222222222222
222222222222222222222222222222222222222222222222222222222222222222222222
222222222222222222222222222222222222222222222222222222222222222222222222
222222222222222222222222222222222222222222222222222222222222222222222222
222222222222222222222222222222222222222222222222222222222222222222222222
222222222222222222222222222222222222222222222222222222222222222222222222
222222222222222222222222222222222222
# atoms in fragment 1/2:     3   753
 fragment masses (1/2) :       18.02     4521.84
CMA distance (Bohr)    :  18.511
constraining FC (au)   :  0.0500

           -------------------------------------------------
          |                 G F N 2 - x T B                 |
           -------------------------------------------------

        Reference                      10.1021/acs.jctc.8b01176
      * Hamiltonian:
        H0-scaling (s, p, d)           1.850000    2.230000    2.230000
        zeta-weighting                 0.500000
      * Dispersion:
        s8                             2.700000
        a1                             0.520000
        a2                             5.000000
        s9                             5.000000
      * Repulsion:
        kExp                           1.500000    1.000000
        rExp                           1.000000
      * Coulomb:
        alpha                          2.000000
        third order                    shell-resolved
        anisotropic                    true
        a3                             3.000000
        a5                             4.000000
        cn-shift                       1.200000
        cn-exp                         4.000000
        max-rad                        5.000000


          ...................................................
          :                      SETUP                      :
          :.................................................:
          :  # basis functions                1512          :
          :  # atomic orbitals                1512          :
          :  # shells                         1008          :
          :  # electrons                      2016          :
          :  max. iterations                   250          :
          :  Hamiltonian                  GFN2-xTB          :
          :  restarted?                      false          :
          :  GBSA solvation                  false          :
          :  PC potential                    false          :
          :  electronic temp.          300.0000000     K    :
          :  accuracy                    1.0000000          :
          :  -> integral cutoff          0.2500000E+02      :
          :  -> integral neglect         0.1000000E-07      :
          :  -> SCF convergence          0.1000000E-05 Eh   :
          :  -> wf. convergence          0.1000000E-03 e    :
          :  Broyden damping             0.4000000          :
          ...................................................

 iter      E             dE          RMSdq      gap      omega  full diag
   1  -1290.9710166 -0.129097E+04  0.407E+00    8.48       0.0  T
   2  -1291.0513848 -0.803682E-01  0.241E+00    7.10       1.0  T
   3  -1291.0834795 -0.320947E-01  0.212E-01    5.06       1.0  T
   4  -1291.0890236 -0.554408E-02  0.461E-02    5.62       1.0  T
   5  -1291.0891137 -0.900550E-04  0.309E-02    5.53       1.0  T
   6  -1291.0891545 -0.408377E-04  0.445E-03    5.57       1.0  T
   7  -1291.0891572 -0.264961E-05  0.739E-04    5.57       4.9  T
   8  -1291.0891572 -0.280045E-07  0.376E-04    5.57       9.7  T
   9  -1291.0891572 -0.135649E-07  0.720E-05    5.57      50.5  T

   *** convergence criteria satisfied after 9 iterations ***

         #    Occupation            Energy/Eh            Energy/eV
      -------------------------------------------------------------
         1        2.0000           -0.6918589             -18.8264
       ...           ...                  ...                  ...
      1002        2.0000           -0.3416398              -9.2965
      1003        2.0000           -0.3404071              -9.2629
      1004        2.0000           -0.3370753              -9.1723
      1005        2.0000           -0.3334673              -9.0741
      1006        2.0000           -0.3292784              -8.9601
      1007        2.0000           -0.3216583              -8.7528
      1008        2.0000           -0.2882270              -7.8431 (HOMO)
      1009                         -0.0836234              -2.2755 (LUMO)
      1010                         -0.0783716              -2.1326
      1011                         -0.0578915              -1.5753
      1012                         -0.0554810              -1.5097
      1013                         -0.0517636              -1.4086
       ...                                ...                  ...
      1512                          0.4939650              13.4415
      -------------------------------------------------------------
                  HL-Gap            0.2046036 Eh            5.5675 eV
             Fermi-level           -0.1859252 Eh           -5.0593 eV

 SCC (total)                   0 d,  0 h,  0 min, 20.067 sec
 SCC setup                      ...        0 min,  0.042 sec (  0.209%)
 Dispersion                     ...        0 min,  0.110 sec (  0.548%)
 classical contributions        ...        0 min,  0.023 sec (  0.115%)
 integral evaluation            ...        0 min,  0.611 sec (  3.044%)
 iterations                     ...        0 min,  6.727 sec ( 33.522%)
 molecular gradient             ...        0 min, 12.489 sec ( 62.237%)
 printout                       ...        0 min,  0.065 sec (  0.324%)

         :::::::::::::::::::::::::::::::::::::::::::::::::::::
         ::                     SUMMARY                     ::
         :::::::::::::::::::::::::::::::::::::::::::::::::::::
         :: total energy           -1283.291726052185 Eh    ::
         :: gradient norm              0.104410847973 Eh/a0 ::
         :: HOMO-LUMO gap              5.567548168374 eV    ::
         ::.................................................::
         :: SCC energy             -1291.089157213323 Eh    ::
         :: -> isotropic ES            7.156767564697 Eh    ::
         :: -> anisotropic ES         -1.610993057941 Eh    ::
         :: -> anisotropic XC         -0.128175559097 Eh    ::
         :: -> dispersion             -0.795032007212 Eh    ::
         :: repulsion energy           7.639390861775 Eh    ::
         :: add. restraining           0.000000000000 Eh    ::
         :: total charge              -0.000000000000 e     ::
         :::::::::::::::::::::::::::::::::::::::::::::::::::::

      ----------------------------------------------------------- 
     |                       L-ANC optimizer                     |
      ----------------------------------------------------------- 
          low memory version by Sebastian Ehlert

          ...................................................
          :                      SETUP                      :
          :.................................................:
          :   energy convergence        0.1000000E-05 Eh    :
          :   grad. convergence         0.8000000E-03 Eh/a0 :
          :   optimization log               true           :
          :   writing optlog all                1     steps :
          :   Hessian reset                    20     steps :
          :   maximium step len.        1.0000000     a0    :
          :   LBFGS images                     20           :
          ...................................................
 * calculating model hessian...
Using Lindh-Hessian (1995)
 Shifting diagonal of input Hessian by   1.000016927492652E-002
 Lowest  eigenvalues of input Hessian
    0.010000    0.010000   -0.000000   -0.000000   -0.000000   -0.000000
   -0.000000   -0.000000   -0.000000   -0.000000   -0.000000   -0.000000
   -0.000000   -0.000000   -0.000000   -0.000000   -0.000000   -0.000000
 Highest eigenvalues
    0.304519    0.317339    1.220712    1.248403    1.395199    1.445750
 

........................................................................
.............................. CYCLE    1 ..............................
........................................................................
   1  -1291.0809984 -0.129108E+04  0.402E-02    5.66       0.0  T
   2  -1291.0810229 -0.245290E-04  0.246E-02    5.67       1.0  T
   3  -1291.0810333 -0.103498E-04  0.252E-03    5.68       1.4  T
   4  -1291.0810338 -0.519677E-06  0.658E-04    5.68       5.5  T
   5  -1291.0810338 -0.917316E-08  0.887E-05    5.68      41.0  T
     SCC iter.                  ...        0 min,  3.311 sec
     gradient                   ...        0 min, 12.534 sec
 * total energy  : -1283.2925107 Eh     change       -0.7846628E-03 Eh
   gradient norm :     0.0390534 Eh/a0  converged?    E=F G=F D=F
   step length   :     0.4559023 a0

........................................................................
.............................. CYCLE    2 ..............................
........................................................................
   1  -1291.0883498 -0.129109E+04  0.285E-02    5.61       0.0  T
   2  -1291.0883648 -0.150588E-04  0.172E-02    5.61       1.0  T
   3  -1291.0883703 -0.544204E-05  0.224E-03    5.61       1.6  T
   4  -1291.0883707 -0.417486E-06  0.605E-04    5.61       6.0  T
   5  -1291.0883707 -0.673981E-08  0.705E-05    5.61      51.6  T
     SCC iter.                  ...        0 min,  3.255 sec
     gradient                   ...        0 min, 12.585 sec
 * total energy  : -1283.2943502 Eh     change       -0.1839493E-02 Eh
   gradient norm :     0.0252599 Eh/a0  converged?    E=F G=F D=F
   step length   :     0.3702696 a0

........................................................................
.............................. CYCLE    3 ..............................
........................................................................
   1  -1291.0936417 -0.129109E+04  0.350E-02    5.63       0.0  T
   2  -1291.0936576 -0.158576E-04  0.216E-02    5.62       1.0  T
   3  -1291.0936636 -0.607900E-05  0.209E-03    5.62       1.7  T
   4  -1291.0936641 -0.419789E-06  0.549E-04    5.63       6.6  T
   5  -1291.0936641 -0.389218E-08  0.654E-05    5.63      55.6  T
     SCC iter.                  ...        0 min,  3.128 sec
     gradient                   ...        0 min, 12.617 sec
 * total energy  : -1283.2948475 Eh     change       -0.4972853E-03 Eh
   gradient norm :     0.0145346 Eh/a0  converged?    E=F G=F D=F
   step length   :     0.3803908 a0

........................................................................
.............................. CYCLE    4 ..............................
........................................................................
   1  -1291.0906496 -0.129109E+04  0.154E-02    5.64       0.0  T
   2  -1291.0906538 -0.414408E-05  0.933E-03    5.62       1.0  T
   3  -1291.0906551 -0.134984E-05  0.109E-03    5.61       3.3  T
   4  -1291.0906553 -0.137393E-06  0.310E-04    5.61      11.7  T
   5  -1291.0906553 -0.339151E-08  0.433E-05    5.61      83.9  T
     SCC iter.                  ...        0 min,  3.184 sec
     gradient                   ...        0 min, 12.565 sec
 * total energy  : -1283.2957522 Eh     change       -0.9046682E-03 Eh
   gradient norm :     0.0145361 Eh/a0  converged?    E=F G=F D=F
   step length   :     0.3027924 a0

........................................................................
.............................. CYCLE    5 ..............................
........................................................................
   1  -1291.0895530 -0.129109E+04  0.236E-02    5.64       0.0  T
   2  -1291.0895598 -0.683696E-05  0.145E-02    5.64       1.0  T
   3  -1291.0895628 -0.295343E-05  0.130E-03    5.64       2.8  T
   4  -1291.0895630 -0.159466E-06  0.368E-04    5.65       9.9  T
   5  -1291.0895630 -0.382283E-08  0.536E-05    5.65      67.8  T
     SCC iter.                  ...        0 min,  3.176 sec
     gradient                   ...        0 min, 12.571 sec
 * total energy  : -1283.2959803 Eh     change       -0.2280930E-03 Eh
   gradient norm :     0.0186473 Eh/a0  converged?    E=F G=F D=F
   step length   :     0.3170055 a0

........................................................................
.............................. CYCLE    6 ..............................
........................................................................
   1  -1291.0913653 -0.129109E+04  0.994E-03    5.64       0.0  T
   2  -1291.0913666 -0.137098E-05  0.615E-03    5.64       1.0  T
   3  -1291.0913673 -0.689399E-06  0.603E-04    5.64       6.0  T
   4  -1291.0913674 -0.252128E-07  0.184E-04    5.64      19.7  T
     SCC iter.                  ...        0 min,  2.517 sec
     gradient                   ...        0 min, 12.604 sec
 * total energy  : -1283.2963018 Eh     change       -0.3215043E-03 Eh
   gradient norm :     0.0059799 Eh/a0  converged?    E=F G=F D=F
   step length   :     0.0934794 a0

........................................................................
.............................. CYCLE    7 ..............................
........................................................................
   1  -1291.0896701 -0.129109E+04  0.111E-02    5.64       0.0  T
   2  -1291.0896710 -0.938979E-06  0.677E-03    5.65       1.0  T
   3  -1291.0896715 -0.518408E-06  0.534E-04    5.65       6.8  T
   4  -1291.0896715 -0.180034E-07  0.180E-04    5.65      20.2  T
     SCC iter.                  ...        0 min,  2.469 sec
     gradient                   ...        0 min, 12.685 sec
 * total energy  : -1283.2964512 Eh     change       -0.1494685E-03 Eh
   gradient norm :     0.0128573 Eh/a0  converged?    E=F G=F D=F
   step length   :     0.1468069 a0

........................................................................
.............................. CYCLE    8 ..............................
........................................................................
   1  -1291.0898588 -0.129109E+04  0.113E-02    5.68       0.0  T
   2  -1291.0898600 -0.126796E-05  0.687E-03    5.69       1.0  T
   3  -1291.0898605 -0.448297E-06  0.593E-04    5.70       6.1  T
   4  -1291.0898605 -0.420605E-07  0.188E-04    5.70      19.4  T
     SCC iter.                  ...        0 min,  2.460 sec
     gradient                   ...        0 min, 12.663 sec
 * total energy  : -1283.2966807 Eh     change       -0.2294292E-03 Eh
   gradient norm :     0.0149910 Eh/a0  converged?    E=F G=F D=F
   step length   :     0.1965902 a0

........................................................................
.............................. CYCLE    9 ..............................
........................................................................
   1  -1291.0899079 -0.129109E+04  0.140E-02    5.74       0.0  T
   2  -1291.0899099 -0.203590E-05  0.853E-03    5.75       1.0  T
   3  -1291.0899106 -0.669748E-06  0.768E-04    5.77       4.7  T
   4  -1291.0899107 -0.740658E-07  0.232E-04    5.76      15.6  T
     SCC iter.                  ...        0 min,  2.506 sec
     gradient                   ...        0 min, 12.695 sec
 * total energy  : -1283.2970318 Eh     change       -0.3511374E-03 Eh
   gradient norm :     0.0131008 Eh/a0  converged?    E=F G=F D=F
   step length   :     0.2677816 a0

........................................................................
.............................. CYCLE   10 ..............................
........................................................................
   1  -1291.0933747 -0.129109E+04  0.125E-02    5.83       0.0  T
   2  -1291.0933774 -0.269066E-05  0.767E-03    5.85       1.0  T
   3  -1291.0933783 -0.904957E-06  0.884E-04    5.88       4.1  T
   4  -1291.0933784 -0.923103E-07  0.269E-04    5.87      13.5  T
     SCC iter.                  ...        0 min,  2.478 sec
     gradient                   ...        0 min, 12.684 sec
 * total energy  : -1283.2972613 Eh     change       -0.2295506E-03 Eh
   gradient norm :     0.0078140 Eh/a0  converged?    E=F G=F D=F
   step length   :     0.2440793 a0

........................................................................
.............................. CYCLE   11 ..............................
........................................................................
   1  -1291.0886216 -0.129109E+04  0.176E-02    5.88       0.0  T
   2  -1291.0886253 -0.368937E-05  0.107E-02    5.90       1.0  T
   3  -1291.0886264 -0.108731E-05  0.103E-03    5.91       3.5  T
   4  -1291.0886265 -0.134870E-06  0.297E-04    5.91      12.2  T
   5  -1291.0886265 -0.323007E-08  0.411E-05    5.91      88.5  T
     SCC iter.                  ...        0 min,  3.059 sec
     gradient                   ...        0 min, 12.648 sec
 * total energy  : -1283.2972681 Eh     change       -0.6730954E-05 Eh
   gradient norm :     0.0151496 Eh/a0  converged?    E=F G=F D=F
   step length   :     0.2712186 a0

........................................................................
.............................. CYCLE   12 ..............................
........................................................................
   1  -1291.0941325 -0.129109E+04  0.108E-02    5.88       0.0  T
   2  -1291.0941351 -0.265008E-05  0.667E-03    5.87       1.0  T
   3  -1291.0941364 -0.128958E-05  0.918E-04    5.85       4.0  T
   4  -1291.0941365 -0.626369E-07  0.300E-04    5.85      12.1  T
   5  -1291.0941365 -0.289242E-08  0.276E-05    5.85     131.6  T
     SCC iter.                  ...        0 min,  2.982 sec
     gradient                   ...        0 min, 12.667 sec
 * total energy  : -1283.2972477 Eh     change        0.2041786E-04 Eh
   gradient norm :     0.0179882 Eh/a0  converged?    E=F G=F D=F
   step length   :     0.1496636 a0

........................................................................
.............................. CYCLE   13 ..............................
........................................................................
   1  -1291.0939658 -0.129109E+04  0.737E-03    5.87       0.0  T
   2  -1291.0939668 -0.985407E-06  0.447E-03    5.87       1.0  T
   3  -1291.0939673 -0.487293E-06  0.573E-04    5.87       6.3  T
   4  -1291.0939673 -0.198945E-07  0.181E-04    5.87      20.1  T
     SCC iter.                  ...        0 min,  2.387 sec
     gradient                   ...        0 min, 12.646 sec
 * total energy  : -1283.2974053 Eh     change       -0.1576867E-03 Eh
   gradient norm :     0.0063116 Eh/a0  converged?    E=F G=F D=F
   step length   :     0.0999808 a0

........................................................................
.............................. CYCLE   14 ..............................
........................................................................
   1  -1291.0924307 -0.129109E+04  0.732E-03    5.87       0.0  T
   2  -1291.0924312 -0.504728E-06  0.442E-03    5.88       1.0  T
   3  -1291.0924314 -0.129294E-06  0.381E-04    5.88       9.5  T
   4  -1291.0924314 -0.193220E-07  0.101E-04    5.88      36.2  T
     SCC iter.                  ...        0 min,  2.374 sec
     gradient                   ...        0 min, 12.700 sec
 * total energy  : -1283.2974736 Eh     change       -0.6827878E-04 Eh
   gradient norm :     0.0026595 Eh/a0  converged?    E=F G=F D=F
   step length   :     0.1099977 a0

........................................................................
.............................. CYCLE   15 ..............................
........................................................................
   1  -1291.0925748 -0.129109E+04  0.359E-03    5.88       0.0  T
   2  -1291.0925748 -0.626883E-07  0.217E-03    5.89       1.7  T
   3  -1291.0925748 -0.182670E-07  0.125E-04    5.89      29.2  T
   4  -1291.0925748 -0.221166E-08  0.347E-05    5.89     105.0  T
     SCC iter.                  ...        0 min,  2.375 sec
     gradient                   ...        0 min, 12.680 sec
 * total energy  : -1283.2974967 Eh     change       -0.2307331E-04 Eh
   gradient norm :     0.0031875 Eh/a0  converged?    E=F G=F D=F
   step length   :     0.0534706 a0

........................................................................
.............................. CYCLE   16 ..............................
........................................................................
   1  -1291.0930289 -0.129109E+04  0.846E-03    5.89       0.0  T
   2  -1291.0930292 -0.321714E-06  0.512E-03    5.89       1.0  T
   3  -1291.0930293 -0.102540E-06  0.289E-04    5.90      12.6  T
   4  -1291.0930294 -0.107950E-07  0.843E-05    5.90      43.1  T
     SCC iter.                  ...        0 min,  2.382 sec
     gradient                   ...        0 min, 12.641 sec
 * total energy  : -1283.2975416 Eh     change       -0.4489701E-04 Eh
   gradient norm :     0.0029665 Eh/a0  converged?    E=F G=F D=F
   step length   :     0.1322935 a0

........................................................................
.............................. CYCLE   17 ..............................
........................................................................
   1  -1291.0934021 -0.129109E+04  0.715E-03    5.90       0.0  T
   2  -1291.0934024 -0.287601E-06  0.433E-03    5.90       1.0  T
   3  -1291.0934025 -0.738739E-07  0.268E-04    5.91      13.6  T
   4  -1291.0934025 -0.100829E-07  0.649E-05    5.91      56.0  T
     SCC iter.                  ...        0 min,  2.395 sec
     gradient                   ...        0 min, 12.673 sec
 * total energy  : -1283.2975696 Eh     change       -0.2804720E-04 Eh
   gradient norm :     0.0037644 Eh/a0  converged?    E=F G=F D=F
   step length   :     0.1218582 a0

........................................................................
.............................. CYCLE   18 ..............................
........................................................................
   1  -1291.0934694 -0.129109E+04  0.706E-03    5.90       0.0  T
   2  -1291.0934696 -0.241157E-06  0.426E-03    5.90       1.0  T
   3  -1291.0934697 -0.567941E-07  0.242E-04    5.91      15.0  T
   4  -1291.0934697 -0.894852E-08  0.558E-05    5.91      65.2  T
     SCC iter.                  ...        0 min,  2.383 sec
     gradient                   ...        0 min, 12.625 sec
 * total energy  : -1283.2975980 Eh     change       -0.2839812E-04 Eh
   gradient norm :     0.0016924 Eh/a0  converged?    E=F G=F D=F
   step length   :     0.1155033 a0

........................................................................
.............................. CYCLE   19 ..............................
........................................................................
   1  -1291.0922180 -0.129109E+04  0.165E-02    5.89       0.0  T
   2  -1291.0922195 -0.146025E-05  0.997E-03    5.90       1.0  T
   3  -1291.0922198 -0.356212E-06  0.606E-04    5.90       6.0  T
   4  -1291.0922199 -0.526666E-07  0.140E-04    5.90      25.9  T
     SCC iter.                  ...        0 min,  2.402 sec
     gradient                   ...        0 min, 12.571 sec
 * total energy  : -1283.2976094 Eh     change       -0.1132479E-04 Eh
   gradient norm :     0.0075601 Eh/a0  converged?    E=F G=F D=F
   step length   :     0.2624128 a0

........................................................................
.............................. CYCLE   20 ..............................
........................................................................
   1  -1291.0941587 -0.129109E+04  0.392E-03    5.91       0.0  T
   2  -1291.0941589 -0.154548E-06  0.235E-03    5.91       1.5  T
   3  -1291.0941589 -0.531550E-07  0.219E-04    5.90      16.6  T
   4  -1291.0941589 -0.437353E-08  0.667E-05    5.91      54.6  T
     SCC iter.                  ...        0 min,  2.389 sec
     gradient                   ...        0 min, 12.461 sec
 * total energy  : -1283.2976260 Eh     change       -0.1661879E-04 Eh
   gradient norm :     0.0049228 Eh/a0  converged?    E=F G=F D=F
   step length   :     0.0581903 a0
 * RMSD in coord.:     0.0735626 a0     energy gain  -0.5899930E-02 Eh
 * calculating model hessian...
Using Lindh-Hessian (1995)
 Shifting diagonal of input Hessian by   1.000001042003372E-002
 Lowest  eigenvalues of input Hessian
    0.010000   -0.000000   -0.000000   -0.000000   -0.000000   -0.000000
   -0.000000   -0.000000   -0.000000   -0.000000   -0.000000   -0.000000
   -0.000000   -0.000000   -0.000000   -0.000000   -0.000000   -0.000000
 Highest eigenvalues
    0.289416    0.316809    1.239806    1.279365    1.343847    1.431844
 

........................................................................
.............................. CYCLE   21 ..............................
........................................................................
   1  -1291.0936339 -0.129109E+04  0.646E-03    5.90       0.0  T
   2  -1291.0936343 -0.401156E-06  0.399E-03    5.90       1.0  T
   3  -1291.0936345 -0.192192E-06  0.308E-04    5.89      11.8  T
   4  -1291.0936345 -0.668729E-08  0.877E-05    5.89      41.5  T
     SCC iter.                  ...        0 min,  2.431 sec
     gradient                   ...        0 min, 12.582 sec
 * total energy  : -1283.2977252 Eh     change       -0.9918319E-04 Eh
   gradient norm :     0.0027571 Eh/a0  converged?    E=F G=F D=F
   step length   :     0.0788758 a0

........................................................................
.............................. CYCLE   22 ..............................
........................................................................
   1  -1291.0929791 -0.129109E+04  0.796E-03    5.87       0.0  T
   2  -1291.0929796 -0.474678E-06  0.488E-03    5.87       1.0  T
   3  -1291.0929798 -0.228258E-06  0.359E-04    5.87      10.1  T
   4  -1291.0929798 -0.903310E-08  0.109E-04    5.87      33.5  T
     SCC iter.                  ...        0 min,  2.420 sec
     gradient                   ...        0 min, 12.569 sec
 * total energy  : -1283.2978149 Eh     change       -0.8973152E-04 Eh
   gradient norm :     0.0039095 Eh/a0  converged?    E=F G=F D=F
   step length   :     0.1217263 a0

........................................................................
.............................. CYCLE   23 ..............................
........................................................................
   1  -1291.0920957 -0.129109E+04  0.115E-02    5.83       0.0  T
   2  -1291.0920967 -0.103582E-05  0.698E-03    5.82       1.0  T
   3  -1291.0920971 -0.386133E-06  0.562E-04    5.82       6.5  T
   4  -1291.0920972 -0.335053E-07  0.180E-04    5.82      20.2  T
     SCC iter.                  ...        0 min,  2.406 sec
     gradient                   ...        0 min, 12.514 sec
 * total energy  : -1283.2979097 Eh     change       -0.9476602E-04 Eh
   gradient norm :     0.0080987 Eh/a0  converged?    E=F G=F D=F
   step length   :     0.2142332 a0

........................................................................
.............................. CYCLE   24 ..............................
........................................................................
   1  -1291.0926856 -0.129109E+04  0.711E-03    5.80       0.0  T
   2  -1291.0926861 -0.414855E-06  0.430E-03    5.80       1.0  T
   3  -1291.0926862 -0.117595E-06  0.339E-04    5.80      10.7  T
   4  -1291.0926862 -0.153107E-07  0.937E-05    5.80      38.8  T
     SCC iter.                  ...        0 min,  2.395 sec
     gradient                   ...        0 min, 12.550 sec
 * total energy  : -1283.2980022 Eh     change       -0.9252567E-04 Eh
   gradient norm :     0.0069983 Eh/a0  converged?    E=F G=F D=F
   step length   :     0.1340992 a0

........................................................................
.............................. CYCLE   25 ..............................
........................................................................
   1  -1291.0920827 -0.129109E+04  0.176E-02    5.74       0.0  T
   2  -1291.0920853 -0.265124E-05  0.106E-02    5.74       1.0  T
   3  -1291.0920862 -0.935483E-06  0.902E-04    5.73       4.0  T
   4  -1291.0920863 -0.906191E-07  0.288E-04    5.73      12.6  T
     SCC iter.                  ...        0 min,  2.385 sec
     gradient                   ...        0 min, 12.510 sec
 * total energy  : -1283.2981844 Eh     change       -0.1821912E-03 Eh
   gradient norm :     0.0095202 Eh/a0  converged?    E=F G=F D=F
   step length   :     0.3469655 a0

........................................................................
.............................. CYCLE   26 ..............................
........................................................................
   1  -1291.0949573 -0.129109E+04  0.176E-02    5.72       0.0  T
   2  -1291.0949595 -0.214484E-05  0.106E-02    5.72       1.0  T
   3  -1291.0949601 -0.581554E-06  0.767E-04    5.73       4.7  T
   4  -1291.0949601 -0.764435E-07  0.207E-04    5.73      17.6  T
     SCC iter.                  ...        0 min,  2.375 sec
     gradient                   ...        0 min, 12.484 sec
 * total energy  : -1283.2984676 Eh     change       -0.2831849E-03 Eh
   gradient norm :     0.0079099 Eh/a0  converged?    E=F G=F D=F
   step length   :     0.3646815 a0

........................................................................
.............................. CYCLE   27 ..............................
........................................................................
   1  -1291.0872010 -0.129109E+04  0.251E-02    5.65       0.0  T
   2  -1291.0872064 -0.532656E-05  0.151E-02    5.64       1.0  T
   3  -1291.0872081 -0.177463E-05  0.130E-03    5.63       2.8  T
   4  -1291.0872083 -0.177582E-06  0.414E-04    5.63       8.8  T
   5  -1291.0872083 -0.564455E-08  0.537E-05    5.63      67.7  T
     SCC iter.                  ...        0 min,  2.957 sec
     gradient                   ...        0 min, 12.399 sec
 * total energy  : -1283.2981428 Eh     change        0.3247286E-03 Eh
   gradient norm :     0.0292173 Eh/a0  converged?    E=F G=F D=F
   step length   :     0.4998543 a0

........................................................................
.............................. CYCLE   28 ..............................
........................................................................
   1  -1291.0959089 -0.129110E+04  0.149E-02    5.70       0.0  T
   2  -1291.0959121 -0.321633E-05  0.884E-03    5.71       1.0  T
   3  -1291.0959132 -0.104027E-05  0.104E-03    5.72       3.5  T
   4  -1291.0959133 -0.941975E-07  0.326E-04    5.72      11.2  T
   5  -1291.0959133 -0.274940E-08  0.311E-05    5.72     116.8  T
     SCC iter.                  ...        0 min,  2.913 sec
     gradient                   ...        0 min, 12.451 sec
 * total energy  : -1283.2986798 Eh     change       -0.5370119E-03 Eh
   gradient norm :     0.0110149 Eh/a0  converged?    E=F G=F D=F
   step length   :     0.2791726 a0

........................................................................
.............................. CYCLE   29 ..............................
........................................................................
   1  -1291.0961587 -0.129110E+04  0.893E-03    5.74       0.0  T
   2  -1291.0961596 -0.849298E-06  0.545E-03    5.75       1.0  T
   3  -1291.0961601 -0.490036E-06  0.538E-04    5.76       6.8  T
   4  -1291.0961601 -0.134676E-07  0.168E-04    5.76      21.7  T
     SCC iter.                  ...        0 min,  2.371 sec
     gradient                   ...        0 min, 12.316 sec
 * total energy  : -1283.2989004 Eh     change       -0.2205451E-03 Eh
   gradient norm :     0.0087876 Eh/a0  converged?    E=F G=F D=F
   step length   :     0.1236432 a0

........................................................................
.............................. CYCLE   30 ..............................
........................................................................
   1  -1291.0924653 -0.129109E+04  0.157E-02    5.74       0.0  T
   2  -1291.0924660 -0.708051E-06  0.944E-03    5.75       1.0  T
   3  -1291.0924662 -0.223960E-06  0.439E-04    5.75       8.3  T
   4  -1291.0924662 -0.214177E-07  0.127E-04    5.75      28.7  T
     SCC iter.                  ...        0 min,  2.349 sec
     gradient                   ...        0 min, 12.293 sec
 * total energy  : -1283.2990814 Eh     change       -0.1809931E-03 Eh
   gradient norm :     0.0152596 Eh/a0  converged?    E=F G=F D=F
   step length   :     0.3084870 a0

........................................................................
.............................. CYCLE   31 ..............................
........................................................................
   1  -1291.0922589 -0.129109E+04  0.884E-03    5.75       0.0  T
   2  -1291.0922598 -0.876232E-06  0.532E-03    5.76       1.0  T
   3  -1291.0922602 -0.386707E-06  0.522E-04    5.76       7.0  T
   4  -1291.0922602 -0.218829E-07  0.179E-04    5.76      20.4  T
     SCC iter.                  ...        0 min,  2.370 sec
     gradient                   ...        0 min, 12.339 sec
 * total energy  : -1283.2991273 Eh     change       -0.4593609E-04 Eh
   gradient norm :     0.0215243 Eh/a0  converged?    E=F G=F D=F
   step length   :     0.1622946 a0

........................................................................
.............................. CYCLE   32 ..............................
........................................................................
   1  -1291.0969968 -0.129110E+04  0.816E-03    5.80       0.0  T
   2  -1291.0969985 -0.167669E-05  0.479E-03    5.81       1.0  T
   3  -1291.0969990 -0.557046E-06  0.750E-04    5.82       4.9  T
   4  -1291.0969991 -0.491686E-07  0.244E-04    5.82      14.9  T
     SCC iter.                  ...        0 min,  2.374 sec
     gradient                   ...        0 min, 12.334 sec
 * total energy  : -1283.2993500 Eh     change       -0.2226606E-03 Eh
   gradient norm :     0.0092177 Eh/a0  converged?    E=F G=F D=F
   step length   :     0.1121854 a0

........................................................................
.............................. CYCLE   33 ..............................
........................................................................
   1  -1291.0931417 -0.129109E+04  0.159E-02    5.82       0.0  T
   2  -1291.0931426 -0.879926E-06  0.955E-03    5.83       1.0  T
   3  -1291.0931430 -0.395139E-06  0.511E-04    5.84       7.1  T
   4  -1291.0931430 -0.177138E-07  0.166E-04    5.83      22.0  T
     SCC iter.                  ...        0 min,  2.358 sec
     gradient                   ...        0 min, 12.325 sec
 * total energy  : -1283.2995531 Eh     change       -0.2030910E-03 Eh
   gradient norm :     0.0140063 Eh/a0  converged?    E=F G=F D=F
   step length   :     0.3362667 a0

........................................................................
.............................. CYCLE   34 ..............................
........................................................................
   1  -1291.0946021 -0.129109E+04  0.431E-03    5.85       0.0  T
   2  -1291.0946025 -0.424579E-06  0.262E-03    5.85       1.4  T
   3  -1291.0946027 -0.227099E-06  0.373E-04    5.85       9.8  T
   4  -1291.0946027 -0.892715E-08  0.128E-04    5.85      28.5  T
     SCC iter.                  ...        0 min,  2.382 sec
     gradient                   ...        0 min, 12.353 sec
 * total energy  : -1283.2996896 Eh     change       -0.1365728E-03 Eh
   gradient norm :     0.0101689 Eh/a0  converged?    E=F G=F D=F
   step length   :     0.0443713 a0

........................................................................
.............................. CYCLE   35 ..............................
........................................................................
   1  -1291.0969165 -0.129110E+04  0.802E-03    5.86       0.0  T
   2  -1291.0969175 -0.977876E-06  0.487E-03    5.87       1.0  T
   3  -1291.0969180 -0.553873E-06  0.581E-04    5.87       6.3  T
   4  -1291.0969180 -0.159121E-07  0.171E-04    5.87      21.3  T
     SCC iter.                  ...        0 min,  2.385 sec
     gradient                   ...        0 min, 12.354 sec
 * total energy  : -1283.2995857 Eh     change        0.1039880E-03 Eh
   gradient norm :     0.0213384 Eh/a0  converged?    E=F G=F D=F
   step length   :     0.1150785 a0

........................................................................
.............................. CYCLE   36 ..............................
........................................................................
   1  -1291.0934711 -0.129109E+04  0.112E-02    5.88       0.0  T
   2  -1291.0934720 -0.848765E-06  0.672E-03    5.88       1.0  T
   3  -1291.0934723 -0.328164E-06  0.505E-04    5.88       7.2  T
   4  -1291.0934723 -0.222608E-07  0.171E-04    5.88      21.3  T
     SCC iter.                  ...        0 min,  2.383 sec
     gradient                   ...        0 min, 12.298 sec
 * total energy  : -1283.2998858 Eh     change       -0.3001498E-03 Eh
   gradient norm :     0.0116527 Eh/a0  converged?    E=F G=F D=F
   step length   :     0.2215509 a0

........................................................................
.............................. CYCLE   37 ..............................
........................................................................
   1  -1291.0964899 -0.129110E+04  0.557E-03    5.90       0.0  T
   2  -1291.0964904 -0.478432E-06  0.331E-03    5.90       1.1  T
   3  -1291.0964906 -0.230139E-06  0.408E-04    5.90       8.9  T
   4  -1291.0964907 -0.109935E-07  0.141E-04    5.90      25.7  T
     SCC iter.                  ...        0 min,  2.379 sec
     gradient                   ...        0 min, 12.310 sec
 * total energy  : -1283.2998953 Eh     change       -0.9509454E-05 Eh
   gradient norm :     0.0082600 Eh/a0  converged?    E=F G=F D=F
   step length   :     0.0584629 a0

........................................................................
.............................. CYCLE   38 ..............................
........................................................................
   1  -1291.0949955 -0.129109E+04  0.810E-03    5.91       0.0  T
   2  -1291.0949957 -0.176751E-06  0.487E-03    5.91       1.0  T
   3  -1291.0949958 -0.909149E-07  0.232E-04    5.91      15.7  T
   4  -1291.0949958 -0.260957E-08  0.729E-05    5.91      49.9  T
     SCC iter.                  ...        0 min,  2.383 sec
     gradient                   ...        0 min, 12.337 sec
 * total energy  : -1283.3000298 Eh     change       -0.1345180E-03 Eh
   gradient norm :     0.0062291 Eh/a0  converged?    E=F G=F D=F
   step length   :     0.1762537 a0

........................................................................
.............................. CYCLE   39 ..............................
........................................................................
   1  -1291.0938157 -0.129109E+04  0.811E-03    5.91       0.0  T
   2  -1291.0938159 -0.258591E-06  0.489E-03    5.91       1.0  T
   3  -1291.0938161 -0.138028E-06  0.281E-04    5.90      12.9  T
   4  -1291.0938161 -0.448563E-08  0.935E-05    5.90      38.9  T
     SCC iter.                  ...        0 min,  2.380 sec
     gradient                   ...        0 min, 12.304 sec
 * total energy  : -1283.3000836 Eh     change       -0.5379078E-04 Eh
   gradient norm :     0.0104451 Eh/a0  converged?    E=F G=F D=F
   step length   :     0.1702351 a0

........................................................................
.............................. CYCLE   40 ..............................
........................................................................
   1  -1291.0953723 -0.129110E+04  0.204E-03    5.91       0.0  T
   2  -1291.0953724 -0.108764E-06  0.119E-03    5.90       3.1  T
   3  -1291.0953724 -0.230627E-07  0.189E-04    5.90      19.2  T
   4  -1291.0953724 -0.315708E-08  0.477E-05    5.90      76.3  T
     SCC iter.                  ...        0 min,  2.382 sec
     gradient                   ...        0 min, 12.281 sec
 * total energy  : -1283.3001476 Eh     change       -0.6392622E-04 Eh
   gradient norm :     0.0059631 Eh/a0  converged?    E=F G=F D=F
   step length   :     0.0357752 a0

........................................................................
.............................. CYCLE   41 ..............................
........................................................................
   1  -1291.0956784 -0.129110E+04  0.889E-03    5.91       0.0  T
   2  -1291.0956788 -0.413050E-06  0.535E-03    5.91       1.0  T
   3  -1291.0956789 -0.838493E-07  0.326E-04    5.90      11.2  T
   4  -1291.0956789 -0.160544E-07  0.662E-05    5.90      54.9  T
     SCC iter.                  ...        0 min,  2.385 sec
     gradient                   ...        0 min, 12.300 sec
 * total energy  : -1283.3002223 Eh     change       -0.7476677E-04 Eh
   gradient norm :     0.0046018 Eh/a0  converged?    E=F G=F D=F
   step length   :     0.1877502 a0

........................................................................
.............................. CYCLE   42 ..............................
........................................................................
   1  -1291.0964953 -0.129110E+04  0.580E-03    5.89       0.0  T
   2  -1291.0964960 -0.707875E-06  0.349E-03    5.88       1.0  T
   3  -1291.0964962 -0.200148E-06  0.488E-04    5.87       7.5  T
   4  -1291.0964963 -0.235661E-07  0.129E-04    5.87      28.2  T
     SCC iter.                  ...        0 min,  2.379 sec
     gradient                   ...        0 min, 12.220 sec
 * total energy  : -1283.3002402 Eh     change       -0.1789460E-04 Eh
   gradient norm :     0.0052534 Eh/a0  converged?    E=F G=F D=F
   step length   :     0.1194849 a0
 * RMSD in coord.:     0.1009341 a0     energy gain  -0.2614232E-02 Eh
 * calculating model hessian...
Using Lindh-Hessian (1995)
 Shifting diagonal of input Hessian by   1.000000130184075E-002
 Lowest  eigenvalues of input Hessian
    0.010000   -0.000000   -0.000000   -0.000000   -0.000000   -0.000000
   -0.000000   -0.000000   -0.000000   -0.000000   -0.000000   -0.000000
   -0.000000   -0.000000   -0.000000   -0.000000   -0.000000   -0.000000
 Highest eigenvalues
    0.296634    0.310079    1.247771    1.253993    1.372381    1.413151
 

........................................................................
.............................. CYCLE   43 ..............................
........................................................................
   1  -1291.0963072 -0.129110E+04  0.704E-03    5.86       0.0  T
   2  -1291.0963078 -0.638424E-06  0.431E-03    5.86       1.0  T
   3  -1291.0963081 -0.276431E-06  0.407E-04    5.86       8.9  T
   4  -1291.0963081 -0.155740E-07  0.127E-04    5.86      28.7  T
     SCC iter.                  ...        0 min,  2.307 sec
     gradient                   ...        0 min, 12.406 sec
 * total energy  : -1283.3004247 Eh     change       -0.1844692E-03 Eh
   gradient norm :     0.0029665 Eh/a0  converged?    E=F G=F D=F
   step length   :     0.1253905 a0

........................................................................
.............................. CYCLE   44 ..............................
........................................................................
   1  -1291.0946271 -0.129109E+04  0.135E-02    5.82       0.0  T
   2  -1291.0946289 -0.183440E-05  0.816E-03    5.81       1.0  T
   3  -1291.0946295 -0.588805E-06  0.736E-04    5.80       4.9  T
   4  -1291.0946295 -0.640373E-07  0.231E-04    5.81      15.8  T
     SCC iter.                  ...        0 min,  2.379 sec
     gradient                   ...        0 min, 12.312 sec
 * total energy  : -1283.3005863 Eh     change       -0.1616311E-03 Eh
   gradient norm :     0.0084278 Eh/a0  converged?    E=F G=F D=F
   step length   :     0.2975472 a0

........................................................................
.............................. CYCLE   45 ..............................
........................................................................
   1  -1291.0958581 -0.129110E+04  0.331E-03    5.81       0.0  T
   2  -1291.0958583 -0.184169E-06  0.201E-03    5.81       1.8  T
   3  -1291.0958584 -0.697546E-07  0.234E-04    5.81      15.5  T
   4  -1291.0958584 -0.493787E-08  0.700E-05    5.81      52.0  T
     SCC iter.                  ...        0 min,  2.383 sec
     gradient                   ...        0 min, 12.307 sec
 * total energy  : -1283.3006568 Eh     change       -0.7046758E-04 Eh
   gradient norm :     0.0043060 Eh/a0  converged?    E=F G=F D=F
   step length   :     0.0527616 a0

........................................................................
.............................. CYCLE   46 ..............................
........................................................................
   1  -1291.0969341 -0.129110E+04  0.640E-03    5.81       0.0  T
   2  -1291.0969345 -0.381164E-06  0.388E-03    5.81       1.0  T
   3  -1291.0969346 -0.137714E-06  0.322E-04    5.80      11.3  T
   4  -1291.0969346 -0.111452E-07  0.942E-05    5.80      38.6  T
     SCC iter.                  ...        0 min,  2.379 sec
     gradient                   ...        0 min, 12.344 sec
 * total energy  : -1283.3007400 Eh     change       -0.8326653E-04 Eh
   gradient norm :     0.0031161 Eh/a0  converged?    E=F G=F D=F
   step length   :     0.1161678 a0

........................................................................
.............................. CYCLE   47 ..............................
........................................................................
   1  -1291.0950927 -0.129110E+04  0.155E-02    5.77       0.0  T
   2  -1291.0950943 -0.153075E-05  0.932E-03    5.76       1.0  T
   3  -1291.0950946 -0.340589E-06  0.612E-04    5.74       5.9  T
   4  -1291.0950947 -0.575744E-07  0.140E-04    5.74      26.0  T
     SCC iter.                  ...        0 min,  2.376 sec
     gradient                   ...        0 min, 12.354 sec
 * total energy  : -1283.3007916 Eh     change       -0.5159644E-04 Eh
   gradient norm :     0.0099633 Eh/a0  converged?    E=F G=F D=F
   step length   :     0.2867394 a0

........................................................................
.............................. CYCLE   48 ..............................
........................................................................
   1  -1291.0965152 -0.129110E+04  0.562E-03    5.76       0.0  T
   2  -1291.0965158 -0.635065E-06  0.343E-03    5.76       1.1  T
   3  -1291.0965161 -0.354357E-06  0.468E-04    5.76       7.8  T
   4  -1291.0965162 -0.126770E-07  0.153E-04    5.76      23.8  T
     SCC iter.                  ...        0 min,  2.382 sec
     gradient                   ...        0 min, 12.312 sec
 * total energy  : -1283.3008168 Eh     change       -0.2518303E-04 Eh
   gradient norm :     0.0078766 Eh/a0  converged?    E=F G=F D=F
   step length   :     0.0657824 a0

........................................................................
.............................. CYCLE   49 ..............................
........................................................................
   1  -1291.0971729 -0.129110E+04  0.560E-03    5.77       0.0  T
   2  -1291.0971734 -0.437721E-06  0.340E-03    5.77       1.1  T
   3  -1291.0971736 -0.169026E-06  0.344E-04    5.78      10.6  T
   4  -1291.0971736 -0.106431E-07  0.967E-05    5.78      37.6  T
     SCC iter.                  ...        0 min,  2.352 sec
     gradient                   ...        0 min, 12.308 sec
 * total energy  : -1283.3008695 Eh     change       -0.5262847E-04 Eh
   gradient norm :     0.0037356 Eh/a0  converged?    E=F G=F D=F
   step length   :     0.0727059 a0

........................................................................
.............................. CYCLE   50 ..............................
........................................................................
   1  -1291.0955554 -0.129110E+04  0.918E-03    5.76       0.0  T
   2  -1291.0955558 -0.491324E-06  0.553E-03    5.75       1.0  T
   3  -1291.0955560 -0.106030E-06  0.349E-04    5.74      10.4  T
   4  -1291.0955560 -0.186337E-07  0.792E-05    5.74      45.9  T
     SCC iter.                  ...        0 min,  2.343 sec
     gradient                   ...        0 min, 12.305 sec
 * total energy  : -1283.3009071 Eh     change       -0.3766890E-04 Eh
   gradient norm :     0.0068197 Eh/a0  converged?    E=F G=F D=F
   step length   :     0.1524565 a0

........................................................................
.............................. CYCLE   51 ..............................
........................................................................
   1  -1291.0961137 -0.129110E+04  0.180E-03    5.74       0.0  T
   2  -1291.0961138 -0.736143E-07  0.107E-03    5.74       3.4  T
   3  -1291.0961138 -0.209316E-07  0.157E-04    5.73      23.2  T
   4  -1291.0961138 -0.237196E-08  0.435E-05    5.73      83.6  T
     SCC iter.                  ...        0 min,  2.329 sec
     gradient                   ...        0 min, 12.119 sec
 * total energy  : -1283.3009355 Eh     change       -0.2836031E-04 Eh
   gradient norm :     0.0030117 Eh/a0  converged?    E=F G=F D=F
   step length   :     0.0279065 a0

........................................................................
.............................. CYCLE   52 ..............................
........................................................................
   1  -1291.0962808 -0.129110E+04  0.699E-03    5.73       0.0  T
   2  -1291.0962812 -0.374717E-06  0.422E-03    5.73       1.0  T
   3  -1291.0962813 -0.866380E-07  0.326E-04    5.72      11.2  T
   4  -1291.0962813 -0.142857E-07  0.736E-05    5.72      49.4  T
     SCC iter.                  ...        0 min,  2.313 sec
     gradient                   ...        0 min, 12.088 sec
 * total energy  : -1283.3009688 Eh     change       -0.3328268E-04 Eh
   gradient norm :     0.0026243 Eh/a0  converged?    E=F G=F D=F
   step length   :     0.1119407 a0

........................................................................
.............................. CYCLE   53 ..............................
........................................................................
   1  -1291.0964345 -0.129110E+04  0.635E-03    5.72       0.0  T
   2  -1291.0964348 -0.292528E-06  0.384E-03    5.71       1.0  T
   3  -1291.0964349 -0.686944E-07  0.279E-04    5.70      13.0  T
   4  -1291.0964349 -0.109076E-07  0.602E-05    5.71      60.5  T
     SCC iter.                  ...        0 min,  2.313 sec
     gradient                   ...        0 min, 12.085 sec
 * total energy  : -1283.3009872 Eh     change       -0.1838724E-04 Eh
   gradient norm :     0.0018593 Eh/a0  converged?    E=F G=F D=F
   step length   :     0.1002815 a0

........................................................................
.............................. CYCLE   54 ..............................
........................................................................
   1  -1291.0970997 -0.129110E+04  0.317E-03    5.71       0.0  T
   2  -1291.0970998 -0.108638E-06  0.191E-03    5.71       1.9  T
   3  -1291.0970998 -0.281932E-07  0.180E-04    5.71      20.2  T
   4  -1291.0970998 -0.381101E-08  0.430E-05    5.71      84.6  T
     SCC iter.                  ...        0 min,  2.319 sec
     gradient                   ...        0 min, 12.083 sec
 * total energy  : -1283.3009917 Eh     change       -0.4527481E-05 Eh
   gradient norm :     0.0012798 Eh/a0  converged?    E=F G=F D=F
   step length   :     0.0499651 a0

........................................................................
.............................. CYCLE   55 ..............................
........................................................................
   1  -1291.0960812 -0.129110E+04  0.662E-03    5.70       0.0  T
   2  -1291.0960815 -0.344372E-06  0.397E-03    5.70       1.0  T
   3  -1291.0960816 -0.586856E-07  0.296E-04    5.69      12.3  T
   4  -1291.0960816 -0.139339E-07  0.541E-05    5.69      67.2  T
     SCC iter.                  ...        0 min,  2.320 sec
     gradient                   ...        0 min, 12.087 sec
 * total energy  : -1283.3009857 Eh     change        0.5966782E-05 Eh
   gradient norm :     0.0029984 Eh/a0  converged?    E=F G=F D=F
   step length   :     0.1025980 a0

........................................................................
.............................. CYCLE   56 ..............................
........................................................................
   1  -1291.0966863 -0.129110E+04  0.362E-03    5.69       0.0  T
   2  -1291.0966864 -0.897287E-07  0.219E-03    5.70       1.7  T
   3  -1291.0966864 -0.250602E-07  0.155E-04    5.70      23.4  T
   4  -1291.0966864 -0.306864E-08  0.412E-05    5.70      88.3  T
     SCC iter.                  ...        0 min,  2.317 sec
     gradient                   ...        0 min, 12.094 sec
 * total energy  : -1283.3009950 Eh     change       -0.9252355E-05 Eh
   gradient norm :     0.0010519 Eh/a0  converged?    E=F G=F D=F
   step length   :     0.0543137 a0

........................................................................
.............................. CYCLE   57 ..............................
........................................................................
   1  -1291.0968834 -0.129110E+04  0.182E-03    5.70       0.0  T
   2  -1291.0968835 -0.637606E-07  0.108E-03    5.71       3.4  T
   3  -1291.0968835 -0.893010E-08  0.136E-04    5.71      26.8  T
   4  -1291.0968835 -0.217597E-08  0.194E-05    5.71     187.6  T
     SCC iter.                  ...        0 min,  2.301 sec
     gradient                   ...        0 min, 12.082 sec
 * total energy  : -1283.3009953 Eh     change       -0.3638727E-06 Eh
   gradient norm :     0.0009735 Eh/a0  converged?    E=T G=F D=F
   step length   :     0.0318787 a0

........................................................................
.............................. CYCLE   58 ..............................
........................................................................
   1  -1291.0968468 -0.129110E+04  0.868E-04    5.71       0.0  T
   2  -1291.0968468 -0.917430E-08  0.518E-04    5.71       7.0  T
   3  -1291.0968468 -0.163209E-08  0.499E-05    5.71      72.9  T
     SCC iter.                  ...        0 min,  1.737 sec
     gradient                   ...        0 min, 12.081 sec
 * total energy  : -1283.3009967 Eh     change       -0.1382300E-05 Eh
   gradient norm :     0.0001376 Eh/a0  converged?    E=F G=T D=F
   step length   :     0.0134792 a0

........................................................................
.............................. CYCLE   59 ..............................
........................................................................
   1  -1291.0968342 -0.129110E+04  0.372E-04    5.71       0.0  T
   2  -1291.0968342 -0.845375E-09  0.224E-04    5.71      16.2  T
   3  -1291.0968342 -0.223736E-09  0.145E-05    5.71     251.1  T
     SCC iter.                  ...        0 min,  1.738 sec
     gradient                   ...        0 min, 12.082 sec
 * total energy  : -1283.3009969 Eh     change       -0.1618819E-06 Eh
   gradient norm :     0.0001837 Eh/a0  converged?    E=T G=T D=F
   step length   :     0.0063227 a0

   *** GEOMETRY OPTIMIZATION CONVERGED AFTER 59 CYCLES ***

------------------------------------------------------------------------
 total energy gain   :        -0.0092708 Eh       -5.8175 kcal/mol
 total RMSD          :         0.1624244 a0        0.0860 Å
 total power (kW/mol):        -0.4125516 (step)   -0.0254 (real)
------------------------------------------------------------------------

 L-ANCopt (total)              0 d,  0 h, 15 min, 56.876 sec
 setup                          ...        0 min,  0.029 sec (  0.003%)
 model hessian                  ...        0 min, 22.588 sec (  2.361%)
 ANC generation                 ...        0 min,  7.148 sec (  0.747%)
 coordinate transformation      ...        0 min,  0.004 sec (  0.000%)
 Rational function              ...        0 min,  0.000 sec (  0.000%)
 singlepoint calculation        ...       15 min, 26.704 sec ( 96.847%)
 optimization log               ...        0 min,  0.391 sec (  0.041%)
 hessian update                 ...        0 min,  0.001 sec (  0.000%)

================
 final structure:
================
$coord
       10.90590444854000      -14.78941988720400       -1.08856769544500      o
        9.12339600741700      -15.21860274173500       -0.83173361172000      h
       11.87398573759600      -15.68259107468100        0.15122764383300      h
       -0.87301530152700        7.14889929642900        8.20742362228500      o
        0.07692734245600        6.10231084608600        9.40007712179500      h
        0.13896320771600        8.66891934113000        7.98229922257100      h
       -2.09207778845200       -4.13786066336300       -4.18394037415700      o
       -1.04702126769400       -5.46259363658200       -4.92673485043600      h
       -3.54767211614500       -4.99754887861200       -3.45237346536800      h
       -9.93612072011600        5.12606011566000       -2.81409731929900      o
       -8.26633605306500        4.61358795538600       -3.40865526761300      h
      -10.31683504540600        6.65521292619400       -3.72369257288200      h
       -4.64346811199000        5.68167256450100        0.57754353786900      o
       -5.85779203210700        6.87046501147800        1.26160259229600      h
       -3.15795545371700        5.71344455088600        1.63756547645300      h
       -8.32126356053200       -7.40423135434800        5.13046870797100      o
       -9.07814991237500       -5.76574090012900        4.74293014556200      h
       -9.56788828189600       -8.31984830999700        6.12714019022700      h
        0.69149613968700       -8.03861893630900       -6.05381823002000      o
       -0.38722144050600       -9.51785333954100       -5.79828609377500      h
        2.21921739739900       -8.50686333101300       -5.11498124957200      h
        1.48677606328000      -12.01681781545200        0.44219130863600      o
        1.92783451239000      -12.18813501944500        2.22356317843300      h
        0.63637921724000      -13.58162645745600       -0.03208016705000      h
       -4.29985887829000       -5.54068971482300        2.29382760079300      o
       -2.87745806858700       -5.02090116041600        3.32101322475600      h
       -5.44760508756600       -6.33513829222400        3.46256930258100      h
        1.43825625462400        4.12755847142800       -9.47940859174500      o
        1.10499240084500        4.95343206452200      -11.09122091603100      h
        1.91651473081100        5.47443946873300       -8.31945740128700      h
       -4.27064301875000       -0.12492814562700       -7.02690440912000      o
       -3.32393964472300       -1.41798055305700       -6.14676629736500      h
       -5.67133372435500       -1.00443797811700       -7.82614363606600      h
       -1.92396892508200        7.84170660923700       -7.01713796318500      o
       -1.17455176891000        8.96633361116100       -8.25735614281700      h
       -2.84795130860300        6.58267236048700       -8.04415881003700      h
       -8.42411553758000       -9.60591151195700        0.68974013206800      o
      -10.16330044567700       -9.25805324249900        0.16487625696500      h
       -8.25501039311500       -8.79775207082800        2.36089573180100      h
       -5.38730227655700        4.17825440042500       -4.66577043012000      o
       -5.16520624865900        2.55371271244700       -5.53870029486900      h
       -3.77024520970500        4.50650319819100       -3.87768999068500      h
       -0.41400338820300        4.60457476404000       -3.55819340045000      o
       -0.07198177809100        3.04300766212100       -4.47505902067700      h
       -0.53478584076000        5.92017726328600       -4.85297525162000      h
        0.76209488480300        0.38411883874200       -6.07307774903300      o
        0.17489048471200        0.67972122479300       -7.77121565031000      h
        1.46214024975300       -1.31402763300900       -5.94627564740800      h
       -5.53586882947300       -0.24784811482600        5.09565050962300      o
       -5.65085779838700        1.57035225644400        5.29528547655300      h
       -4.33487601621400       -0.83213398663400        6.32690987118400      h
      -10.66263990765600        0.22697175385000       14.46652802408800      o
      -11.24452301937500        1.79033624177300       13.70147388381700      h
      -11.68969282485800       -1.07603211426700       13.69626316236600      h
       -1.10098483861500       -9.01354944485000        4.09598075019300      o
       -1.75672890668100       -8.22964941671900        5.61267778929100      h
        0.70680884284400       -8.66364102304800        4.06007701653700      h
       -4.55547655109000        3.41271205512500       11.19305861593500      o
       -5.06670887520800        1.74666752989300       11.90483654475300      h
       -5.89345763364800        4.56563914216600       11.70866897133900      h
       -0.07804886986300       -3.43418021930900        4.50010802051500      o
        1.75671277994800       -3.47882000201600        4.42063412607700      h
       -0.48218259945600       -2.58884206664500        6.06333203339100      h
        4.68384497568900        3.30323005017300        3.95902535607800      o
        6.24056629493100        2.47450694328800        4.48097727347500      h
        4.83065673041200        4.99257084573100        4.69105975585600      h
        1.91104230669300       -5.54991257712000       -0.46616884671100      o
        2.42225753219300       -6.25896105021600        1.16255181411200      h
        0.47664813714800       -6.59174883251800       -0.98993197005500      h
        1.84828671644000       10.41431364322000       -2.27032872708900      o
        3.43283110313500       11.07004689487200       -1.63112829338100      h
        0.85143666528700       11.83257151034800       -2.87656029493800      h
       -5.97605661532000       -0.87328009030500       13.05047818608100      o
       -7.60967035072500       -0.52993531657000       13.86401116669300      h
       -6.37619346379300       -1.89139209553300       11.53357738142400      h
      -10.40662402311100        0.69190574458900        8.13916337089000      o
      -10.35905133130600        1.42803034128900        6.44300925572700      h
      -10.95887648951500        2.01189951227300        9.27482917368700      h
      -12.71732439050800        1.17648700002700       -1.22474557769200      o
      -11.79064957288600        2.59234655019000       -1.97592493940500      h
      -12.44394529330300        1.37945424639000        0.58047341509000      h
        3.60035610619400        5.74107067903900       -0.80167064510700      o
        2.03528592309500        5.38774639484700       -1.72870825647300      h
        3.12499060919600        6.56088638653900        0.74389309642700      h
       -6.47583511619500       -6.24602253581300       -2.64248779359900      o
       -6.92748759215400       -7.53270471807500       -1.39499019440100      h
       -7.70845520421600       -4.91615474349700       -2.44609589384100      h
        3.58962039544200       -3.50854738278100       -4.78413072001600      o
        4.31526465668600       -4.79964872262300       -5.85712888947600      h
        2.84602613460800       -4.31857267411700       -3.31666242838900      h
       -9.04728133537000      -10.92024278216300       -4.88429100638200      o
       -9.41663424010300       -9.11012957416200       -4.96060821642300      h
       -9.01601721151100      -11.49232075410800       -6.60681660753900      h
      -10.90984576737100       -3.64496220944900       -1.14941276048000      o
      -10.24666869925600       -3.51413465612600        0.57557106214300      h
      -11.68980911008900       -2.00525999643300       -1.44352403427200      h
        2.50028850219300        4.45429842469000       10.72484285190200      o
        3.46284244338100        4.85736939168600        9.21699310284000      h
        3.24722728599500        5.49720921038800       12.05677270372500      h
        4.91848618192700       -2.52735183102900        4.02247513451400      o
        6.19361762521700       -3.82788406365000        4.01492100473100      h
        4.93858657569700       -1.68022998701800        2.40304120400000      h
        4.03133250359200       -0.22378454527700        8.56711953760100      o
        4.49409534548000       -1.03919326503200        6.98606059735100      h
        2.19302952058100       -0.04642250821600        8.52597014939800      h
        4.66118419733300        7.25446591960500        7.02699592382300      o
        4.21394416097900        8.77725188550200        6.12737561757700      h
        6.17654423944800        7.63221314895500        7.99405331929800      h
       -7.23377276850500        8.50996279639800       -7.21006262703000      o
       -7.66236549639300        7.94846766828200       -8.89728243632400      h
       -6.56947551695600        7.01754015166900       -6.36167694375200      h
      -12.01929028469600        9.55915082197600       -5.14516474120600      o
      -12.07411836347600        9.28419009463900       -6.98031556647000      h
      -10.42683198745200       10.43512961516900       -4.77893223945400      h
        3.12884234519100       -8.40566058507500       12.80697686631500      o
        3.34032825314500       -6.61065190480800       12.48848416974700      h
        1.57434094257900       -8.52672104069600       13.79269247529600      h
       -3.54030706516000       -6.46231375872000        7.78217328726500      o
       -4.01605607126800       -7.78484658392200        8.96351060947000      h
       -4.89770782497300       -5.22978863849900        7.84069794987000      h
        0.66465116679400       -4.47479438534500        9.61831503152600      o
       -0.70499870648300       -5.42253297014300        8.82580925151600      h
       -0.01844273126900       -3.92817427491100       11.23025973829600      h
       -0.39559922302800        3.70073276296900        4.49459569596800      o
        1.40147561745200        3.49265828391800        4.20431705058500      h
       -0.58900521670200        5.20026282384100        5.55109211079900      h
       -2.15075859552200       -6.29889767220900      -14.20188617742200      o
       -1.09814512040800       -7.57660022201300      -13.38795115024400      h
       -0.95757952335300       -5.17958736907900      -15.02515245099500      h
        5.12961707594900       -6.21869909432600        8.07313203519000      o
        3.53346736214600       -5.55893891169900        8.74507100059400      h
        6.42049648259600       -4.93014866587400        8.28834977262600      h
      -14.52785143072900        4.38780886427400        6.21560774682600      o
      -12.81427715865900        5.06141149659400        6.26474532900400      h
      -15.49291470895800        5.55377956528200        7.26133157554800      h
      -18.39438786995500        8.49115005848900        3.70807068353600      o
      -16.90211025791200        9.54124556807300        3.85158409509100      h
      -18.92229429511000        8.66226961396600        1.96209602733100      h
      -18.38890970938500       -5.88309538149800       -0.15805791617000      o
      -18.30324210870300       -4.29552055128000        0.81512012439800      h
      -17.06225922916600       -5.64847236103800       -1.47552467333900      h
        2.58036228219600      -12.76944157785600        5.48457741343600      o
        4.07025254543300      -12.36342284398200        6.48855264510000      h
        1.19820173697600      -12.01310032180900        6.45190946564900      h
        8.55107613127600       -7.57679752470800       12.89245182644500      o
        8.87528582199500       -6.17807221232400       14.01427620397000      h
        6.78175027041000       -7.99360141892700       13.06815917940200      h
        4.86734614408800        2.84833714472200       -4.76549307542100      o
        4.48107562501800        4.61290133328900       -5.06421701284000      h
        3.47364507972200        1.89450017088800       -5.52964762507000      h
        9.45671287764700       -8.67831675533400       -4.78729211776800      o
        8.21791535505500       -7.94714066530400       -5.94171436675100      h
       10.13564570820700      -10.21060909231100       -5.55045639829600      h
      -17.35690080862500        9.35282661654800       -7.37307316493500      o
      -16.02826661731500        9.50566957374500       -8.60407548653900      h
      -17.34094721927400       10.88242561292200       -6.39440425331200      h
       12.33192122598000        4.98547558033800        2.19772152869900      o
       11.09803792778200        4.34678316808200        3.37517836291800      h
       12.71068562847900        3.58873761639000        1.03984822590400      h
       -1.74765083669700        0.45257562333600      -11.72020209315100      o
       -2.03927138705800       -1.01835135394900      -10.64625134855600      h
       -3.25011519221400        0.51220673503600      -12.77970758229500      h
      -15.40559100649900       -5.13737961642600       -3.93726321346500      o
      -16.41141359702400       -5.69082857169600       -5.36942292323700      h
      -14.84732665043100       -3.43654186066100       -4.39216524534700      h
       -5.49062544599900        4.68548814153500        6.35136694611600      o
       -4.88546388312300        4.25862495697600        8.03594643692700      h
       -4.74750795338400        6.35759132469100        5.94773745757700      h
        6.84199974239300      -11.44451710982400        2.46489105389800      o
        6.28250053110700      -12.88786063445000        1.45972371979900      h
        8.22710487918500      -10.65289572855000        1.48632820654500      h
       -4.42955841091900      -12.48363825044200        3.26745931127100      o
       -3.12186909089800      -11.17422775555400        3.53400019815700      h
       -5.08364911882300      -12.29008761336400        1.57144735697800      h
[...]
   385   8 o      386   1 h                                       0.9711689
   385   8 o      387   1 h                                       0.9675865
   388   8 o      389   1 h                                       0.9744410
   388   8 o      390   1 h                                       0.9719292
   391   8 o      392   1 h                                       0.9624443
   391   8 o      393   1 h                                       0.9761768
   394   8 o      395   1 h                                       0.9827377
   394   8 o      396   1 h                                       0.9613353
   397   8 o      398   1 h                                       0.9762106
   397   8 o      399   1 h                                       0.9779830
   400   8 o      401   1 h                                       0.9594825
   400   8 o      402   1 h                                       0.9843990
   403   8 o      404   1 h                                       0.9798852
   403   8 o      405   1 h                                       0.9726947
   406   8 o      407   1 h                                       0.9728632
   406   8 o      408   1 h                                       0.9804895
   409   8 o      410   1 h                                       0.9803293
   409   8 o      411   1 h                                       0.9761569
   412   8 o      413   1 h                                       0.9644893
   412   8 o      414   1 h                                       0.9670056
   415   8 o      416   1 h                                       0.9748860
   415   8 o      417   1 h                                       0.9769492
   418   8 o      419   1 h                                       0.9789121
   418   8 o      420   1 h                                       0.9873429
   421   8 o      422   1 h                                       0.9766921
   421   8 o      423   1 h                                       0.9658711
   424   8 o      425   1 h                                       0.9786744
   424   8 o      426   1 h                                       0.9805665
   427   8 o      428   1 h                                       0.9742810
   427   8 o      429   1 h                                       0.9627716
   430   8 o      431   1 h                                       0.9722251
   430   8 o      432   1 h                                       0.9802326
   433   8 o      434   1 h                                       0.9684872
   433   8 o      435   1 h                                       0.9657920
   436   8 o      437   1 h                                       0.9742162
   436   8 o      438   1 h                                       0.9719676
   439   8 o      440   1 h                                       0.9660536
   439   8 o      441   1 h                                       0.9700083
   442   8 o      443   1 h                                       0.9747821
   442   8 o      444   1 h                                       0.9788118
   445   8 o      446   1 h                                       0.9850046
   445   8 o      447   1 h                                       0.9597936
   448   8 o      449   1 h                                       0.9903337
   448   8 o      450   1 h                                       0.9563494
   451   8 o      452   1 h                                       0.9772755
   451   8 o      453   1 h                                       0.9630920
   454   8 o      455   1 h                                       0.9696049
   454   8 o      456   1 h                                       0.9811038
   457   8 o      458   1 h                                       0.9682568
   457   8 o      459   1 h                                       0.9744975
   460   8 o      461   1 h                                       0.9629193
   460   8 o      462   1 h                                       0.9725745
   463   8 o      464   1 h                                       0.9692226
   463   8 o      465   1 h                                       0.9760966
   466   8 o      467   1 h                                       0.9585812
   466   8 o      468   1 h                                       0.9725658
   469   8 o      470   1 h                                       0.9578896
   469   8 o      471   1 h                                       0.9964097
   472   8 o      473   1 h                                       0.9764614
   472   8 o      474   1 h                                       0.9785273
   475   8 o      476   1 h                                       0.9821018
   475   8 o      477   1 h                                       0.9674789
   478   8 o      479   1 h                                       0.9809219
   478   8 o      480   1 h                                       0.9655664
   481   8 o      482   1 h                                       0.9664449
   481   8 o      483   1 h                                       0.9667476
   484   8 o      485   1 h                                       0.9676979
   484   8 o      486   1 h                                       0.9914714
   487   8 o      488   1 h                                       0.9702474
   487   8 o      489   1 h                                       0.9646329
   490   8 o      491   1 h                                       0.9633646
   490   8 o      492   1 h                                       0.9800896
   493   8 o      494   1 h                                       0.9883796
   493   8 o      495   1 h                                       0.9719458
   496   8 o      497   1 h                                       0.9579218
   496   8 o      498   1 h                                       0.9815972
   499   8 o      500   1 h                                       0.9905798
   499   8 o      501   1 h                                       0.9698911
   502   8 o      503   1 h                                       0.9624166
   502   8 o      504   1 h                                       0.9784782
   505   8 o      506   1 h                                       0.9860022
   505   8 o      507   1 h                                       0.9578533
   508   8 o      509   1 h                                       0.9855235
   508   8 o      510   1 h                                       0.9682581
   511   8 o      512   1 h                                       0.9697117
   511   8 o      513   1 h                                       0.9704211
   514   8 o      515   1 h                                       0.9709178
   514   8 o      516   1 h                                       0.9795238
   517   8 o      518   1 h                                       0.9682382
   517   8 o      519   1 h                                       0.9702218
   520   8 o      521   1 h                                       0.9776318
   520   8 o      522   1 h                                       0.9714078
   523   8 o      524   1 h                                       0.9727498
   523   8 o      525   1 h                                       0.9748609
   526   8 o      527   1 h                                       0.9806044
   526   8 o      528   1 h                                       0.9674092
   529   8 o      530   1 h                                       0.9719833
   529   8 o      531   1 h                                       0.9621836
   532   8 o      533   1 h                                       0.9868008
   532   8 o      534   1 h                                       0.9696296
   535   8 o      536   1 h                                       0.9808263
   535   8 o      537   1 h                                       0.9690251
   538   8 o      539   1 h                                       0.9623490
   538   8 o      540   1 h                                       0.9747715
   541   8 o      542   1 h                                       0.9727347
   541   8 o      543   1 h                                       0.9737129
   544   8 o      545   1 h                                       0.9606225
   544   8 o      546   1 h                                       0.9842979
   547   8 o      548   1 h                                       0.9842539
   547   8 o      549   1 h                                       0.9848608
   550   8 o      551   1 h                                       0.9659511
   550   8 o      552   1 h                                       0.9792848
   553   8 o      554   1 h                                       0.9715999
   553   8 o      555   1 h                                       0.9731786
   556   8 o      557   1 h                                       0.9742949
   556   8 o      558   1 h                                       0.9766299
   559   8 o      560   1 h                                       0.9735004
   559   8 o      561   1 h                                       0.9691660
   562   8 o      563   1 h                                       0.9731493
   562   8 o      564   1 h                                       0.9781817
   565   8 o      566   1 h                                       0.9762235
   565   8 o      567   1 h                                       0.9828011
   568   8 o      569   1 h                                       0.9561466
   568   8 o      570   1 h                                       0.9875428
   571   8 o      572   1 h                                       0.9645685
   571   8 o      573   1 h                                       0.9793038
   574   8 o      575   1 h                                       0.9677822
   574   8 o      576   1 h                                       0.9745578
   577   8 o      578   1 h                                       0.9666745
   577   8 o      579   1 h                                       0.9638867
   580   8 o      581   1 h                                       0.9811138
   580   8 o      582   1 h                                       0.9617570
   583   8 o      584   1 h                                       0.9749333
   583   8 o      585   1 h                                       0.9708400
   586   8 o      587   1 h                                       0.9634868
   586   8 o      588   1 h                                       0.9930186
   589   8 o      590   1 h                                       0.9671824
   589   8 o      591   1 h                                       0.9752525
   592   8 o      593   1 h                                       0.9629849
   592   8 o      594   1 h                                       0.9834033
   595   8 o      596   1 h                                       0.9863874
   595   8 o      597   1 h                                       0.9823005
   598   8 o      599   1 h                                       0.9761271
   598   8 o      600   1 h                                       0.9665049
   601   8 o      602   1 h                                       0.9729562
   601   8 o      603   1 h                                       0.9709950
   604   8 o      605   1 h                                       0.9744768
   604   8 o      606   1 h                                       0.9728745
   607   8 o      608   1 h                                       0.9609456
   607   8 o      609   1 h                                       0.9687534
   610   8 o      611   1 h                                       0.9793250
   610   8 o      612   1 h                                       0.9619192
   613   8 o      614   1 h                                       0.9671756
   613   8 o      615   1 h                                       0.9764557
   616   8 o      617   1 h                                       0.9775890
   616   8 o      618   1 h                                       0.9745802
   619   8 o      620   1 h                                       0.9751589
   619   8 o      621   1 h                                       0.9809434
   622   8 o      623   1 h                                       0.9666784
   622   8 o      624   1 h                                       0.9849379
   625   8 o      626   1 h                                       0.9692809
   625   8 o      627   1 h                                       0.9805365
   628   8 o      629   1 h                                       0.9798278
   628   8 o      630   1 h                                       0.9724262
   631   8 o      632   1 h                                       0.9834362
   631   8 o      633   1 h                                       0.9724786
   634   8 o      635   1 h                                       0.9717113
   634   8 o      636   1 h                                       0.9757615
   637   8 o      638   1 h                                       0.9707464
   637   8 o      639   1 h                                       0.9763604
   640   8 o      641   1 h                                       0.9734706
   640   8 o      642   1 h                                       0.9776809
   643   8 o      644   1 h                                       0.9584319
   643   8 o      645   1 h                                       0.9972461
   646   8 o      647   1 h                                       0.9625175
   646   8 o      648   1 h                                       0.9687120
   649   8 o      650   1 h                                       0.9720476
   649   8 o      651   1 h                                       0.9585266
   652   8 o      653   1 h                                       0.9984165 (max)
   652   8 o      654   1 h                                       0.9591869
   655   8 o      656   1 h                                       0.9766441
   655   8 o      657   1 h                                       0.9729599
   658   8 o      659   1 h                                       0.9933158
   658   8 o      660   1 h                                       0.9572215
   661   8 o      662   1 h                                       0.9709849
   661   8 o      663   1 h                                       0.9771024
   664   8 o      665   1 h                                       0.9654290
   664   8 o      666   1 h                                       0.9678086
   667   8 o      668   1 h                                       0.9651399
   667   8 o      669   1 h                                       0.9850659
   670   8 o      671   1 h                                       0.9618955
   670   8 o      672   1 h                                       0.9683074
   673   8 o      674   1 h                                       0.9860733
   673   8 o      675   1 h                                       0.9765496
   676   8 o      677   1 h                                       0.9864617
   676   8 o      678   1 h                                       0.9564750
   679   8 o      680   1 h                                       0.9839982
   679   8 o      681   1 h                                       0.9560225 (min)
   682   8 o      683   1 h                                       0.9667770
   682   8 o      684   1 h                                       0.9715698
   685   8 o      686   1 h                                       0.9860303
   685   8 o      687   1 h                                       0.9701727
   688   8 o      689   1 h                                       0.9665189
   688   8 o      690   1 h                                       0.9775445
   691   8 o      692   1 h                                       0.9613346
   691   8 o      693   1 h                                       0.9649780
   694   8 o      695   1 h                                       0.9684524
   694   8 o      696   1 h                                       0.9626641
   697   8 o      698   1 h                                       0.9858186
   697   8 o      699   1 h                                       0.9669504
   700   8 o      701   1 h                                       0.9917633
   700   8 o      702   1 h                                       0.9717850
   703   8 o      704   1 h                                       0.9857288
   703   8 o      705   1 h                                       0.9793979
   706   8 o      707   1 h                                       0.9800786
   706   8 o      708   1 h                                       0.9743226
   709   8 o      710   1 h                                       0.9624303
   709   8 o      711   1 h                                       0.9681783
   712   8 o      713   1 h                                       0.9887345
   712   8 o      714   1 h                                       0.9647701
   715   8 o      716   1 h                                       0.9831732
   715   8 o      717   1 h                                       0.9687237
   718   8 o      719   1 h                                       0.9826441
   718   8 o      720   1 h                                       0.9896041
   721   8 o      722   1 h                                       0.9806807
   721   8 o      723   1 h                                       0.9651203
   724   8 o      725   1 h                                       0.9780340
   724   8 o      726   1 h                                       0.9762966
   727   8 o      728   1 h                                       0.9567448
   727   8 o      729   1 h                                       0.9771839
   730   8 o      732   1 h                                       0.9576156
   733   8 o      734   1 h                                       0.9916718
   733   8 o      735   1 h                                       0.9571641
   736   8 o      737   1 h                                       0.9742630
   736   8 o      738   1 h                                       0.9768578
   739   8 o      740   1 h                                       0.9776887
   739   8 o      741   1 h                                       0.9779746
   742   8 o      743   1 h                                       0.9752330
   742   8 o      744   1 h                                       0.9697874
   745   8 o      746   1 h                                       0.9802899
   745   8 o      747   1 h                                       0.9675869
   748   8 o      749   1 h                                       0.9789449
   748   8 o      750   1 h                                       0.9696193
   751   8 o      752   1 h                                       0.9649905
   751   8 o      753   1 h                                       0.9680090
   754   8 o      755   1 h                                       0.9600433
   754   8 o      756   1 h                                       0.9611539

 * 1 distinct bonds (by element types)

   Z      Z             #   av. dist./Å        max./Å        min./Å
   1 H    8 O         503     0.9735590     0.9984165     0.9560225


optimized geometry written to: xtbopt.coord


           -------------------------------------------------
          | TOTAL ENERGY            -1283.300996876665 Eh   |
          | GRADIENT NORM               0.005510042351 Eh/α |
          | HOMO-LUMO GAP               5.707569794825 eV   |
           -------------------------------------------------

------------------------------------------------------------------------
 * finished run on 2022/11/24 at 12:21:16.661     
------------------------------------------------------------------------
 total:
 * wall-time:     0 d,  0 h, 16 min, 32.665 sec
 *  cpu-time:     0 d,  0 h, 24 min, 24.614 sec
 * ratio c/w:     1.475 speedup
 SCF:
 * wall-time:     0 d,  0 h,  0 min, 20.076 sec
 *  cpu-time:     0 d,  0 h,  0 min, 31.913 sec
 * ratio c/w:     1.590 speedup
 ANC optimizer:
 * wall-time:     0 d,  0 h, 16 min, 11.519 sec
 *  cpu-time:     0 d,  0 h, 23 min, 50.984 sec
 * ratio c/w:     1.473 speedup

