      -----------------------------------------------------------      
     |                   =====================                   |     
     |                           x T B                           |     
     |                   =====================                   |     
     |                         S. Grimme                         |     
     |          Mulliken Center for Theoretical Chemistry        |     
     |                    University of Bonn                     |     
      -----------------------------------------------------------      

   * xtb version 6.5.1 (579679a) compiled by 'ehlert@majestix' on 2022-07-11

   xtb is free software: you can redistribute it and/or modify it under
   the terms of the GNU Lesser General Public License as published by
   the Free Software Foundation, either version 3 of the License, or
   (at your option) any later version.
   
   xtb is distributed in the hope that it will be useful,
   but WITHOUT ANY WARRANTY; without even the implied warranty of
   MERCHANTABILITY or FITNESS FOR A PARTICULAR PURPOSE.  See the
   GNU Lesser General Public License for more details.
   
   Cite this work as:
   * C. Bannwarth, E. Caldeweyher, S. Ehlert, A. Hansen, P. Pracht,
     J. Seibert, S. Spicher, S. Grimme, WIREs Comput. Mol. Sci., 2020, 11,
     e01493. DOI: 10.1002/wcms.1493
   
   for GFN2-xTB:
   * C. Bannwarth, S. Ehlert and S. Grimme., J. Chem. Theory Comput., 2019,
     15, 1652-1671. DOI: 10.1021/acs.jctc.8b01176
   for GFN1-xTB:
   * S. Grimme, C. Bannwarth, P. Shushkov, J. Chem. Theory Comput., 2017,
     13, 1989-2009. DOI: 10.1021/acs.jctc.7b00118
   for GFN0-xTB:
   * P. Pracht, E. Caldeweyher, S. Ehlert, S. Grimme, ChemRxiv, 2019, preprint.
     DOI: 10.26434/chemrxiv.8326202.v1
   for GFN-FF:
   * S. Spicher and S. Grimme, Angew. Chem. Int. Ed., 2020, 59, 15665-15673.
     DOI: 10.1002/anie.202004239
   
   for ALPB and GBSA implicit solvation:
   * S. Ehlert, M. Stahn, S. Spicher, S. Grimme, J. Chem. Theory Comput.,
     2021, 17, 4250-4261. DOI: 10.1021/acs.jctc.1c00471
   
   for DFT-D4:
   * E. Caldeweyher, C. Bannwarth and S. Grimme, J. Chem. Phys., 2017,
     147, 034112. DOI: 10.1063/1.4993215
   * E. Caldeweyher, S. Ehlert, A. Hansen, H. Neugebauer, S. Spicher,
     C. Bannwarth and S. Grimme, J. Chem. Phys., 2019, 150, 154122.
     DOI: 10.1063/1.5090222
   * E. Caldeweyher, J.-M. Mewes, S. Ehlert and S. Grimme, Phys. Chem. Chem. Phys.
     2020, 22, 8499-8512. DOI: 10.1039/D0CP00502A
   
   for sTDA-xTB:
   * S. Grimme and C. Bannwarth, J. Chem. Phys., 2016, 145, 054103.
     DOI: 10.1063/1.4959605
   
   in the mass-spec context:
   * V. Asgeirsson, C. Bauer and S. Grimme, Chem. Sci., 2017, 8, 4879.
     DOI: 10.1039/c7sc00601b
   * J. Koopman and S. Grimme, ACS Omega 2019, 4, 12, 15120-15133.
     DOI: 10.1021/acsomega.9b02011
   
   for metadynamics refer to:
   * S. Grimme, J. Chem. Theory Comput., 2019, 155, 2847-2862
     DOI: 10.1021/acs.jctc.9b00143
   
   for SPH calculations refer to:
   * S. Spicher and S. Grimme, J. Chem. Theory Comput., 2021, 17, 1701-1714
     DOI: 10.1021/acs.jctc.0c01306
   
   with help from (in alphabetical order)
   P. Atkinson, C. Bannwarth, F. Bohle, G. Brandenburg, E. Caldeweyher
   M. Checinski, S. Dohm, S. Ehlert, S. Ehrlich, I. Gerasimov, C. Hölzer
   A. Katbashev, J. Koopman, C. Lavigne, S. Lehtola, F. März, M. Müller,
   F. Musil, H. Neugebauer, J. Pisarek, C. Plett, P. Pracht, F. Pultar,
   J. Seibert, P. Shushkov, S. Spicher, M. Stahn, M. Steiner, T. Strunk,
   J. Stückrath, T. Rose, and J. Unsleber
   
 * started run on 2022/11/24 at 12:21:40.830     

           -------------------------------------------------
          |                Calculation Setup                |
           -------------------------------------------------

          program call               : xtb solvent_cluster.coord --gfn2 --sp --lmo --chrg 0
          hostname                   : cn0430
          coordinate file            : solvent_cluster.coord
          omp threads                :                     2

   ID    Z sym.   atoms
    1    8 o      1, 4, 7, 10, 13, 16, 19, 22, 25, 28, 31, 34, 37, 40, 43,
                  46, 49, 52, 55, 58, 61, 64, 67, 70, 73, 76, 79, 82, 85, 88,
                  91, 94, 97, 100, 103, 106, 109, 112, 115, 118, 121, 124,
                  127, 130, 133, 136, 139, 142, 145, 148, 151, 154, 157, 160,
                  163, 166, 169, 172, 175, 178, 181, 184, 187, 190, 193, 196,
                  199, 202, 205, 208, 211, 214, 217, 220, 223, 226, 229, 232,
                  235, 238, 241, 244, 247, 250, 253, 256, 259, 262, 265, 268,
                  271, 274, 277, 280, 283, 286, 289, 292, 295, 298, 301, 304,
                  307, 310, 313, 316, 319, 322, 325, 328, 331, 334, 337, 340,
                  343, 346, 349, 352, 355, 358, 361, 364, 367, 370, 373, 376,
                  379, 382, 385, 388, 391, 394, 397, 400, 403, 406, 409, 412,
                  415, 418, 421, 424, 427, 430, 433, 436, 439, 442, 445, 448,
                  451, 454, 457, 460, 463, 466, 469, 472, 475, 478, 481, 484,
                  487, 490, 493, 496, 499, 502, 505, 508, 511, 514, 517, 520,
                  523, 526, 529, 532, 535, 538, 541, 544, 547, 550, 553, 556,
                  559, 562, 565, 568, 571, 574, 577, 580, 583, 586, 589, 592,
                  595, 598, 601, 604, 607, 610, 613, 616, 619, 622, 625, 628,
                  631, 634, 637, 640, 643, 646, 649, 652, 655, 658, 661, 664,
                  667, 670, 673, 676, 679, 682, 685, 688, 691, 694, 697, 700,
                  703, 706, 709, 712, 715, 718, 721, 724, 727, 730, 733, 736,
                  739, 742, 745, 748, 751, 754
    2    1 h      2, 3, 5, 6, 8, 9, 11, 12, 14, 15, 17, 18, 20, 21, 23, 24,
                  26, 27, 29, 30, 32, 33, 35, 36, 38, 39, 41, 42, 44, 45, 47,
                  48, 50, 51, 53, 54, 56, 57, 59, 60, 62, 63, 65, 66, 68, 69,
                  71, 72, 74, 75, 77, 78, 80, 81, 83, 84, 86, 87, 89, 90, 92,
                  93, 95, 96, 98, 99, 101, 102, 104, 105, 107, 108, 110, 111,
                  113, 114, 116, 117, 119, 120, 122, 123, 125, 126, 128, 129,
                  131, 132, 134, 135, 137, 138, 140, 141, 143, 144, 146, 147,
                  149, 150, 152, 153, 155, 156, 158, 159, 161, 162, 164, 165,
                  167, 168, 170, 171, 173, 174, 176, 177, 179, 180, 182, 183,
                  185, 186, 188, 189, 191, 192, 194, 195, 197, 198, 200, 201,
                  203, 204, 206, 207, 209, 210, 212, 213, 215, 216, 218, 219,
                  221, 222, 224, 225, 227, 228, 230, 231, 233, 234, 236, 237,
                  239, 240, 242, 243, 245, 246, 248, 249, 251, 252, 254, 255,
                  257, 258, 260, 261, 263, 264, 266, 267, 269, 270, 272, 273,
                  275, 276, 278, 279, 281, 282, 284, 285, 287, 288, 290, 291,
                  293, 294, 296, 297, 299, 300, 302, 303, 305, 306, 308, 309,
                  311, 312, 314, 315, 317, 318, 320, 321, 323, 324, 326, 327,
                  329, 330, 332, 333, 335, 336, 338, 339, 341, 342, 344, 345,
                  347, 348, 350, 351, 353, 354, 356, 357, 359, 360, 362, 363,
                  365, 366, 368, 369, 371, 372, 374, 375, 377, 378, 380, 381,
                  383, 384, 386, 387, 389, 390, 392, 393, 395, 396, 398, 399,
                  401, 402, 404, 405, 407, 408, 410, 411, 413, 414, 416, 417,
                  419, 420, 422, 423, 425, 426, 428, 429, 431, 432, 434, 435,
                  437, 438, 440, 441, 443, 444, 446, 447, 449, 450, 452, 453,
                  455, 456, 458, 459, 461, 462, 464, 465, 467, 468, 470, 471,
                  473, 474, 476, 477, 479, 480, 482, 483, 485, 486, 488, 489,
                  491, 492, 494, 495, 497, 498, 500, 501, 503, 504, 506, 507,
                  509, 510, 512, 513, 515, 516, 518, 519, 521, 522, 524, 525,
                  527, 528, 530, 531, 533, 534, 536, 537, 539, 540, 542, 543,
                  545, 546, 548, 549, 551, 552, 554, 555, 557, 558, 560, 561,
                  563, 564, 566, 567, 569, 570, 572, 573, 575, 576, 578, 579,
                  581, 582, 584, 585, 587, 588, 590, 591, 593, 594, 596, 597,
                  599, 600, 602, 603, 605, 606, 608, 609, 611, 612, 614, 615,
                  617, 618, 620, 621, 623, 624, 626, 627, 629, 630, 632, 633,
                  635, 636, 638, 639, 641, 642, 644, 645, 647, 648, 650, 651,
                  653, 654, 656, 657, 659, 660, 662, 663, 665, 666, 668, 669,
                  671, 672, 674, 675, 677, 678, 680, 681, 683, 684, 686, 687,
                  689, 690, 692, 693, 695, 696, 698, 699, 701, 702, 704, 705,
                  707, 708, 710, 711, 713, 714, 716, 717, 719, 720, 722, 723,
                  725, 726, 728, 729, 731, 732, 734, 735, 737, 738, 740, 741,
                  743, 744, 746, 747, 749, 750, 752, 753, 755, 756

molecular fragmentation (1/2 indicates fragments):
111222222222222222222222222222222222222222222222222222222222222222222222
222222222222222222222222222222222222222222222222222222222222222222222222
222222222222222222222222222222222222222222222222222222222222222222222222
222222222222222222222222222222222222222222222222222222222222222222222222
222222222222222222222222222222222222222222222222222222222222222222222222
222222222222222222222222222222222222222222222222222222222222222222222222
222222222222222222222222222222222222222222222222222222222222222222222222
222222222222222222222222222222222222222222222222222222222222222222222222
222222222222222222222222222222222222222222222222222222222222222222222222
222222222222222222222222222222222222222222222222222222222222222222222222
222222222222222222222222222222222222
# atoms in fragment 1/2:     3   753
 fragment masses (1/2) :       18.02     4521.84
CMA distance (Bohr)    :  18.512
constraining FC (au)   :  0.0500

           -------------------------------------------------
          |                 G F N 2 - x T B                 |
           -------------------------------------------------

        Reference                      10.1021/acs.jctc.8b01176
      * Hamiltonian:
        H0-scaling (s, p, d)           1.850000    2.230000    2.230000
        zeta-weighting                 0.500000
      * Dispersion:
        s8                             2.700000
        a1                             0.520000
        a2                             5.000000
        s9                             5.000000
      * Repulsion:
        kExp                           1.500000    1.000000
        rExp                           1.000000
      * Coulomb:
        alpha                          2.000000
        third order                    shell-resolved
        anisotropic                    true
        a3                             3.000000
        a5                             4.000000
        cn-shift                       1.200000
        cn-exp                         4.000000
        max-rad                        5.000000


          ...................................................
          :                      SETUP                      :
          :.................................................:
          :  # basis functions                1512          :
          :  # atomic orbitals                1512          :
          :  # shells                         1008          :
          :  # electrons                      2016          :
          :  max. iterations                   250          :
          :  Hamiltonian                  GFN2-xTB          :
          :  restarted?                      false          :
          :  GBSA solvation                  false          :
          :  PC potential                    false          :
          :  electronic temp.          300.0000000     K    :
          :  accuracy                    1.0000000          :
          :  -> integral cutoff          0.2500000E+02      :
          :  -> integral neglect         0.1000000E-07      :
          :  -> SCF convergence          0.1000000E-05 Eh   :
          :  -> wf. convergence          0.1000000E-03 e    :
          :  Broyden damping             0.4000000          :
          ...................................................

 iter      E             dE          RMSdq      gap      omega  full diag
   1  -1290.9803676 -0.129098E+04  0.406E+00    8.48       0.0  T
   2  -1291.0593012 -0.789336E-01  0.241E+00    7.15       1.0  T
   3  -1291.0912494 -0.319482E-01  0.211E-01    5.22       1.0  T
   4  -1291.0967050 -0.545559E-02  0.459E-02    5.75       1.0  T
   5  -1291.0967913 -0.863062E-04  0.308E-02    5.67       1.0  T
   6  -1291.0968316 -0.403408E-04  0.436E-03    5.71       1.0  T
   7  -1291.0968342 -0.254218E-05  0.742E-04    5.71       4.9  T
   8  -1291.0968342 -0.288437E-07  0.375E-04    5.71       9.7  T
   9  -1291.0968342 -0.135628E-07  0.699E-05    5.71      52.0  T

   *** convergence criteria satisfied after 9 iterations ***

         #    Occupation            Energy/Eh            Energy/eV
      -------------------------------------------------------------
         1        2.0000           -0.6916150             -18.8198
       ...           ...                  ...                  ...
      1002        2.0000           -0.3442166              -9.3666
      1003        2.0000           -0.3431757              -9.3383
      1004        2.0000           -0.3390082              -9.2249
      1005        2.0000           -0.3344270              -9.1002
      1006        2.0000           -0.3325751              -9.0498
      1007        2.0000           -0.3252557              -8.8507
      1008        2.0000           -0.2923252              -7.9546 (HOMO)
      1009                         -0.0825798              -2.2471 (LUMO)
      1010                         -0.0787039              -2.1416
      1011                         -0.0579418              -1.5767
      1012                         -0.0545438              -1.4842
      1013                         -0.0519130              -1.4126
       ...                                ...                  ...
      1512                          0.4899258              13.3316
      -------------------------------------------------------------
                  HL-Gap            0.2097454 Eh            5.7075 eV
             Fermi-level           -0.1874525 Eh           -5.1008 eV
 
 localization/xTB-IFF output generation
 averaging CT terms over            1  occ. levels
 averaging CT terms over            2  virt. levels
 dipole moment from electron density (au)
     X       Y       Z   
  -0.6990   2.3924   1.5802  total (Debye):    7.501
cpu  time for init local    0.78 s
wall time for init local    0.40 s
 doing rotations ...
 initialization of trafo matrix to unity

 converged in     16 iterations, threshold :   0.99990196D-06
 doing transformations ...
 lmo centers(Z=2) and atoms on file <lmocent.coord>
 LMO Fii/eV  ncent    charge center   contributions...
    1 LP   *******   0.00  -8.85984  -0.07679  13.97492   52O : 25.63   22O : 24.48  631O : 20.70  454O : 19.71  166O : 18.64  748O : 18.08  613O : 18.03  565O : 17.80   25O : 17.40  274O : 17.35  301O : 17.11  571O : 16.14
  391O : 15.14  655O : 14.74  277O : 14.70  490O : 14.11   79O : 13.89  508O : 13.83  268O : 12.75  601O : 12.34   88O : 12.30   31O : 12.16  118O : 11.40  400O : 11.20
  106O : 11.04  310O : 11.00  685O : 10.98   49O : 10.98   61O : 10.85  457O : 10.65   70O : 10.31  124O : 10.31   94O : 10.00  250O :  9.99  418O :  9.81  220O :  9.80
  337O :  9.74  121O :  9.72  499O :  9.71  703O :  9.50  163O :  9.46  226O :  9.40  145O :  9.30  190O :  8.96  280O :  8.91  532O :  8.86  538O :  8.84  238O :  8.69
  664O :  8.68  751O :  8.60  127O :  8.54  688O :  8.24  181O :  8.16  580O :  8.15  607O :  8.11   67O :  8.08  430O :  8.08  595O :  7.94  700O :  7.70  721O :  7.46
  736O :  7.44   40O :  7.43  592O :  7.41  547O :  7.37  427O :  7.36  247O :  7.34   46O :  7.30  373O :  7.25  640O :  7.25  178O :  7.08   97O :  7.02  709O :  6.99
  208O :  6.95  259O :  6.70  376O :  6.68   64O :  6.66  628O :  6.59  412O :  6.54  718O :  6.51  196O :  6.37  235O :  6.26  403O :  6.12  487O :  6.10  448O :  6.08
  409O :  5.96  472O :  5.94  331O :  5.89   13O :  5.86  754O :  5.86  211O :  5.74   28O :  5.69  298O :  5.68  520O :  5.67   82O :  5.66  604O :  5.41  535O :  5.34
  397O :  5.32   73O :  5.25  478O :  5.24  469O :  5.22  217O :  5.21  256O :  5.09  136O :  5.00  184O :  4.99  415O :  4.97  517O :  4.93  244O :  4.90  394O :  4.90
  379O :  4.89   19O :  4.82   43O :  4.76   76O :  4.63  598O :  4.57   10O :  4.57  673O :  4.47  355O :  4.43  229O :  4.42  139O :  4.33  436O :  4.32  511O :  4.30
  658O :  4.26  361O :  4.25  109O :  4.22  115O :  4.22  367O :  4.20  316O :  4.17  202O :  4.08  445O :  4.03  271O :  4.01  652O :  3.93  157O :  3.86  460O :  3.86
   37O :  3.77  262O :  3.76  637O :  3.76   34O :  3.62  328O :  3.58  160O :  3.56  223O :  3.56  286O :  3.48  562O :  3.48  358O :  3.44  715O :  3.36  694O :  3.31
  493O :  3.28  313O :  3.25  661O :  3.23  550O :  3.21  616O :  3.19  567H :  3.16  724O :  3.11  295O :  3.10  619O :  3.04   27H :  3.01  154O :  3.01  421O :  2.98
  610O :  2.97  727O :  2.93  307O :  2.91   85O :  2.83  214O :  2.83  484O :  2.77  304O :  2.74  191H :  2.72  559O :  2.71    1O :  2.65  172O :  2.64  424O :  2.57
  187O :  2.53    7O :  2.52  130O :  2.52   26H :  2.45  583O :  2.44  442O :  2.43  265O :  2.40  433O :  2.40  227H :  2.40  103O :  2.36  625O :  2.35  205O :  2.29
  385O :  2.27  745O :  2.24  364O :  2.22  100O :  2.21  577O :  2.19  568O :  2.16  572H :  2.13  283O :  2.09  346O :  2.08  622O :  2.08  556O :  2.05   91O :  2.02
  116H :  2.01  340O :  2.00  679O :  1.98  697O :  1.92  451O :  1.90  325O :  1.88  199O :  1.85  253O :  1.81  334O :  1.80  292O :  1.79  589O :  1.78    4O :  1.76
   16O :  1.74  750H :  1.73  370O :  1.72  129H :  1.71  393H :  1.71  169O :  1.71  733O :  1.70  475O :  1.68  481O :  1.61  710H :  1.60  221H :  1.56   89H :  1.56
  502O :  1.54  466O :  1.54  388O :  1.52  496O :  1.52  142O :  1.51  523O :  1.48  151O :  1.47  574O :  1.46  382O :  1.43  646O :  1.42  228H :  1.40  505O :  1.38
  133O :  1.35  553O :  1.35  491H :  1.34  112O :  1.34  730O :  1.30  544O :  1.28  374H :  1.27  586O :  1.25  175O :  1.20  670O :  1.18  148O :  1.16  417H :  1.16
  541O :  1.16  473H :  1.15   35H :  1.12  263H :  1.08  596H :  1.05  641H :  1.05  168H :  1.05  165H :  1.05  581H :  1.04   62H :  1.03  414H :  1.03   44H :  0.99
  232O :  0.98   71H :  0.97  682O :  0.94   39H :  0.94   69H :  0.93  540H :  0.92  439O :  0.92  608H :  0.90   55O :  0.88  399H :  0.88   63H :  0.87  742O :  0.86
  122H :  0.85  737H :  0.85  649O :  0.84  634O :  0.83  173H :  0.83  691O :  0.82  739O :  0.82  422H :  0.81  251H :  0.80   23H :  0.78  126H :  0.77   58O :  0.76
  462H :  0.76  594H :  0.76   96H :  0.75  155H :  0.74   20H :  0.73   75H :  0.73  349O :  0.73  161H :  0.72  230H :  0.71  657H :  0.70  406O :  0.70  522H :  0.69
  322O :  0.69  521H :  0.69  712O :  0.68   86H :  0.68   32H :  0.68  389H :  0.68  529O :  0.67  299H :  0.67  447H :  0.66  419H :  0.65  456H :  0.65  526O :  0.65
   50H :  0.64  188H :  0.63  179H :  0.63   18H :  0.63  617H :  0.63  111H :  0.62  212H :  0.62  275H :  0.60  147H :  0.59  706O :  0.59  663H :  0.59  359H :  0.59
  510H :  0.58   53H :  0.58  722H :  0.56  676O :  0.56  318H :  0.56  470H :  0.55  534H :  0.55  643O :  0.55  753H :  0.55  560H :  0.55  158H :  0.54  450H :  0.54
  241O :  0.53  284H :  0.52  667O :  0.52  356H :  0.51  186H :  0.51   80H :  0.50   95H :  0.49  213H :  0.48  755H :  0.48  416H :  0.47  638H :  0.47  132H :  0.46
   72H :  0.46  180H :  0.45  479H :  0.44  386H :  0.44  653H :  0.44  666H :  0.44   87H :  0.43  319O :  0.43  314H :  0.43  514O :  0.42  476H :  0.42  537H :  0.42
  125H :  0.42  527H :  0.42  615H :  0.41  193O :  0.41  501H :  0.41  699H :  0.41  189H :  0.41  681H :  0.41  463O :  0.40  573H :  0.39  392H :  0.38  717H :  0.38
  254H :  0.38  369H :  0.38  206H :  0.37  704H :  0.37  734H :  0.36   38H :  0.35  131H :  0.35  293H :  0.35  719H :  0.35  752H :  0.34  545H :  0.34  123H :  0.33
  404H :  0.33  575H :  0.33  317H :  0.33  233H :  0.33  326H :  0.33  348H :  0.33  222H :  0.32   17H :  0.32  405H :  0.32  551H :  0.32  480H :  0.31  363H :  0.31
  171H :  0.30  614H :  0.30  152H :  0.30  716H :  0.30  210H :  0.29  425H :  0.29  305H :  0.29  725H :  0.29  441H :  0.29  674H :  0.29   41H :  0.28  687H :  0.28
  380H :  0.28  110H :  0.28  555H :  0.27  732H :  0.27  312H :  0.27  245H :  0.27  378H :  0.27   54H :  0.26  357H :  0.26    2H :  0.26   12H :  0.25  164H :  0.25
  203H :  0.25  662H :  0.24   45H :  0.24  587H :  0.24  398H :  0.24  432H :  0.23  624H :  0.23  593H :  0.23  239H :  0.23  269H :  0.23  360H :  0.23  746H :  0.22
  308H :  0.22  665H :  0.22  272H :  0.22  332H :  0.22  216H :  0.22  579H :  0.22  626H :  0.22  738H :  0.21  134H :  0.21  384H :  0.21  146H :  0.21  194H :  0.21
  756H :  0.21  204H :  0.20  539H :  0.20  258H :  0.20  747H :  0.20  549H :  0.20  705H :  0.20  297H :  0.19    6H :  0.19  372H :  0.19  428H :  0.19  627H :  0.19
  474H :  0.18  289O :  0.18   98H :  0.18  255H :  0.18   29H :  0.17  197H :  0.17  675H :  0.17  671H :  0.17  443H :  0.17  531H :  0.17  524H :  0.17   74H :  0.17
  135H :  0.17   51H :  0.16  209H :  0.16  177H :  0.16  609H :  0.16  323H :  0.16  518H :  0.16  561H :  0.16  315H :  0.15  167H :  0.15  467H :  0.15  689H :  0.15
  650H :  0.15  678H :  0.15  273H :  0.15  435H :  0.15  225H :  0.15  698H :  0.14  483H :  0.14  114H :  0.14   99H :  0.14  396H :  0.14  683H :  0.14   36H :  0.14
  459H :  0.13  509H :  0.13  341H :  0.13  137H :  0.12  660H :  0.12  621H :  0.12  105H :  0.12  591H :  0.12  119H :  0.12  324H :  0.12  455H :  0.12  611H :  0.12
   24H :  0.11  402H :  0.11  728H :  0.11  150H :  0.11  585H :  0.11  633H :  0.11   84H :  0.11  639H :  0.11   42H :  0.11  200H :  0.10  495H :  0.10  680H :  0.10
  486H :  0.10  176H :  0.10  104H :  0.10  713H :  0.10  342H :  0.10  599H :  0.10  195H :  0.10  429H :  0.10  303H :  0.09   65H :  0.09  377H :  0.09  743H :  0.09
  143H :  0.09  497H :  0.09  695H :  0.09   15H :  0.09  281H :  0.09  648H :  0.09  128H :  0.09  744H :  0.09  408H :  0.09  120H :  0.08  327H :  0.08  231H :  0.08
  513H :  0.08  605H :  0.08  597H :  0.08  570H :  0.08  630H :  0.08  708H :  0.08  343O :  0.07   60H :  0.07  582H :  0.07  140H :  0.07  618H :  0.07  260H :  0.07
    9H :  0.07
    2 LP   *******   0.00   2.97659 -11.74369  -0.60001   22O : 27.06   52O : 20.96  631O : 20.42  454O : 19.44  166O : 18.38  748O : 17.84  613O : 17.79  565O : 17.57   25O : 17.18  274O : 17.15  301O : 16.88  571O : 15.92
  391O : 14.94  655O : 14.54  277O : 14.51  490O : 13.92   79O : 13.70  508O : 13.65  268O : 12.58  601O : 12.18   88O : 12.13   31O : 11.99  118O : 11.26  400O : 11.05
  106O : 10.89  310O : 10.85  685O : 10.84   49O : 10.83   61O : 10.71  457O : 10.51   70O : 10.18  124O : 10.18   94O :  9.87  250O :  9.86  418O :  9.68  220O :  9.67
  337O :  9.61  121O :  9.60  499O :  9.58  703O :  9.37  163O :  9.34  226O :  9.28  145O :  9.18  190O :  9.06  280O :  8.78  532O :  8.75  538O :  8.72  238O :  8.58
  751O :  8.48  127O :  8.43  664O :  8.34  688O :  8.13  181O :  8.06  580O :  8.04  607O :  8.00   67O :  7.97  430O :  7.97  595O :  7.84  700O :  7.59  721O :  7.36
  736O :  7.34  592O :  7.33   40O :  7.33  547O :  7.27  427O :  7.26  247O :  7.24   46O :  7.20  640O :  7.15  373O :  7.15  178O :  6.99   97O :  6.92  709O :  6.90
  208O :  6.83  259O :  6.62  376O :  6.59   64O :  6.58  628O :  6.51  412O :  6.45  718O :  6.42  196O :  6.28  235O :  6.17  403O :  6.02  487O :  6.02  448O :  6.00
  409O :  5.88  472O :  5.86  331O :  5.82  754O :  5.79   13O :  5.78  211O :  5.66   28O :  5.61  298O :  5.61   73O :  5.61  520O :  5.59   82O :  5.59  604O :  5.34
  535O :  5.27  397O :  5.25  478O :  5.17  469O :  5.15  217O :  5.14  256O :  5.02  136O :  4.93  184O :  4.92  415O :  4.90  517O :  4.87  244O :  4.84  394O :  4.83
  379O :  4.83   19O :  4.76   43O :  4.69  598O :  4.59   76O :  4.58   10O :  4.51  673O :  4.41  355O :  4.37  229O :  4.36  139O :  4.27  436O :  4.26  511O :  4.25
  658O :  4.20  361O :  4.20  109O :  4.16  115O :  4.16  367O :  4.14  316O :  4.11  202O :  4.03  445O :  3.97  271O :  3.96  652O :  3.87  157O :  3.81  460O :  3.81
   37O :  3.72  262O :  3.71  637O :  3.71   34O :  3.58  328O :  3.53  160O :  3.51  223O :  3.51  286O :  3.44  562O :  3.44  358O :  3.41  715O :  3.31  694O :  3.26
  493O :  3.24  313O :  3.20  661O :  3.19  550O :  3.17  616O :  3.14  567H :  3.12  724O :  3.07  295O :  3.06  619O :  3.01   27H :  2.97  154O :  2.97  610O :  2.94
  421O :  2.94  727O :  2.89  214O :  2.79   85O :  2.79  484O :  2.74  191H :  2.71  304O :  2.70  559O :  2.68  307O :  2.65    1O :  2.61  172O :  2.59  424O :  2.54
  187O :  2.50    7O :  2.49  130O :  2.48   26H :  2.42  583O :  2.41  442O :  2.40  265O :  2.37  433O :  2.37  227H :  2.36  103O :  2.33  625O :  2.32  205O :  2.26
  385O :  2.24  745O :  2.21  364O :  2.19  100O :  2.18  577O :  2.16  568O :  2.13  572H :  2.10  283O :  2.06  346O :  2.05  622O :  2.05  556O :  2.02   91O :  1.99
  116H :  1.98  340O :  1.97  679O :  1.96  697O :  1.89  451O :  1.87  325O :  1.86  199O :  1.82  253O :  1.79  334O :  1.78  292O :  1.77  589O :  1.76    4O :  1.74
   16O :  1.71  750H :  1.70  370O :  1.70  129H :  1.69  393H :  1.69  733O :  1.67  475O :  1.66  169O :  1.65  481O :  1.59  710H :  1.58  221H :  1.54   89H :  1.54
  502O :  1.53  142O :  1.53  466O :  1.52  388O :  1.50  496O :  1.50  523O :  1.46  151O :  1.45  574O :  1.44  382O :  1.41  646O :  1.40  228H :  1.38  505O :  1.36
  133O :  1.33  553O :  1.33  491H :  1.33  112O :  1.32  730O :  1.29  544O :  1.26  374H :  1.25  586O :  1.23  175O :  1.18  670O :  1.16  148O :  1.15  417H :  1.14
  541O :  1.14  473H :  1.13   35H :  1.11  263H :  1.06  596H :  1.04  641H :  1.04  168H :  1.04  165H :  1.03  581H :  1.03  414H :  1.02   62H :  1.02   44H :  0.98
  232O :  0.97   71H :  0.96  682O :  0.93   39H :  0.92   69H :  0.91  540H :  0.91  439O :  0.91   55O :  0.89  608H :  0.89  399H :  0.86   63H :  0.86  742O :  0.84
  122H :  0.84  737H :  0.84  649O :  0.83  634O :  0.82  691O :  0.81  739O :  0.81  173H :  0.80  422H :  0.80  251H :  0.79  126H :  0.76   58O :  0.75  462H :  0.75
  594H :  0.74   96H :  0.74  155H :  0.73   20H :  0.73   75H :  0.72  349O :  0.72  161H :  0.71  230H :  0.70  657H :  0.69  406O :  0.69  522H :  0.69  322O :  0.68
  521H :  0.68  712O :  0.68   86H :  0.67   23H :  0.67   32H :  0.67  389H :  0.67  529O :  0.66   53H :  0.66  299H :  0.66  447H :  0.65  419H :  0.64  456H :  0.64
  526O :  0.64   50H :  0.63  188H :  0.62  179H :  0.62   18H :  0.62  617H :  0.62  111H :  0.61  212H :  0.61  275H :  0.59  147H :  0.58  706O :  0.58  663H :  0.58
  359H :  0.58  510H :  0.57  722H :  0.55  676O :  0.55  318H :  0.55  470H :  0.55  534H :  0.54  643O :  0.54  753H :  0.54  560H :  0.54  158H :  0.54  450H :  0.54
  241O :  0.52  284H :  0.51  667O :  0.51  356H :  0.51  186H :  0.51   80H :  0.50   95H :  0.49  213H :  0.48  755H :  0.47  416H :  0.47  638H :  0.47   72H :  0.46
  132H :  0.46  180H :  0.45  479H :  0.44  386H :  0.44  653H :  0.43  666H :  0.43  319O :  0.42   87H :  0.42  314H :  0.42  514O :  0.42  476H :  0.42  537H :  0.42
  125H :  0.41  527H :  0.41  615H :  0.41  193O :  0.41  501H :  0.41  699H :  0.40  189H :  0.40  681H :  0.40  463O :  0.40  573H :  0.38  392H :  0.38  717H :  0.38
  254H :  0.38  369H :  0.38  206H :  0.37  704H :  0.36  734H :  0.36   38H :  0.35  131H :  0.35  293H :  0.35  719H :  0.35  752H :  0.34   54H :  0.34  545H :  0.33
  123H :  0.33  404H :  0.33  575H :  0.33  317H :  0.33  233H :  0.32  348H :  0.32  326H :  0.32  222H :  0.32   74H :  0.31  405H :  0.31   17H :  0.31  551H :  0.31
  480H :  0.30  363H :  0.30  171H :  0.30  614H :  0.30  152H :  0.30  716H :  0.29  210H :  0.29  425H :  0.29  305H :  0.29  725H :  0.29  441H :  0.29  674H :  0.29
   41H :  0.28  687H :  0.28  380H :  0.27  110H :  0.27  555H :  0.27  732H :  0.27  312H :  0.27  245H :  0.27  378H :  0.26  357H :  0.26    2H :  0.26   12H :  0.25
  164H :  0.25  203H :  0.24  662H :  0.24   45H :  0.24  587H :  0.24  398H :  0.24  432H :  0.23  624H :  0.23  593H :  0.23  239H :  0.23  269H :  0.22  360H :  0.22
  746H :  0.22  665H :  0.22  332H :  0.22  272H :  0.22  216H :  0.22  579H :  0.22  308H :  0.21  626H :  0.21  738H :  0.21  134H :  0.21  384H :  0.21  146H :  0.21
  194H :  0.21  756H :  0.20  204H :  0.20  539H :  0.20  258H :  0.20  747H :  0.20  549H :  0.19  705H :  0.19  297H :  0.19    6H :  0.19  372H :  0.19  428H :  0.19
  627H :  0.18  474H :  0.18  289O :  0.18   98H :  0.17  255H :  0.17   29H :  0.17  197H :  0.17  675H :  0.17  671H :  0.17  443H :  0.17  531H :  0.17  524H :  0.17
  135H :  0.16   51H :  0.16  209H :  0.16  177H :  0.16  609H :  0.16  323H :  0.16  518H :  0.15  561H :  0.15  315H :  0.15  167H :  0.15  467H :  0.15  689H :  0.15
  650H :  0.15  678H :  0.15  273H :  0.15  435H :  0.15  225H :  0.14  698H :  0.14   24H :  0.14  483H :  0.14  114H :  0.14   99H :  0.14  396H :  0.14  683H :  0.13
   36H :  0.13  459H :  0.13  509H :  0.13  341H :  0.12  137H :  0.12  660H :  0.12  621H :  0.12  105H :  0.12  591H :  0.12  119H :  0.12  324H :  0.12  611H :  0.12
  455H :  0.11  402H :  0.11  728H :  0.11  150H :  0.11  585H :  0.11  633H :  0.11   84H :  0.11  639H :  0.10   42H :  0.10  200H :  0.10  495H :  0.10  680H :  0.10
  486H :  0.10  176H :  0.10  104H :  0.10  713H :  0.10  342H :  0.10  599H :  0.10  195H :  0.10  429H :  0.10  143H :  0.09  303H :  0.09   65H :  0.09  377H :  0.09
  743H :  0.09  497H :  0.09  695H :  0.09   15H :  0.09  648H :  0.09  281H :  0.09  128H :  0.09  744H :  0.09  408H :  0.08  327H :  0.08  120H :  0.08  231H :  0.08
  513H :  0.08  605H :  0.08  597H :  0.07  570H :  0.07  630H :  0.07  708H :  0.07  343O :  0.07   60H :  0.07  582H :  0.07  140H :  0.07  618H :  0.07  260H :  0.07
    3 LP   *******   0.00  -3.86172  51.72523   5.45035   22O : 23.18  454O : 21.19   52O : 20.12  631O : 19.60  166O : 17.66  748O : 17.12  613O : 17.09  565O : 16.85   25O : 16.48  274O : 16.43  301O : 16.20  571O : 15.28
  391O : 14.33  655O : 13.97  277O : 13.92  490O : 13.43   79O : 13.15  508O : 13.10  268O : 12.08  601O : 11.69   88O : 11.64   31O : 11.51  118O : 10.79  400O : 10.61
  106O : 10.45  685O : 10.40  310O : 10.39   49O : 10.39   61O : 10.27  457O : 10.09   70O :  9.83  124O :  9.73   94O :  9.47  250O :  9.46  418O :  9.29  220O :  9.28
  337O :  9.23  121O :  9.21  499O :  9.20  703O :  8.99  163O :  8.96  226O :  8.90  145O :  8.81  190O :  8.48  280O :  8.43  532O :  8.39  538O :  8.37  238O :  8.23
  664O :  8.22  751O :  8.14  127O :  8.09  688O :  7.80  181O :  7.73  580O :  7.72  607O :  7.68   67O :  7.65  430O :  7.65  595O :  7.52  700O :  7.29  721O :  7.06
  736O :  7.04   40O :  7.03  592O :  7.02  547O :  6.98  427O :  6.97  247O :  6.97   46O :  6.91  373O :  6.86  640O :  6.86  178O :  6.71   97O :  6.64  709O :  6.62
  208O :  6.58  259O :  6.35  376O :  6.33   64O :  6.31  628O :  6.24  412O :  6.20  718O :  6.17  196O :  6.03  235O :  5.92  403O :  5.78  487O :  5.78  448O :  5.76
  409O :  5.65  472O :  5.62  331O :  5.58  754O :  5.55   13O :  5.49  211O :  5.43   28O :  5.38  298O :  5.38   73O :  5.38  520O :  5.37   82O :  5.35  604O :  5.13
  535O :  5.05  397O :  5.04  478O :  4.96  469O :  4.95  217O :  4.93  256O :  4.82  136O :  4.73  184O :  4.72  415O :  4.70  517O :  4.67  244O :  4.64  394O :  4.64
  379O :  4.63   19O :  4.56   43O :  4.49  598O :  4.40   76O :  4.39   10O :  4.32  673O :  4.23  355O :  4.20  229O :  4.18  139O :  4.10  436O :  4.09  511O :  4.08
  658O :  4.03  361O :  4.03  109O :  4.00  115O :  3.99  367O :  3.98  316O :  3.95  202O :  3.86  445O :  3.81  271O :  3.80  652O :  3.72  157O :  3.66  460O :  3.66
   37O :  3.57  637O :  3.56  262O :  3.55   34O :  3.43  328O :  3.39  223O :  3.37  160O :  3.37  286O :  3.30  562O :  3.30  358O :  3.26  715O :  3.18  694O :  3.13
  493O :  3.11  313O :  3.08  661O :  3.06  550O :  3.04  616O :  3.02  567H :  2.99  724O :  2.94  295O :  2.94  619O :  2.88   27H :  2.85  154O :  2.85  421O :  2.82
  610O :  2.81  727O :  2.77  307O :  2.76   85O :  2.68  214O :  2.68  484O :  2.63  304O :  2.59  191H :  2.58  559O :  2.57    1O :  2.51  172O :  2.50  424O :  2.43
  187O :  2.39    7O :  2.39  130O :  2.38   26H :  2.32  583O :  2.31  442O :  2.30  265O :  2.28  433O :  2.27  227H :  2.27  103O :  2.23  625O :  2.22  205O :  2.17
  385O :  2.15  745O :  2.12  364O :  2.10  100O :  2.09  577O :  2.07  568O :  2.05  572H :  2.01  283O :  1.98  346O :  1.97  622O :  1.97  556O :  1.94   91O :  1.91
  116H :  1.90  340O :  1.89  679O :  1.88  697O :  1.81  451O :  1.80  325O :  1.78  199O :  1.75  334O :  1.71  292O :  1.70  589O :  1.69    4O :  1.67   16O :  1.64
  750H :  1.64  370O :  1.63  129H :  1.62  393H :  1.62  169O :  1.62  253O :  1.61  733O :  1.61  475O :  1.60  481O :  1.52  710H :  1.52  388O :  1.51  221H :  1.48
   89H :  1.47  502O :  1.46  466O :  1.46  496O :  1.44  142O :  1.43  523O :  1.40  151O :  1.39  574O :  1.38  382O :  1.35  646O :  1.35  228H :  1.33  505O :  1.31
  133O :  1.28  553O :  1.28  491H :  1.27  112O :  1.27  730O :  1.24  544O :  1.21  374H :  1.20  586O :  1.18  175O :  1.14  670O :  1.11  148O :  1.10  417H :  1.10
  541O :  1.09  473H :  1.09   35H :  1.06  263H :  1.02  596H :  1.00  641H :  1.00  165H :  0.99  168H :  0.99  581H :  0.99   62H :  0.97  414H :  0.97   44H :  0.94
  232O :  0.93   71H :  0.92  682O :  0.89   39H :  0.89   69H :  0.88  540H :  0.87  439O :  0.87  608H :  0.85   55O :  0.83  399H :  0.83   63H :  0.83  742O :  0.81
  122H :  0.81  737H :  0.80  649O :  0.80  634O :  0.79  173H :  0.79  691O :  0.78  739O :  0.77  422H :  0.77  126H :  0.76  251H :  0.75   23H :  0.73   58O :  0.72
  462H :  0.72  594H :  0.72   96H :  0.71  155H :  0.70   20H :  0.70   75H :  0.69  349O :  0.69  161H :  0.68  230H :  0.67  657H :  0.67  406O :  0.66  522H :  0.66
  322O :  0.65  521H :  0.65  712O :  0.65   86H :  0.65   32H :  0.64  389H :  0.64  529O :  0.63   53H :  0.63  299H :  0.63  447H :  0.62  419H :  0.61  526O :  0.61
   50H :  0.60  188H :  0.60  179H :  0.60   18H :  0.59  617H :  0.59  111H :  0.59  212H :  0.59  275H :  0.57  147H :  0.56  706O :  0.56  663H :  0.56  359H :  0.56
  510H :  0.55  722H :  0.53  676O :  0.53  318H :  0.53  470H :  0.52  534H :  0.52  643O :  0.52  753H :  0.52  560H :  0.52  450H :  0.51  158H :  0.51  456H :  0.50
  241O :  0.50  284H :  0.49  667O :  0.49  356H :  0.49  186H :  0.48   80H :  0.48   95H :  0.47  213H :  0.46  755H :  0.45  416H :  0.45  638H :  0.45  132H :  0.44
   72H :  0.44  180H :  0.43  479H :  0.42  386H :  0.42  653H :  0.42  666H :  0.41   87H :  0.41  319O :  0.40  314H :  0.40  476H :  0.40  514O :  0.40  537H :  0.40
  527H :  0.39  615H :  0.39  193O :  0.39  501H :  0.39  125H :  0.39  699H :  0.39  681H :  0.38  189H :  0.38  463O :  0.38  573H :  0.37  392H :  0.36  717H :  0.36
  369H :  0.36  254H :  0.35  206H :  0.35  704H :  0.35  734H :  0.34   38H :  0.34  293H :  0.34  131H :  0.33  719H :  0.33  752H :  0.32   54H :  0.32  545H :  0.32
  123H :  0.32  404H :  0.32  575H :  0.31  317H :  0.31  233H :  0.31  348H :  0.31  326H :  0.31  222H :  0.31   74H :  0.30  405H :  0.30   17H :  0.30  551H :  0.30
  480H :  0.29  363H :  0.29  171H :  0.29  614H :  0.29  152H :  0.29  716H :  0.28  210H :  0.28  425H :  0.28  305H :  0.28  725H :  0.28  441H :  0.28  674H :  0.27
   41H :  0.27  687H :  0.27  380H :  0.26  110H :  0.26  555H :  0.26  732H :  0.26  312H :  0.26  245H :  0.26  378H :  0.25  357H :  0.25    2H :  0.25   12H :  0.24
  164H :  0.24  203H :  0.23  662H :  0.23   45H :  0.23  587H :  0.23  398H :  0.23  432H :  0.22  624H :  0.22  593H :  0.22  239H :  0.22  269H :  0.22  360H :  0.21
  746H :  0.21  308H :  0.21  665H :  0.21  332H :  0.21  272H :  0.21  216H :  0.21  579H :  0.21  626H :  0.21  738H :  0.20  134H :  0.20  384H :  0.20  146H :  0.20
  194H :  0.20  756H :  0.19  204H :  0.19  539H :  0.19  258H :  0.19  747H :  0.19  549H :  0.19  705H :  0.19    6H :  0.18  297H :  0.18  372H :  0.18  428H :  0.18
  627H :  0.18  474H :  0.17  289O :  0.17   98H :  0.17   29H :  0.17  255H :  0.17  197H :  0.16  675H :  0.16  671H :  0.16  443H :  0.16  531H :  0.16  524H :  0.16
  135H :  0.16   51H :  0.15  209H :  0.15  177H :  0.15  609H :  0.15  323H :  0.15  518H :  0.15  561H :  0.15  315H :  0.15  167H :  0.14  467H :  0.14  689H :  0.14
  650H :  0.14  678H :  0.14  273H :  0.14  435H :  0.14  225H :  0.14  698H :  0.14  483H :  0.13  114H :  0.13   99H :  0.13  396H :  0.13   36H :  0.13  683H :  0.13
  459H :  0.12  509H :  0.12  341H :  0.12  137H :  0.12  660H :  0.12  621H :  0.12  105H :  0.12  591H :  0.12  119H :  0.11  324H :  0.11  611H :  0.11   24H :  0.11
  402H :  0.11  728H :  0.10  150H :  0.10  585H :  0.10  633H :  0.10  639H :  0.10   42H :  0.10  200H :  0.10  495H :  0.10  680H :  0.10  486H :  0.10  176H :  0.10
  104H :  0.10  713H :  0.10  342H :  0.10  599H :  0.09  195H :  0.09  429H :  0.09  303H :  0.09   65H :  0.09  377H :  0.09  743H :  0.09  143H :  0.09  497H :  0.08
  695H :  0.08  281H :  0.08  648H :  0.08   84H :  0.08  128H :  0.08  744H :  0.08  408H :  0.08  120H :  0.08  327H :  0.08  231H :  0.08  513H :  0.07  605H :  0.07
  597H :  0.07  570H :  0.07  630H :  0.07  708H :  0.07  343O :  0.07   60H :  0.07
    4 LP   *******   0.00 -20.47159  40.12161  18.18836   22O : 21.13  166O : 19.28   52O : 18.35  631O : 17.87  454O : 17.02  748O : 15.61  613O : 15.57  565O : 15.37   25O : 15.03  274O : 14.98  301O : 14.77  571O : 13.93
  391O : 13.07  655O : 12.73  277O : 12.69  490O : 12.18   79O : 12.00  508O : 11.94  268O : 11.01  601O : 10.66   88O : 10.62   31O : 10.50  118O :  9.84  400O :  9.67
  106O :  9.53  685O :  9.48  310O :  9.48   61O :  9.37  457O :  9.19   49O :  8.97  124O :  8.93   70O :  8.91  250O :  8.63   94O :  8.63  418O :  8.47  220O :  8.46
  337O :  8.41  121O :  8.40  499O :  8.39  703O :  8.20  163O :  8.17  226O :  8.12  145O :  8.03  190O :  7.73  280O :  7.69  532O :  7.65  538O :  7.63  238O :  7.50
  664O :  7.49  751O :  7.42  127O :  7.38  688O :  7.11  181O :  7.07  580O :  7.04  607O :  7.00   67O :  6.98  430O :  6.98  595O :  6.86  700O :  6.65  721O :  6.44
  736O :  6.42   40O :  6.41  592O :  6.40  547O :  6.36  427O :  6.35  247O :  6.33   46O :  6.30  640O :  6.26  373O :  6.26  178O :  6.12   97O :  6.07  709O :  6.04
  208O :  6.00  259O :  5.79  376O :  5.77   64O :  5.76  628O :  5.69  412O :  5.65  718O :  5.62  196O :  5.50  235O :  5.40  403O :  5.28  487O :  5.27  448O :  5.25
  409O :  5.15  472O :  5.13  331O :  5.09   13O :  5.06  754O :  5.06  211O :  4.96   28O :  4.91  298O :  4.91   73O :  4.90  520O :  4.90   82O :  4.89  604O :  4.67
  535O :  4.61  397O :  4.59  478O :  4.52  469O :  4.51  217O :  4.50  256O :  4.39  136O :  4.32  184O :  4.30  415O :  4.29  517O :  4.26  244O :  4.23  394O :  4.23
  379O :  4.23   19O :  4.16   43O :  4.11  598O :  4.01   76O :  4.00   10O :  3.94  673O :  3.86  355O :  3.83  229O :  3.82  139O :  3.74  436O :  3.73  511O :  3.72
  658O :  3.68  361O :  3.67  109O :  3.64  115O :  3.64  367O :  3.63  316O :  3.60  202O :  3.52  445O :  3.48  271O :  3.44  652O :  3.39  157O :  3.34  460O :  3.33
   37O :  3.26  262O :  3.25  637O :  3.24   34O :  3.13  328O :  3.09  223O :  3.07  160O :  3.07  562O :  3.01  286O :  3.01  358O :  2.97  715O :  2.91  694O :  2.85
  493O :  2.83  313O :  2.80  661O :  2.79  550O :  2.77  616O :  2.75  567H :  2.73  724O :  2.68  295O :  2.68  619O :  2.63   27H :  2.60  154O :  2.60  421O :  2.57
  610O :  2.56  727O :  2.53  307O :  2.52   85O :  2.44  214O :  2.44  484O :  2.40  304O :  2.36  191H :  2.35  559O :  2.34    1O :  2.29  172O :  2.28  424O :  2.22
  187O :  2.19    7O :  2.18  130O :  2.17   26H :  2.12  583O :  2.11  442O :  2.10  265O :  2.08  433O :  2.07  227H :  2.07  103O :  2.04  625O :  2.03  205O :  1.98
  385O :  1.96  745O :  1.93  364O :  1.91  100O :  1.91  577O :  1.89  568O :  1.87  572H :  1.84  283O :  1.80  622O :  1.79  556O :  1.77   91O :  1.74  116H :  1.73
  340O :  1.73  679O :  1.71  346O :  1.70  697O :  1.65  451O :  1.64  325O :  1.63  199O :  1.59  253O :  1.57  334O :  1.56  292O :  1.55  589O :  1.55    4O :  1.53
   16O :  1.50  750H :  1.49  370O :  1.49  129H :  1.48  393H :  1.48  169O :  1.48  733O :  1.47  475O :  1.45  481O :  1.39  710H :  1.38  221H :  1.35   89H :  1.34
  502O :  1.33  466O :  1.33  496O :  1.31  142O :  1.30  523O :  1.28  151O :  1.27  574O :  1.26  382O :  1.23  646O :  1.23  228H :  1.21  388O :  1.20  505O :  1.19
  133O :  1.17  553O :  1.16  491H :  1.16  112O :  1.16  730O :  1.13  544O :  1.10  374H :  1.10  586O :  1.08  175O :  1.04  670O :  1.02  148O :  1.00  417H :  1.00
  541O :  1.00  473H :  0.99   35H :  0.97  263H :  0.93  596H :  0.91  641H :  0.91  165H :  0.91  581H :  0.90   62H :  0.89  414H :  0.89   44H :  0.86  232O :  0.85
   71H :  0.84  168H :  0.82  682O :  0.81   39H :  0.81   69H :  0.80  540H :  0.80  439O :  0.79  608H :  0.78   55O :  0.76  399H :  0.76   63H :  0.75  742O :  0.74
  122H :  0.73  737H :  0.73  649O :  0.73  634O :  0.72  173H :  0.72  691O :  0.71  739O :  0.71  422H :  0.70   58O :  0.69  251H :  0.69  126H :  0.67   23H :  0.67
  462H :  0.66  594H :  0.65   96H :  0.65  155H :  0.64   20H :  0.63   75H :  0.63  349O :  0.63  161H :  0.62  230H :  0.61  657H :  0.61  406O :  0.60  522H :  0.60
  712O :  0.60  322O :  0.60  521H :  0.60   86H :  0.59   32H :  0.58  529O :  0.58   53H :  0.58  299H :  0.57  389H :  0.57  447H :  0.57  419H :  0.56  456H :  0.56
  526O :  0.56  188H :  0.55  179H :  0.54   18H :  0.54  617H :  0.54  111H :  0.54  212H :  0.54  275H :  0.52  147H :  0.51  706O :  0.51  359H :  0.51  663H :  0.50
  510H :  0.50  722H :  0.48  676O :  0.48  318H :  0.48  470H :  0.48  534H :  0.48  643O :  0.47  560H :  0.47  753H :  0.47  158H :  0.47  450H :  0.47  241O :  0.46
  284H :  0.45  667O :  0.45  356H :  0.44  186H :  0.44   80H :  0.44   95H :  0.43  213H :  0.42  755H :  0.41  416H :  0.41  638H :  0.41   72H :  0.40  132H :  0.40
  180H :  0.39  479H :  0.38  386H :  0.38   50H :  0.38  653H :  0.38  666H :  0.38   87H :  0.37  125H :  0.37  319O :  0.37  314H :  0.37  514O :  0.37  476H :  0.37
  537H :  0.37  527H :  0.36  615H :  0.36  193O :  0.36  501H :  0.35  699H :  0.35  189H :  0.35  681H :  0.35  463O :  0.35  573H :  0.34  392H :  0.33  717H :  0.33
  254H :  0.33  369H :  0.33  206H :  0.32  704H :  0.32  734H :  0.31   38H :  0.31  131H :  0.31  293H :  0.31  719H :  0.30  752H :  0.30   54H :  0.29  545H :  0.29
  123H :  0.29  404H :  0.29  575H :  0.29  348H :  0.29  317H :  0.28  233H :  0.28  326H :  0.28  222H :  0.28   74H :  0.27  405H :  0.27   17H :  0.27  551H :  0.27
  480H :  0.27  363H :  0.27  171H :  0.26  614H :  0.26  152H :  0.26  716H :  0.26  210H :  0.25  425H :  0.25  305H :  0.25  725H :  0.25  441H :  0.25  674H :  0.25
   41H :  0.25  687H :  0.24  380H :  0.24  110H :  0.24  555H :  0.24  732H :  0.24  312H :  0.24  245H :  0.24  378H :  0.23  357H :  0.23    2H :  0.23   12H :  0.22
  164H :  0.21  203H :  0.21  662H :  0.21  587H :  0.21   45H :  0.21  398H :  0.21  432H :  0.20  624H :  0.20  593H :  0.20  239H :  0.20  269H :  0.20  360H :  0.20
  746H :  0.19  272H :  0.19  308H :  0.19  665H :  0.19  332H :  0.19  216H :  0.19  579H :  0.19  626H :  0.19  738H :  0.19  384H :  0.18  134H :  0.18  146H :  0.18
  194H :  0.18  756H :  0.18  204H :  0.18  539H :  0.17  258H :  0.17  747H :  0.17  549H :  0.17  705H :  0.17  297H :  0.17  372H :  0.17  428H :  0.17    6H :  0.17
  627H :  0.16  474H :  0.16  289O :  0.16   98H :  0.15  255H :  0.15   29H :  0.15  197H :  0.15  675H :  0.15  671H :  0.15  443H :  0.15  531H :  0.15  524H :  0.15
  135H :  0.14   51H :  0.14  209H :  0.14  177H :  0.14  609H :  0.14  323H :  0.14  518H :  0.14  561H :  0.13  315H :  0.13  467H :  0.13  689H :  0.13  650H :  0.13
  678H :  0.13  273H :  0.13  435H :  0.13  225H :  0.13  698H :  0.12  483H :  0.12  114H :  0.12   99H :  0.12  396H :  0.12  683H :  0.12   36H :  0.12  459H :  0.11
  509H :  0.11  341H :  0.11  137H :  0.11  660H :  0.11  105H :  0.11  621H :  0.11  119H :  0.10  591H :  0.10  324H :  0.10  455H :  0.10  611H :  0.10   24H :  0.10
  402H :  0.10  728H :  0.10  150H :  0.10  585H :  0.10  633H :  0.09  713H :  0.09   84H :  0.09  639H :  0.09   42H :  0.09  200H :  0.09  495H :  0.09  680H :  0.09
  486H :  0.09  176H :  0.09  104H :  0.09  342H :  0.09  599H :  0.08  195H :  0.08  429H :  0.08  303H :  0.08   65H :  0.08  167H :  0.08  377H :  0.08  743H :  0.08
  143H :  0.08  497H :  0.08  695H :  0.08  648H :  0.08  281H :  0.08  128H :  0.07  744H :  0.07  408H :  0.07   15H :  0.07  120H :  0.07  327H :  0.07
    5 LP   *******   0.00 -28.09408  71.60337   7.28474   22O : 18.55  613O : 17.03   52O : 16.10  631O : 15.68  454O : 14.94  166O : 14.12  748O : 13.70  565O : 13.49   25O : 13.19  274O : 13.15  301O : 12.96  571O : 12.23
  391O : 11.47  655O : 11.17  277O : 11.14  490O : 10.57   79O : 10.52  508O : 10.48  268O :  9.66  601O :  9.35   88O :  9.32   31O :  9.21  118O :  8.63  400O :  8.49
  106O :  8.36  685O :  8.32   49O :  8.32   61O :  8.22  310O :  8.19  457O :  8.07   70O :  7.81  124O :  7.81   94O :  7.58  250O :  7.57  418O :  7.43  220O :  7.43
  337O :  7.38  121O :  7.37  499O :  7.36  703O :  7.20  163O :  7.17  226O :  7.12  145O :  7.05  190O :  6.79  280O :  6.75  532O :  6.72  538O :  6.70  238O :  6.59
  664O :  6.58  751O :  6.52  127O :  6.47  688O :  6.24  181O :  6.18  580O :  6.17  607O :  6.15   67O :  6.12  430O :  6.12  595O :  6.02  700O :  5.83  721O :  5.65
  736O :  5.63   40O :  5.63  592O :  5.62  547O :  5.58  427O :  5.58  247O :  5.56   46O :  5.53  373O :  5.49  640O :  5.49  178O :  5.37   97O :  5.32  709O :  5.30
  208O :  5.27  259O :  5.08  376O :  5.06   64O :  5.05  628O :  4.99  412O :  4.96  718O :  4.93  196O :  4.83  235O :  4.74  403O :  4.63  487O :  4.62  448O :  4.61
  409O :  4.52  472O :  4.50  331O :  4.46  754O :  4.44   13O :  4.42  211O :  4.35   28O :  4.31   73O :  4.31  298O :  4.31  520O :  4.30   82O :  4.29  604O :  4.10
  535O :  4.04  397O :  4.03  478O :  3.97  469O :  3.96  217O :  3.95  256O :  3.86  136O :  3.79  184O :  3.78  415O :  3.76  517O :  3.74  394O :  3.71  379O :  3.71
   19O :  3.65   43O :  3.60  244O :  3.60  598O :  3.52   76O :  3.51   10O :  3.46  673O :  3.39  355O :  3.36  229O :  3.35  139O :  3.28  436O :  3.27  511O :  3.26
  658O :  3.23  361O :  3.22  109O :  3.20  115O :  3.19  367O :  3.18  316O :  3.16  202O :  3.09  445O :  3.05  271O :  3.04  652O :  2.97  157O :  2.93  460O :  2.93
   37O :  2.86  262O :  2.85  637O :  2.85   34O :  2.75  328O :  2.71  160O :  2.70  223O :  2.70  286O :  2.64  562O :  2.64  358O :  2.61  715O :  2.54  694O :  2.51
  493O :  2.49  313O :  2.46  661O :  2.45  550O :  2.43  616O :  2.41  567H :  2.39  724O :  2.35  295O :  2.35  619O :  2.30   27H :  2.28  154O :  2.28  421O :  2.26
  610O :  2.25  727O :  2.22  307O :  2.21   85O :  2.14  214O :  2.14  484O :  2.10  304O :  2.07  191H :  2.06  559O :  2.04    1O :  2.01  172O :  2.00  424O :  1.95
  187O :  1.92    7O :  1.91  130O :  1.90   26H :  1.86  583O :  1.85  442O :  1.84  265O :  1.82  433O :  1.82  227H :  1.82  103O :  1.79  625O :  1.78  205O :  1.74
  385O :  1.72  745O :  1.70  364O :  1.68  100O :  1.68  577O :  1.66  568O :  1.64  572H :  1.61  283O :  1.58  346O :  1.57  622O :  1.57  556O :  1.55   91O :  1.53
  116H :  1.52  340O :  1.52  679O :  1.50  697O :  1.45  451O :  1.43  325O :  1.43  199O :  1.40  253O :  1.38  334O :  1.37  292O :  1.36  589O :  1.35    4O :  1.33
   16O :  1.31  750H :  1.31  370O :  1.30  129H :  1.30  393H :  1.30  169O :  1.29  733O :  1.29  475O :  1.28  481O :  1.22  710H :  1.21  221H :  1.18   89H :  1.18
  502O :  1.17  466O :  1.17  388O :  1.16  496O :  1.15  142O :  1.14  523O :  1.12  151O :  1.11  574O :  1.11  382O :  1.08  646O :  1.08  228H :  1.06  505O :  1.05
  133O :  1.02  553O :  1.02  112O :  1.01  491H :  1.01  730O :  0.99  544O :  0.97  374H :  0.96  586O :  0.95  175O :  0.91  670O :  0.89  148O :  0.88  417H :  0.88
  541O :  0.88  473H :  0.86   35H :  0.85  263H :  0.82  596H :  0.80  641H :  0.80  168H :  0.79  165H :  0.79  581H :  0.79   62H :  0.78  414H :  0.78   44H :  0.75
  232O :  0.74   71H :  0.73  682O :  0.71   39H :  0.71   69H :  0.71  540H :  0.70  439O :  0.70  608H :  0.68   55O :  0.67  399H :  0.66   63H :  0.66  742O :  0.65
  122H :  0.64  737H :  0.64  649O :  0.64  634O :  0.63  173H :  0.63  691O :  0.62  739O :  0.62  422H :  0.61  251H :  0.60   23H :  0.59  126H :  0.58   58O :  0.58
  462H :  0.58  594H :  0.57   96H :  0.57  155H :  0.56  349O :  0.56   20H :  0.56   75H :  0.55  161H :  0.55  230H :  0.54  657H :  0.53  406O :  0.53  522H :  0.53
  322O :  0.52  521H :  0.52  712O :  0.52   86H :  0.52   32H :  0.51  389H :  0.51  529O :  0.51   53H :  0.50  299H :  0.50  447H :  0.50  419H :  0.49  456H :  0.49
  526O :  0.49   50H :  0.48  188H :  0.48  179H :  0.48   18H :  0.48  617H :  0.47  111H :  0.47  212H :  0.47  275H :  0.46  147H :  0.45  706O :  0.45  663H :  0.45
  359H :  0.45  510H :  0.44  722H :  0.42  676O :  0.42  318H :  0.42  470H :  0.42  643O :  0.42  534H :  0.42  753H :  0.41  158H :  0.41  450H :  0.41  560H :  0.41
  284H :  0.40  667O :  0.39  241O :  0.39  356H :  0.39  186H :  0.39   80H :  0.38   95H :  0.37  213H :  0.36  755H :  0.36  416H :  0.36  638H :  0.36   72H :  0.35
  132H :  0.35  180H :  0.34  479H :  0.34  386H :  0.33  653H :  0.33  666H :  0.33   87H :  0.32  319O :  0.32  314H :  0.32  476H :  0.32  514O :  0.32  537H :  0.32
  125H :  0.32  527H :  0.32  193O :  0.31  501H :  0.31  699H :  0.31  189H :  0.31  681H :  0.31  463O :  0.31  573H :  0.30  392H :  0.29  254H :  0.29  369H :  0.29
  717H :  0.28  206H :  0.28  704H :  0.28  734H :  0.27  293H :  0.27   38H :  0.27  131H :  0.27  719H :  0.27  752H :  0.26   54H :  0.26  545H :  0.25  123H :  0.25
  404H :  0.25  575H :  0.25  317H :  0.25  233H :  0.25  348H :  0.25  326H :  0.25  222H :  0.24   74H :  0.24  405H :  0.24  615H :  0.24   17H :  0.24  551H :  0.24
  480H :  0.23  363H :  0.23  171H :  0.23  152H :  0.23  716H :  0.22  210H :  0.22  425H :  0.22  305H :  0.22  725H :  0.22  441H :  0.22  674H :  0.22  687H :  0.21
   41H :  0.21  312H :  0.21  380H :  0.21  110H :  0.21  555H :  0.21  732H :  0.21  378H :  0.20  357H :  0.20    2H :  0.20   12H :  0.19  164H :  0.19  203H :  0.19
  662H :  0.18  587H :  0.18   45H :  0.18  398H :  0.18  432H :  0.18  624H :  0.18  593H :  0.18  614H :  0.18  239H :  0.18  269H :  0.17  360H :  0.17  746H :  0.17
  308H :  0.17  665H :  0.17  332H :  0.17  272H :  0.17  216H :  0.17  579H :  0.17  626H :  0.16  738H :  0.16  134H :  0.16  384H :  0.16  146H :  0.16  194H :  0.16
  756H :  0.16  204H :  0.15  539H :  0.15  258H :  0.15  747H :  0.15  549H :  0.15  705H :  0.15    6H :  0.15  297H :  0.15  372H :  0.15  428H :  0.15  245H :  0.14
  627H :  0.14  289O :  0.14  474H :  0.13   98H :  0.13  255H :  0.13   29H :  0.13  197H :  0.13  675H :  0.13  671H :  0.13  443H :  0.13  531H :  0.13  524H :  0.13
  135H :  0.13   51H :  0.12  209H :  0.12  177H :  0.12  609H :  0.12  323H :  0.12  518H :  0.12  315H :  0.12  167H :  0.12  467H :  0.12  561H :  0.11  689H :  0.11
  650H :  0.11  678H :  0.11  273H :  0.11  435H :  0.11  225H :  0.11  698H :  0.11  483H :  0.11  396H :  0.11  114H :  0.11   99H :  0.11  683H :  0.10   36H :  0.10
  459H :  0.10  509H :  0.10  341H :  0.10  137H :  0.09  660H :  0.09  621H :  0.09  105H :  0.09  591H :  0.09  119H :  0.09  324H :  0.09  455H :  0.09  611H :  0.09
   24H :  0.09  402H :  0.08  728H :  0.08  150H :  0.08  585H :  0.08  633H :  0.08   84H :  0.08  639H :  0.08   42H :  0.08  200H :  0.08  495H :  0.08  680H :  0.08
  486H :  0.08  176H :  0.08  104H :  0.08  713H :  0.08  342H :  0.08  599H :  0.07  195H :  0.07  429H :  0.07  303H :  0.07   65H :  0.07
    6 LP   *******   0.00  34.24193  61.74027 -26.44590   22O : 16.33   52O : 14.18  631O : 13.81  454O : 13.15  391O : 12.94  166O : 12.43  748O : 12.07  613O : 12.03  565O : 11.88   25O : 11.61  274O : 11.58  301O : 11.42
  571O : 10.76  655O :  9.84  277O :  9.81  490O :  9.41   79O :  9.27  508O :  9.23  268O :  8.51  601O :  8.24   88O :  8.21   31O :  8.11  118O :  7.60  400O :  7.48
  106O :  7.36  310O :  7.34  685O :  7.33   49O :  7.33   61O :  7.24  457O :  7.12   70O :  6.88  124O :  6.88   94O :  6.67  250O :  6.67  418O :  6.54  220O :  6.54
  337O :  6.50  121O :  6.49  499O :  6.48  703O :  6.34  163O :  6.32  226O :  6.27  145O :  6.21  190O :  5.98  280O :  5.94  532O :  5.91  538O :  5.90  238O :  5.80
  664O :  5.79  751O :  5.74  127O :  5.70  688O :  5.50  430O :  5.47  181O :  5.45  580O :  5.44  607O :  5.41   67O :  5.39  595O :  5.30  700O :  5.14  721O :  4.98
  736O :  4.96   40O :  4.95  592O :  4.94  427O :  4.91  247O :  4.90   46O :  4.87  547O :  4.84  373O :  4.84  640O :  4.84  178O :  4.73   97O :  4.68  709O :  4.67
  208O :  4.64  259O :  4.47  376O :  4.46   64O :  4.45  628O :  4.40  412O :  4.37  718O :  4.35  196O :  4.25  235O :  4.17  403O :  4.07  487O :  4.07  448O :  4.06
  409O :  3.98  472O :  3.96  331O :  3.93   13O :  3.91  754O :  3.91  211O :  3.83   28O :  3.80   73O :  3.79  298O :  3.79  520O :  3.78   82O :  3.78  604O :  3.61
  535O :  3.56  397O :  3.55  478O :  3.50  469O :  3.49  217O :  3.48  256O :  3.40  136O :  3.34  184O :  3.33  415O :  3.31  517O :  3.29  244O :  3.27  394O :  3.27
  379O :  3.27   19O :  3.22   43O :  3.17  598O :  3.10   76O :  3.09   10O :  3.05  673O :  2.98  355O :  2.96  229O :  2.95  139O :  2.89  436O :  2.88  511O :  2.87
  658O :  2.84  361O :  2.84  109O :  2.81  115O :  2.81  367O :  2.80  316O :  2.78  202O :  2.72  445O :  2.69  271O :  2.68  652O :  2.62  157O :  2.58  460O :  2.58
   37O :  2.52  262O :  2.51  637O :  2.51   34O :  2.42  328O :  2.39  223O :  2.38  160O :  2.38  286O :  2.32  562O :  2.32  358O :  2.30  715O :  2.24  694O :  2.21
  493O :  2.19  313O :  2.17  661O :  2.16  550O :  2.14  616O :  2.13  567H :  2.11  724O :  2.07  295O :  2.07  619O :  2.03   27H :  2.01  154O :  2.01  421O :  1.99
  610O :  1.98  727O :  1.95  307O :  1.94   85O :  1.89  214O :  1.89  484O :  1.85  304O :  1.83  191H :  1.82  559O :  1.81    1O :  1.77  172O :  1.76  424O :  1.71
  187O :  1.69    7O :  1.68  130O :  1.68   26H :  1.64  583O :  1.63  442O :  1.62  265O :  1.60  433O :  1.60  227H :  1.60  103O :  1.57  625O :  1.56  205O :  1.53
  385O :  1.52  745O :  1.50  364O :  1.49  100O :  1.48  577O :  1.46  568O :  1.44  572H :  1.42  283O :  1.39  346O :  1.39  622O :  1.39  556O :  1.37   91O :  1.35
  116H :  1.34  340O :  1.33  679O :  1.32  697O :  1.28  451O :  1.27  325O :  1.26  199O :  1.23  253O :  1.21  334O :  1.20  292O :  1.20  589O :  1.19    4O :  1.17
   16O :  1.16  750H :  1.15  370O :  1.15  129H :  1.14  169O :  1.14  733O :  1.13  475O :  1.12  481O :  1.07  710H :  1.07  393H :  1.05  221H :  1.04   89H :  1.04
  502O :  1.03  466O :  1.03  388O :  1.02  496O :  1.01  142O :  1.00  523O :  0.99  151O :  0.98  574O :  0.98  382O :  0.95  646O :  0.95  228H :  0.94  505O :  0.92
  133O :  0.90  553O :  0.90  491H :  0.90  112O :  0.89  730O :  0.87  544O :  0.85  374H :  0.85  586O :  0.83  175O :  0.80  670O :  0.78  148O :  0.77  417H :  0.77
  541O :  0.77  473H :  0.76   35H :  0.75  263H :  0.72  596H :  0.70  641H :  0.70  168H :  0.70  165H :  0.70  581H :  0.69   62H :  0.69  414H :  0.69   44H :  0.66
  232O :  0.65   71H :  0.65  682O :  0.63   39H :  0.62   69H :  0.62  439O :  0.61  540H :  0.61  608H :  0.60   55O :  0.59  399H :  0.58   63H :  0.58  122H :  0.57
  737H :  0.57  649O :  0.56  634O :  0.56  742O :  0.55  173H :  0.55  691O :  0.55  739O :  0.55  422H :  0.54  251H :  0.53   23H :  0.52  126H :  0.51   58O :  0.51
  462H :  0.51  594H :  0.50   96H :  0.50  155H :  0.49   20H :  0.49   75H :  0.49  349O :  0.49  161H :  0.48  230H :  0.47  657H :  0.47  406O :  0.47  522H :  0.46
  521H :  0.46  322O :  0.46  712O :  0.46   86H :  0.46   32H :  0.45  389H :  0.45  529O :  0.45   53H :  0.44  299H :  0.44  447H :  0.44  419H :  0.43  456H :  0.43
  526O :  0.43   50H :  0.43  188H :  0.42  179H :  0.42   18H :  0.42  617H :  0.42  111H :  0.42  212H :  0.41  275H :  0.40  147H :  0.40  706O :  0.40  663H :  0.39
  359H :  0.39  510H :  0.39  722H :  0.37  676O :  0.37  318H :  0.37  470H :  0.37  534H :  0.37  643O :  0.37  753H :  0.36  560H :  0.36  158H :  0.36  450H :  0.36
  241O :  0.35  284H :  0.35  667O :  0.35  356H :  0.34  186H :  0.34   80H :  0.34   95H :  0.33  213H :  0.32  755H :  0.32  416H :  0.32  638H :  0.31   72H :  0.31
  132H :  0.31  180H :  0.30  479H :  0.30  386H :  0.29  653H :  0.29  666H :  0.29   87H :  0.29  319O :  0.28  314H :  0.28  476H :  0.28  514O :  0.28  537H :  0.28
  125H :  0.28  527H :  0.28  615H :  0.28  193O :  0.28  501H :  0.27  699H :  0.27  189H :  0.27  681H :  0.27  463O :  0.27  549H :  0.27  573H :  0.26  717H :  0.26
  254H :  0.25  369H :  0.25  206H :  0.25  704H :  0.24  734H :  0.24   38H :  0.24  131H :  0.24  293H :  0.24  719H :  0.24  752H :  0.23   54H :  0.23  545H :  0.22
  123H :  0.22  404H :  0.22  575H :  0.22  317H :  0.22  233H :  0.22  348H :  0.22  326H :  0.22  222H :  0.22   74H :  0.21  405H :  0.21   17H :  0.21  551H :  0.21
  480H :  0.21  363H :  0.21  171H :  0.20  614H :  0.20  152H :  0.20  716H :  0.20  392H :  0.20  210H :  0.20  425H :  0.19  305H :  0.19  725H :  0.19  441H :  0.19
  674H :  0.19   41H :  0.19  687H :  0.19  380H :  0.18  110H :  0.18  555H :  0.18  732H :  0.18  312H :  0.18  245H :  0.18  378H :  0.18  357H :  0.17    2H :  0.17
   12H :  0.17  164H :  0.17  203H :  0.16  662H :  0.16  587H :  0.16   45H :  0.16  398H :  0.16  624H :  0.16  593H :  0.16  239H :  0.15  432H :  0.15  269H :  0.15
  360H :  0.15  746H :  0.15  308H :  0.15  665H :  0.15  332H :  0.15  272H :  0.15  216H :  0.15  579H :  0.15  626H :  0.14  738H :  0.14  134H :  0.14  384H :  0.14
  146H :  0.14  194H :  0.14  756H :  0.14  204H :  0.14  258H :  0.13  747H :  0.13  539H :  0.13  705H :  0.13  297H :  0.13    6H :  0.13  372H :  0.13  428H :  0.13
  627H :  0.13  474H :  0.12  289O :  0.12   98H :  0.12  255H :  0.12   29H :  0.12  197H :  0.12  675H :  0.12  671H :  0.12  443H :  0.11  531H :  0.11  524H :  0.11
  135H :  0.11   51H :  0.11  209H :  0.11  177H :  0.11  609H :  0.11  323H :  0.11  518H :  0.10  561H :  0.10  315H :  0.10  167H :  0.10  467H :  0.10  689H :  0.10
  650H :  0.10  678H :  0.10  273H :  0.10  435H :  0.10  225H :  0.10  698H :  0.10  483H :  0.09  114H :  0.09   99H :  0.09  396H :  0.09  683H :  0.09   36H :  0.09
  509H :  0.09  459H :  0.09  341H :  0.08  137H :  0.08  660H :  0.08  621H :  0.08  105H :  0.08  591H :  0.08  119H :  0.08  324H :  0.08  455H :  0.08  611H :  0.08
   24H :  0.08  402H :  0.07  728H :  0.07  150H :  0.07  585H :  0.07  633H :  0.07   84H :  0.07  639H :  0.07   42H :  0.07
    7 LP   *******   0.00  24.31776  43.35221 -27.25384   22O : 16.11   52O : 13.98  631O : 13.62  571O : 13.53  454O : 12.97  166O : 12.26  748O : 11.88  613O : 11.87  565O : 11.71   25O : 11.45  274O : 11.42  301O : 11.26
  391O :  9.95  277O :  9.67  655O :  9.61  490O :  9.28   79O :  9.14  508O :  9.10  268O :  8.39  601O :  8.12   88O :  8.09   31O :  8.00  118O :  7.50  400O :  7.37
  106O :  7.26  310O :  7.24  685O :  7.23   49O :  7.22   61O :  7.14  457O :  7.01   70O :  6.79  124O :  6.79   94O :  6.58  250O :  6.58  418O :  6.45  220O :  6.45
  337O :  6.41  121O :  6.40  499O :  6.39  703O :  6.25  163O :  6.23  226O :  6.19  145O :  6.12  190O :  5.89  280O :  5.86  532O :  5.83  538O :  5.82  238O :  5.72
  664O :  5.71  751O :  5.66  127O :  5.62  688O :  5.42  181O :  5.37  580O :  5.36  607O :  5.34   67O :  5.32  595O :  5.23  700O :  5.07  430O :  5.01  721O :  4.91
  736O :  4.89   40O :  4.89  592O :  4.88  547O :  4.85  427O :  4.84  247O :  4.83   46O :  4.81  640O :  4.77  373O :  4.77  178O :  4.66   97O :  4.62  709O :  4.60
  208O :  4.58  259O :  4.41  376O :  4.40   64O :  4.38  628O :  4.34  412O :  4.31  718O :  4.27  196O :  4.19  235O :  4.12  403O :  4.02  487O :  4.02  448O :  4.00
  409O :  3.92  472O :  3.91  331O :  3.88   13O :  3.86  754O :  3.86  211O :  3.78   28O :  3.75   73O :  3.74  298O :  3.74  520O :  3.73   82O :  3.73  604O :  3.56
  535O :  3.51  397O :  3.50  478O :  3.45  469O :  3.44  217O :  3.43  256O :  3.35  136O :  3.29  184O :  3.28  415O :  3.27  517O :  3.25  244O :  3.23  394O :  3.22
  379O :  3.22   19O :  3.17   43O :  3.13  598O :  3.06   76O :  3.05   10O :  3.00  673O :  2.94  355O :  2.92  229O :  2.91  139O :  2.85  436O :  2.84  511O :  2.83
  658O :  2.80  361O :  2.80  109O :  2.78  115O :  2.77  367O :  2.76  316O :  2.74  202O :  2.69  445O :  2.65  271O :  2.64  652O :  2.58  157O :  2.54  460O :  2.54
   37O :  2.48  262O :  2.48  637O :  2.47   34O :  2.38  328O :  2.36  160O :  2.34  223O :  2.34  286O :  2.29  562O :  2.29  358O :  2.27  715O :  2.21  694O :  2.18
  493O :  2.16  313O :  2.14  661O :  2.13  550O :  2.11  616O :  2.10  567H :  2.08  724O :  2.04  295O :  2.04  619O :  2.00   27H :  1.98  154O :  1.98  421O :  1.96
  610O :  1.95  727O :  1.93  307O :  1.92   85O :  1.86  214O :  1.86  484O :  1.83  304O :  1.80  191H :  1.79  559O :  1.78    1O :  1.74  172O :  1.74  424O :  1.69
  187O :  1.68    7O :  1.66  130O :  1.65   26H :  1.61  583O :  1.60  442O :  1.60  433O :  1.58  227H :  1.58  103O :  1.55  625O :  1.54  265O :  1.54  364O :  1.53
  205O :  1.51  385O :  1.49  745O :  1.47  100O :  1.46  577O :  1.44  568O :  1.42  283O :  1.37  346O :  1.37  622O :  1.37  556O :  1.35   91O :  1.33  116H :  1.32
  340O :  1.32  679O :  1.31  572H :  1.29  697O :  1.26  451O :  1.25  325O :  1.24  334O :  1.22  199O :  1.21  253O :  1.19  292O :  1.18  589O :  1.17    4O :  1.16
   16O :  1.14  750H :  1.14  370O :  1.13  129H :  1.13  169O :  1.12  393H :  1.12  733O :  1.12  475O :  1.11  481O :  1.06  710H :  1.05  221H :  1.03   89H :  1.02
  502O :  1.02  466O :  1.01  388O :  1.00  496O :  1.00  142O :  0.99  523O :  0.98  151O :  0.97  574O :  0.96  382O :  0.94  646O :  0.94  228H :  0.92  505O :  0.91
  133O :  0.89  553O :  0.89  491H :  0.88  112O :  0.88  730O :  0.86  544O :  0.84  374H :  0.84  148O :  0.83  586O :  0.82  670O :  0.77  175O :  0.77  417H :  0.76
  541O :  0.76  473H :  0.75   35H :  0.74  263H :  0.71  596H :  0.69  641H :  0.69  168H :  0.69  165H :  0.69  581H :  0.69   62H :  0.68  414H :  0.68   44H :  0.65
  232O :  0.65   71H :  0.64  682O :  0.62   39H :  0.62   69H :  0.61  540H :  0.61  439O :  0.61  608H :  0.59   55O :  0.58  399H :  0.58   63H :  0.57  742O :  0.56
  122H :  0.56  737H :  0.56  649O :  0.56  634O :  0.55  173H :  0.55  691O :  0.54  739O :  0.54  422H :  0.53  251H :  0.52   23H :  0.51  126H :  0.50   58O :  0.50
  462H :  0.50  594H :  0.50   96H :  0.49  155H :  0.49   20H :  0.48   75H :  0.48  349O :  0.48  161H :  0.47  657H :  0.47  230H :  0.47  406O :  0.46  522H :  0.46
  322O :  0.45  521H :  0.45  712O :  0.45   86H :  0.45   32H :  0.45  389H :  0.44  529O :  0.44   53H :  0.44  299H :  0.44  447H :  0.43  419H :  0.43  456H :  0.43
  526O :  0.42   50H :  0.42  188H :  0.42  179H :  0.41   18H :  0.41  617H :  0.41  111H :  0.41  212H :  0.41  275H :  0.40  706O :  0.40  147H :  0.39  663H :  0.39
  359H :  0.39  510H :  0.38  722H :  0.37  676O :  0.37  318H :  0.37  470H :  0.36  534H :  0.36  643O :  0.36  753H :  0.36  560H :  0.36  158H :  0.36  450H :  0.36
  241O :  0.35  284H :  0.34  667O :  0.34  356H :  0.34  186H :  0.34   80H :  0.33   95H :  0.33  213H :  0.32  755H :  0.31  416H :  0.31  638H :  0.31   72H :  0.31
  132H :  0.31  180H :  0.30  479H :  0.29  386H :  0.29  653H :  0.29  666H :  0.29   87H :  0.28  319O :  0.28  314H :  0.28  476H :  0.28  514O :  0.28  537H :  0.28
  125H :  0.28  527H :  0.27  615H :  0.27  193O :  0.27  501H :  0.27  699H :  0.27  681H :  0.27  189H :  0.27  463O :  0.27  392H :  0.25  717H :  0.25  369H :  0.25
  254H :  0.25  206H :  0.24  704H :  0.24  734H :  0.24   38H :  0.23  131H :  0.23  293H :  0.23  719H :  0.23  752H :  0.22   54H :  0.22  545H :  0.22  123H :  0.22
  404H :  0.22  575H :  0.22  317H :  0.22  233H :  0.22  348H :  0.22  326H :  0.22  222H :  0.21   74H :  0.21  405H :  0.21   17H :  0.21  551H :  0.21  573H :  0.21
  480H :  0.20  363H :  0.20  171H :  0.20  614H :  0.20  152H :  0.20  716H :  0.20  210H :  0.19  425H :  0.19  305H :  0.19  725H :  0.19  441H :  0.19  674H :  0.19
   41H :  0.19  687H :  0.19  380H :  0.18  110H :  0.18  555H :  0.18  732H :  0.18  312H :  0.18  245H :  0.18  378H :  0.18  357H :  0.17    2H :  0.17   12H :  0.17
  164H :  0.16  203H :  0.16  662H :  0.16  587H :  0.16   45H :  0.16  398H :  0.16  624H :  0.15  593H :  0.15  239H :  0.15  269H :  0.15  360H :  0.15  746H :  0.15
  308H :  0.15  665H :  0.15  332H :  0.15  272H :  0.15  216H :  0.14  579H :  0.14  626H :  0.14  738H :  0.14  134H :  0.14  384H :  0.14  194H :  0.14  146H :  0.14
  756H :  0.14  204H :  0.13  539H :  0.13  258H :  0.13  747H :  0.13  549H :  0.13  705H :  0.13    6H :  0.13  297H :  0.13  372H :  0.13  428H :  0.13  627H :  0.13
  474H :  0.12  289O :  0.12   98H :  0.12  255H :  0.12   29H :  0.12  197H :  0.11  675H :  0.11  671H :  0.11  443H :  0.11  531H :  0.11  524H :  0.11  135H :  0.11
  177H :  0.11   51H :  0.11  209H :  0.11  609H :  0.10  323H :  0.10  518H :  0.10  561H :  0.10  315H :  0.10  167H :  0.10  467H :  0.10  689H :  0.10  650H :  0.10
  678H :  0.10  273H :  0.10  435H :  0.10  225H :  0.10  698H :  0.10  483H :  0.09  114H :  0.09   99H :  0.09  396H :  0.09  683H :  0.09   36H :  0.09  459H :  0.08
  509H :  0.08  341H :  0.08  137H :  0.08  660H :  0.08  621H :  0.08  105H :  0.08  591H :  0.08  119H :  0.08  324H :  0.08  455H :  0.08  611H :  0.08   24H :  0.08
  402H :  0.07  728H :  0.07  585H :  0.07  176H :  0.07  633H :  0.07  150H :  0.07   84H :  0.07
    8 LP   *******   0.00   5.53157  17.29754 -32.94210   22O : 15.90  748O : 14.30   52O : 13.80  631O : 13.44  454O : 12.80  166O : 12.10  613O : 11.71  565O : 11.56   25O : 11.30  274O : 11.27  301O : 11.11  571O : 10.44
  391O :  9.83  655O :  9.57  277O :  9.55  490O :  9.16   79O :  9.02  508O :  8.98  268O :  8.28  601O :  8.01   88O :  7.98   31O :  7.89  118O :  7.40  400O :  7.28
  106O :  7.17  310O :  7.14  685O :  7.13   49O :  7.13   61O :  7.04  457O :  6.91   70O :  6.70  124O :  6.70   94O :  6.49  250O :  6.49  418O :  6.37  220O :  6.37
  337O :  6.33  121O :  6.32  499O :  6.31  163O :  6.15  703O :  6.12  226O :  6.11  145O :  6.04  190O :  5.82  280O :  5.79  532O :  5.76  538O :  5.74  238O :  5.64
  664O :  5.64  751O :  5.58  127O :  5.56  688O :  5.35  181O :  5.30  580O :  5.29   67O :  5.25  430O :  5.24  607O :  5.24  595O :  5.16  700O :  5.00  721O :  4.84
  736O :  4.83   40O :  4.83  592O :  4.81  547O :  4.78  427O :  4.78  247O :  4.77   46O :  4.73  640O :  4.71  373O :  4.71  178O :  4.56   97O :  4.56  709O :  4.54
  208O :  4.52  259O :  4.35  376O :  4.34   64O :  4.33  628O :  4.28  412O :  4.25  718O :  4.23  196O :  4.13  235O :  4.06  403O :  3.96  487O :  3.96  448O :  3.95
  409O :  3.88  472O :  3.86  331O :  3.83   13O :  3.81  754O :  3.81  211O :  3.73   73O :  3.69  298O :  3.69   28O :  3.69  520O :  3.68   82O :  3.68  604O :  3.52
  535O :  3.47  397O :  3.45  478O :  3.41  469O :  3.39  217O :  3.39  256O :  3.31  184O :  3.26  136O :  3.25  415O :  3.22  517O :  3.20  244O :  3.18  394O :  3.18
  379O :  3.18   19O :  3.11   43O :  3.10  598O :  3.02   76O :  3.01   10O :  2.97  673O :  2.90  355O :  2.88  229O :  2.87  139O :  2.81  436O :  2.81  511O :  2.80
  658O :  2.77  361O :  2.76  109O :  2.74  115O :  2.74  367O :  2.73  316O :  2.71  202O :  2.65  445O :  2.62  271O :  2.60  652O :  2.55  157O :  2.51  460O :  2.51
   37O :  2.45  262O :  2.44  637O :  2.44   34O :  2.35  328O :  2.32  223O :  2.31  160O :  2.30  286O :  2.26  358O :  2.24  562O :  2.23  715O :  2.18  694O :  2.15
  493O :  2.13  313O :  2.11  661O :  2.10  550O :  2.09  616O :  2.07  567H :  2.05  724O :  2.02  295O :  2.01  619O :  1.97   27H :  1.96  154O :  1.95  421O :  1.93
  610O :  1.93  727O :  1.90  307O :  1.89   85O :  1.84  214O :  1.84  484O :  1.80  304O :  1.78  191H :  1.77  559O :  1.76    1O :  1.72  172O :  1.72  424O :  1.67
  187O :  1.64    7O :  1.64  130O :  1.63   26H :  1.59  583O :  1.58  442O :  1.58  265O :  1.56  433O :  1.56  227H :  1.56  103O :  1.53  625O :  1.52  205O :  1.49
  385O :  1.48  745O :  1.46  364O :  1.44  100O :  1.44  577O :  1.42  568O :  1.40  572H :  1.38  283O :  1.35  346O :  1.35  622O :  1.35  556O :  1.33   91O :  1.31
  116H :  1.30  340O :  1.30  679O :  1.29  697O :  1.24  451O :  1.23  325O :  1.22  199O :  1.20  253O :  1.18  334O :  1.17  292O :  1.17  589O :  1.16    4O :  1.14
   16O :  1.13  370O :  1.12  393H :  1.11  169O :  1.11  129H :  1.11  733O :  1.10  475O :  1.09  481O :  1.04  710H :  1.04   89H :  1.02  221H :  1.01  502O :  1.00
  466O :  1.00  388O :  0.99  496O :  0.98  750H :  0.98  142O :  0.98  523O :  0.96  151O :  0.96  574O :  0.95  382O :  0.93  646O :  0.92  228H :  0.91  505O :  0.90
  133O :  0.88  553O :  0.88  491H :  0.87  112O :  0.87  730O :  0.85  544O :  0.83  374H :  0.82  586O :  0.81  670O :  0.76  417H :  0.75  148O :  0.75  541O :  0.75
  473H :  0.74   35H :  0.73  175O :  0.72  263H :  0.70  596H :  0.68  641H :  0.68  168H :  0.68  165H :  0.68  581H :  0.68   62H :  0.67  414H :  0.67   44H :  0.65
  232O :  0.64   71H :  0.63  682O :  0.61   39H :  0.61   69H :  0.60  540H :  0.60  439O :  0.60  608H :  0.58   55O :  0.57  399H :  0.57   63H :  0.57  742O :  0.56
  122H :  0.55  737H :  0.55  649O :  0.55  634O :  0.54  173H :  0.54  691O :  0.54  739O :  0.53  422H :  0.53  251H :  0.52   23H :  0.50  126H :  0.50   58O :  0.49
  462H :  0.49  594H :  0.49   96H :  0.49  155H :  0.48   20H :  0.48  161H :  0.47   75H :  0.47  349O :  0.47  657H :  0.46  230H :  0.46  406O :  0.46  522H :  0.45
  322O :  0.45  521H :  0.45  712O :  0.44   86H :  0.44   32H :  0.44  389H :  0.44  529O :  0.43   53H :  0.43  299H :  0.43  447H :  0.43  419H :  0.42  456H :  0.42
  526O :  0.42   50H :  0.41  179H :  0.41  188H :  0.41   18H :  0.41  617H :  0.41  111H :  0.40  212H :  0.40  275H :  0.39  147H :  0.38  706O :  0.38  663H :  0.38
  359H :  0.38  510H :  0.38  722H :  0.36  676O :  0.36  318H :  0.36  470H :  0.36  534H :  0.36  643O :  0.36  753H :  0.36  560H :  0.35  158H :  0.35  450H :  0.35
  186H :  0.34  241O :  0.34  284H :  0.34  667O :  0.34  356H :  0.33   80H :  0.33   95H :  0.32  213H :  0.31  755H :  0.31  416H :  0.31  638H :  0.31   72H :  0.30
  132H :  0.30  479H :  0.29  180H :  0.29  386H :  0.29  653H :  0.29  666H :  0.28   87H :  0.28  319O :  0.28  314H :  0.28  514O :  0.28  476H :  0.28  537H :  0.27
  125H :  0.27  527H :  0.27  615H :  0.27  193O :  0.27  501H :  0.27  699H :  0.27  189H :  0.26  681H :  0.26  463O :  0.26  573H :  0.25  392H :  0.25  717H :  0.25
  369H :  0.25  254H :  0.25  206H :  0.24  734H :  0.23  704H :  0.23   38H :  0.23  131H :  0.23  293H :  0.23  719H :  0.23  752H :  0.22   54H :  0.22  545H :  0.22
  123H :  0.22  404H :  0.22  575H :  0.21  317H :  0.21  233H :  0.21  348H :  0.21  326H :  0.21  222H :  0.21  177H :  0.21   74H :  0.21  405H :  0.21   17H :  0.21
  551H :  0.20  480H :  0.20  363H :  0.20  171H :  0.20  614H :  0.20  152H :  0.19  716H :  0.19  210H :  0.19  425H :  0.19  725H :  0.19  305H :  0.19  441H :  0.19
  674H :  0.19   41H :  0.19  687H :  0.18  380H :  0.18  110H :  0.18  555H :  0.18  732H :  0.18  312H :  0.18  245H :  0.18  378H :  0.17  357H :  0.17    2H :  0.17
   12H :  0.16  164H :  0.16  203H :  0.16  662H :  0.16  587H :  0.16   45H :  0.16  398H :  0.16  432H :  0.15  624H :  0.15  593H :  0.15  239H :  0.15  269H :  0.15
  360H :  0.15  746H :  0.15  308H :  0.14  665H :  0.14  332H :  0.14  272H :  0.14  216H :  0.14  579H :  0.14  626H :  0.14  738H :  0.14  134H :  0.14  384H :  0.14
  146H :  0.14  194H :  0.14  756H :  0.13  204H :  0.13  705H :  0.13  539H :  0.13  258H :  0.13  747H :  0.13  549H :  0.13    6H :  0.13  297H :  0.13  372H :  0.13
  428H :  0.12  627H :  0.12  474H :  0.12  289O :  0.12   98H :  0.11  255H :  0.11   29H :  0.11  675H :  0.11  197H :  0.11  671H :  0.11  443H :  0.11  531H :  0.11
  524H :  0.11  135H :  0.11   51H :  0.11  209H :  0.10  323H :  0.10  518H :  0.10  561H :  0.10  609H :  0.10  315H :  0.10  167H :  0.10  467H :  0.10  689H :  0.10
  650H :  0.10  678H :  0.10  273H :  0.10  435H :  0.10  225H :  0.09  698H :  0.09  483H :  0.09  114H :  0.09   99H :  0.09  396H :  0.09  683H :  0.09   36H :  0.09
  459H :  0.08  509H :  0.08  341H :  0.08  137H :  0.08  660H :  0.08  621H :  0.08  105H :  0.08  591H :  0.08  119H :  0.08  324H :  0.08  455H :  0.08  611H :  0.07
   24H :  0.07  402H :  0.07  728H :  0.07  585H :  0.07  150H :  0.07  633H :  0.07
    9 LP   *******   0.00   8.29411  50.05584 -20.88922   22O : 15.50   52O : 13.45  631O : 13.11  454O : 12.50  166O : 11.80  748O : 11.45  613O : 11.42  655O : 11.34  565O : 11.27   25O : 11.02  274O : 10.99  301O : 10.83
  571O : 10.11  391O :  9.59  277O :  9.31  490O :  8.94   79O :  8.80  508O :  8.76  268O :  8.05  601O :  7.82   88O :  7.80   31O :  7.70  118O :  7.21  400O :  7.10
  106O :  6.99  310O :  6.96  685O :  6.95   49O :  6.95   61O :  6.87  457O :  6.75   70O :  6.57  124O :  6.53   94O :  6.33  250O :  6.33  418O :  6.21  220O :  6.21
  337O :  6.17  121O :  6.16  499O :  6.15  703O :  6.01  163O :  5.99  226O :  5.95  145O :  5.89  190O :  5.67  280O :  5.64  532O :  5.61  538O :  5.60  238O :  5.50
  664O :  5.50  751O :  5.45  127O :  5.41  688O :  5.22  181O :  5.17  580O :  5.16  607O :  5.14   67O :  5.12  430O :  5.11  595O :  5.03  700O :  4.88  721O :  4.72
  736O :  4.71   40O :  4.70  592O :  4.69  547O :  4.67  427O :  4.66  247O :  4.65   46O :  4.61  640O :  4.59  373O :  4.59  178O :  4.49   97O :  4.44  709O :  4.43
  208O :  4.40  259O :  4.25  376O :  4.23   64O :  4.22  628O :  4.17  412O :  4.15  718O :  4.12  196O :  4.03  235O :  3.96  403O :  3.87  487O :  3.87  448O :  3.85
  409O :  3.78  472O :  3.76  331O :  3.73   13O :  3.71  754O :  3.71  211O :  3.63  298O :  3.60   73O :  3.60  520O :  3.59   82O :  3.58   28O :  3.54  604O :  3.43
  535O :  3.38  397O :  3.37  478O :  3.32  469O :  3.31  217O :  3.30  256O :  3.21  136O :  3.17  184O :  3.16  415O :  3.14  517O :  3.12  244O :  3.11  394O :  3.10
  379O :  3.10   19O :  3.05   43O :  3.02  598O :  2.94   76O :  2.94   10O :  2.89  673O :  2.83  355O :  2.81  229O :  2.80  139O :  2.74  436O :  2.74  511O :  2.73
  658O :  2.70  361O :  2.69  109O :  2.68  115O :  2.67  367O :  2.66  316O :  2.64  202O :  2.58  445O :  2.55  271O :  2.54  652O :  2.49  157O :  2.45  460O :  2.44
   37O :  2.39  262O :  2.38  637O :  2.38   34O :  2.30  328O :  2.27  160O :  2.26  223O :  2.26  286O :  2.21  562O :  2.20  358O :  2.18  715O :  2.13  694O :  2.09
  493O :  2.08  313O :  2.06  661O :  2.05  550O :  2.03  616O :  2.02  567H :  2.00  724O :  1.97  295O :  1.97  619O :  1.93   27H :  1.91  154O :  1.90  421O :  1.88
  610O :  1.88  727O :  1.85  307O :  1.84   85O :  1.79  214O :  1.79  484O :  1.76  304O :  1.73  191H :  1.72  559O :  1.72    1O :  1.68  172O :  1.67  424O :  1.63
    7O :  1.60  130O :  1.59  187O :  1.59   26H :  1.55  583O :  1.54  442O :  1.54  265O :  1.52  433O :  1.52  227H :  1.52  103O :  1.49  625O :  1.49  205O :  1.45
  385O :  1.44  745O :  1.42  100O :  1.40  364O :  1.39  577O :  1.39  568O :  1.37  572H :  1.33  283O :  1.32  346O :  1.32  622O :  1.31  556O :  1.30   91O :  1.28
  116H :  1.27  340O :  1.27  679O :  1.26  697O :  1.24  451O :  1.20  325O :  1.19  199O :  1.17  253O :  1.14  334O :  1.14  292O :  1.14  589O :  1.13    4O :  1.12
   16O :  1.10  750H :  1.09  370O :  1.09  129H :  1.09  393H :  1.08  169O :  1.08  733O :  1.07  475O :  1.07  481O :  1.02  710H :  1.01  221H :  0.99   89H :  0.99
  502O :  0.98  466O :  0.97  388O :  0.97  496O :  0.96  142O :  0.95  523O :  0.94  151O :  0.93  574O :  0.93  382O :  0.91  646O :  0.90  228H :  0.89  505O :  0.88
  133O :  0.86  553O :  0.85  491H :  0.85  112O :  0.85  730O :  0.83  544O :  0.81  374H :  0.80  586O :  0.79  175O :  0.76  670O :  0.74  417H :  0.73  541O :  0.73
  473H :  0.73  148O :  0.70  263H :  0.68   35H :  0.68  596H :  0.67  641H :  0.67  168H :  0.66  165H :  0.66  581H :  0.66   62H :  0.65  414H :  0.65   44H :  0.63
  232O :  0.62   71H :  0.62  682O :  0.60   39H :  0.59   69H :  0.59  540H :  0.58  439O :  0.58  608H :  0.57   55O :  0.56  399H :  0.55   63H :  0.55  742O :  0.54
  122H :  0.54  737H :  0.54  649O :  0.54  634O :  0.53  173H :  0.53  691O :  0.52  739O :  0.52  422H :  0.51  251H :  0.50   23H :  0.49  126H :  0.49   58O :  0.48
  462H :  0.48  594H :  0.48   96H :  0.47  155H :  0.47   20H :  0.46   75H :  0.46  349O :  0.46  161H :  0.46  230H :  0.45  406O :  0.44  522H :  0.44  322O :  0.44
  521H :  0.44  712O :  0.43   86H :  0.43   32H :  0.43  389H :  0.43  529O :  0.42   53H :  0.42  299H :  0.42  447H :  0.42  419H :  0.41  456H :  0.41  526O :  0.41
   50H :  0.40  188H :  0.40  179H :  0.40   18H :  0.40  617H :  0.40  111H :  0.39  212H :  0.39  275H :  0.38  147H :  0.38  706O :  0.37  663H :  0.37  359H :  0.37
  510H :  0.37  657H :  0.37  722H :  0.35  676O :  0.35  318H :  0.35  470H :  0.35  534H :  0.35  643O :  0.35  753H :  0.35  560H :  0.35  158H :  0.34  450H :  0.34
  241O :  0.33  284H :  0.33  667O :  0.33  356H :  0.33  186H :  0.32   80H :  0.32   95H :  0.31  213H :  0.30  755H :  0.30  416H :  0.30  638H :  0.30  132H :  0.29
   72H :  0.29  180H :  0.29  479H :  0.28  386H :  0.28  653H :  0.28  666H :  0.28   87H :  0.27  314H :  0.27  319O :  0.27  476H :  0.27  514O :  0.27  537H :  0.27
  125H :  0.27  527H :  0.26  615H :  0.26  699H :  0.26  193O :  0.26  501H :  0.26  189H :  0.26  681H :  0.26  463O :  0.26  392H :  0.24  717H :  0.24  254H :  0.24
  369H :  0.24  206H :  0.24  704H :  0.23  734H :  0.23  573H :  0.23   38H :  0.22  131H :  0.22  293H :  0.22  719H :  0.22  752H :  0.22   54H :  0.22  545H :  0.21
  123H :  0.21  404H :  0.21  575H :  0.21  317H :  0.21  233H :  0.21  348H :  0.21  326H :  0.21  222H :  0.20   74H :  0.20  405H :  0.20   17H :  0.20  551H :  0.20
  363H :  0.20  480H :  0.20  171H :  0.19  614H :  0.19  152H :  0.19  716H :  0.19  210H :  0.19  425H :  0.18  305H :  0.18  725H :  0.18  441H :  0.18  674H :  0.18
   41H :  0.18  687H :  0.18  380H :  0.18  110H :  0.17  555H :  0.17  732H :  0.17  245H :  0.17  312H :  0.17  378H :  0.17  357H :  0.17    2H :  0.17   12H :  0.16
  164H :  0.16   45H :  0.16  203H :  0.16  662H :  0.15  587H :  0.15  398H :  0.15  432H :  0.15  624H :  0.15  593H :  0.15  239H :  0.15  269H :  0.14  360H :  0.14
[...]
   371   1 h    0.887 --   370 o    0.839
   372   1 h    0.895 --   370 o    0.871
   373   8 o    1.847 --   374 h    0.849   375 h    0.804
   374   1 h    0.894 --   373 o    0.849
   375   1 h    0.879 --   373 o    0.804
   376   8 o    1.846 --   377 h    0.835   378 h    0.833
   377   1 h    0.884 --   376 o    0.835
   378   1 h    0.887 --   376 o    0.833
   379   8 o    1.882 --   381 h    0.845   380 h    0.811
   380   1 h    0.873 --   379 o    0.811
   381   1 h    0.891 --   379 o    0.845
   382   8 o    1.855 --   383 h    0.820   384 h    0.816
   383   1 h    0.885 --   382 o    0.820
   384   1 h    0.879 --   382 o    0.816
   385   8 o    1.854 --   387 h    0.863   386 h    0.853
   386   1 h    0.895 --   385 o    0.853
   387   1 h    0.894 --   385 o    0.863
   388   8 o    1.852 --   390 h    0.827   389 h    0.816
   389   1 h    0.881 --   388 o    0.816
   390   1 h    0.890 --   388 o    0.827
   391   8 o    1.845 --   392 h    0.879   393 h    0.830
   392   1 h    0.901 --   391 o    0.879
   393   1 h    0.888 --   391 o    0.830
   394   8 o    1.826 --   396 h    0.889   395 h    0.812
   395   1 h    0.882 --   394 o    0.812
   396   1 h    0.908 --   394 o    0.889
   397   8 o    1.856 --   399 h    0.837   398 h    0.837
   398   1 h    0.892 --   397 o    0.837
   399   1 h    0.893 --   397 o    0.837
   400   8 o    1.848 --   401 h    0.884   402 h    0.799
   401   1 h    0.905 --   400 o    0.884
   402   1 h    0.873 --   400 o    0.799
   403   8 o    1.890 --   405 h    0.817   404 h    0.816
   404   1 h    0.887 --   403 o    0.816
   405   1 h    0.875 --   403 o    0.817
   406   8 o    1.849 --   407 h    0.815   408 h    0.811
   407   1 h    0.880 --   406 o    0.815
   408   1 h    0.885 --   406 o    0.811
   409   8 o    1.842 --   410 h    0.800   411 h    0.799
   410   1 h    0.875 --   409 o    0.800
   411   1 h    0.873 --   409 o    0.799
   412   8 o    1.824 --   413 h    0.846   414 h    0.814
   413   1 h    0.889 --   412 o    0.846
   414   1 h    0.873 --   412 o    0.814
   415   8 o    1.861 --   416 h    0.844   417 h    0.834
   416   1 h    0.894 --   415 o    0.844
   417   1 h    0.890 --   415 o    0.834
   418   8 o    1.856 --   419 h    0.816   420 h    0.795
   419   1 h    0.887 --   418 o    0.816
   420   1 h    0.881 --   418 o    0.795
   421   8 o    1.873 --   423 h    0.848   422 h    0.823
   422   1 h    0.887 --   421 o    0.823
   423   1 h    0.882 --   421 o    0.848
   424   8 o    1.874 --   425 h    0.816   426 h    0.801
   425   1 h    0.883 --   424 o    0.816
   426   1 h    0.882 --   424 o    0.801
   427   8 o    1.802 --   429 h    0.874   428 h    0.837
   428   1 h    0.897 --   427 o    0.837
   429   1 h    0.905 --   427 o    0.874
   430   8 o    1.871 --   431 h    0.842   432 h    0.809
   431   1 h    0.894 --   430 o    0.842
   432   1 h    0.876 --   430 o    0.809
   433   8 o    1.847 --   435 h    0.873   434 h    0.858
   434   1 h    0.891 --   433 o    0.858
   435   1 h    0.898 --   433 o    0.873
   436   8 o    1.838 --   438 h    0.840   437 h    0.833
   437   1 h    0.889 --   436 o    0.833
   438   1 h    0.897 --   436 o    0.840
   439   8 o    1.824 --   440 h    0.867   441 h    0.861
   440   1 h    0.896 --   439 o    0.867
   441   1 h    0.894 --   439 o    0.861
   442   8 o    1.870 --   444 h    0.805   443 h    0.802
   443   1 h    0.872 --   442 o    0.802
   444   1 h    0.876 --   442 o    0.805
   445   8 o    1.860 --   447 h    0.883   446 h    0.786
   446   1 h    0.869 --   445 o    0.786
   447   1 h    0.901 --   445 o    0.883
   448   8 o    1.849 --   450 h    0.914   449 h    0.787
   449   1 h    0.873 --   448 o    0.787
   450   1 h    0.919 --   448 o    0.914
   451   8 o    1.851 --   453 h    0.878   452 h    0.817
   452   1 h    0.875 --   451 o    0.817
   453   1 h    0.902 --   451 o    0.878
   454   8 o    1.830 --   455 h    0.838   456 h    0.812
   455   1 h    0.885 --   454 o    0.838
   456   1 h    0.892 --   454 o    0.812
   457   8 o    1.841 --   458 h    0.837   459 h    0.830
   458   1 h    0.878 --   457 o    0.837
   459   1 h    0.890 --   457 o    0.830
   460   8 o    1.819 --   461 h    0.864   462 h    0.819
   461   1 h    0.892 --   460 o    0.864
   462   1 h    0.884 --   460 o    0.819
   463   8 o    1.849 --   464 h    0.848   465 h    0.825
   464   1 h    0.892 --   463 o    0.848
   465   1 h    0.885 --   463 o    0.825
   466   8 o    1.846 --   467 h    0.902   468 h    0.841
   467   1 h    0.909 --   466 o    0.902
   468   1 h    0.889 --   466 o    0.841
   469   8 o    1.872 --   470 h    0.911   471 h    0.779
   470   1 h    0.914 --   469 o    0.911
   471   1 h    0.874 --   469 o    0.779
   472   8 o    1.859 --   473 h    0.832   474 h    0.822
   473   1 h    0.889 --   472 o    0.832
   474   1 h    0.885 --   472 o    0.822
   475   8 o    1.865 --   477 h    0.840   476 h    0.801
   476   1 h    0.884 --   475 o    0.801
   477   1 h    0.880 --   475 o    0.840
   478   8 o    1.828 --   480 h    0.871   479 h    0.809
   479   1 h    0.875 --   478 o    0.809
   480   1 h    0.900 --   478 o    0.871
   481   8 o    1.837 --   483 h    0.871   482 h    0.863
   482   1 h    0.893 --   481 o    0.863
   483   1 h    0.898 --   481 o    0.871
   484   8 o    1.848 --   485 h    0.859   486 h    0.787
   485   1 h    0.895 --   484 o    0.859
   486   1 h    0.877 --   484 o    0.787
   487   8 o    1.831 --   489 h    0.877   488 h    0.851
   488   1 h    0.892 --   487 o    0.851
   489   1 h    0.905 --   487 o    0.877
   490   8 o    1.861 --   491 h    0.872   492 h    0.794
   491   1 h    0.900 --   490 o    0.872
   492   1 h    0.867 --   490 o    0.794
   493   8 o    1.847 --   495 h    0.843   494 h    0.787
   494   1 h    0.884 --   493 o    0.787
   495   1 h    0.896 --   493 o    0.843
   496   8 o    1.848 --   497 h    0.905   498 h    0.805
   497   1 h    0.913 --   496 o    0.905
   498   1 h    0.871 --   496 o    0.805
   499   8 o    1.853 --   501 h    0.848   500 h    0.803
   500   1 h    0.889 --   499 o    0.803
   501   1 h    0.892 --   499 o    0.848
   502   8 o    1.834 --   503 h    0.883   504 h    0.823
   503   1 h    0.907 --   502 o    0.883
   504   1 h    0.884 --   502 o    0.823
   505   8 o    1.833 --   507 h    0.900   506 h    0.794
   506   1 h    0.869 --   505 o    0.794
   507   1 h    0.914 --   505 o    0.900
   508   8 o    1.832 --   510 h    0.827   509 h    0.774
   509   1 h    0.865 --   508 o    0.774
   510   1 h    0.879 --   508 o    0.827
   511   8 o    1.838 --   513 h    0.848   512 h    0.845
   512   1 h    0.888 --   511 o    0.845
   513   1 h    0.889 --   511 o    0.848
   514   8 o    1.838 --   515 h    0.850   516 h    0.823
   515   1 h    0.894 --   514 o    0.850
   516   1 h    0.884 --   514 o    0.823
   517   8 o    1.856 --   518 h    0.860   519 h    0.847
   518   1 h    0.895 --   517 o    0.860
   519   1 h    0.889 --   517 o    0.847
   520   8 o    1.838 --   522 h    0.844   521 h    0.821
   521   1 h    0.881 --   520 o    0.821
   522   1 h    0.898 --   520 o    0.844
   523   8 o    1.866 --   525 h    0.834   524 h    0.823   653 h    0.101
   524   1 h    0.881 --   523 o    0.823
   525   1 h    0.891 --   523 o    0.834
   526   8 o    1.873 --   528 h    0.853   527 h    0.806
   527   1 h    0.882 --   526 o    0.806
   528   1 h    0.897 --   526 o    0.853
   529   8 o    1.848 --   531 h    0.887   530 h    0.852
   530   1 h    0.895 --   529 o    0.852
   531   1 h    0.899 --   529 o    0.887
   532   8 o    1.835 --   534 h    0.863   533 h    0.810
   533   1 h    0.886 --   532 o    0.810
   534   1 h    0.902 --   532 o    0.863
   535   8 o    1.831 --   537 h    0.859   536 h    0.813
   536   1 h    0.887 --   535 o    0.813
   537   1 h    0.897 --   535 o    0.859
   538   8 o    1.831 --   539 h    0.886   540 h    0.831
   539   1 h    0.905 --   538 o    0.886
   540   1 h    0.889 --   538 o    0.831
   541   8 o    1.849 --   542 h    0.844   543 h    0.830
   542   1 h    0.898 --   541 o    0.844
   543   1 h    0.889 --   541 o    0.830
   544   8 o    1.849 --   545 h    0.885   546 h    0.815
   545   1 h    0.907 --   544 o    0.885
   546   1 h    0.882 --   544 o    0.815
   547   8 o    1.873 --   549 h    0.815   548 h    0.800
   548   1 h    0.876 --   547 o    0.800
   549   1 h    0.888 --   547 o    0.815
   550   8 o    1.849 --   551 h    0.860   552 h    0.823
   551   1 h    0.896 --   550 o    0.860
   552   1 h    0.881 --   550 o    0.823
   553   8 o    1.867 --   554 h    0.854   555 h    0.845
   554   1 h    0.899 --   553 o    0.854
   555   1 h    0.894 --   553 o    0.845
   556   8 o    1.885 --   557 h    0.836   558 h    0.829
   557   1 h    0.886 --   556 o    0.836
   558   1 h    0.887 --   556 o    0.829
   559   8 o    1.817 --   561 h    0.853   560 h    0.839
   560   1 h    0.890 --   559 o    0.839
   561   1 h    0.893 --   559 o    0.853
   562   8 o    1.880 --   564 h    0.825   563 h    0.824
   563   1 h    0.880 --   562 o    0.824
   564   1 h    0.893 --   562 o    0.825
   565   8 o    1.870 --   566 h    0.830   567 h    0.790
   566   1 h    0.892 --   565 o    0.830
   567   1 h    0.872 --   565 o    0.790
   568   8 o    1.857 --   569 h    0.912   570 h    0.790
   569   1 h    0.919 --   568 o    0.912
   570   1 h    0.876 --   568 o    0.790
   571   8 o    1.873 --   572 h    0.844   573 h    0.802
   572   1 h    0.882 --   571 o    0.844
   573   1 h    0.870 --   571 o    0.802
   574   8 o    1.859 --   575 h    0.848   576 h    0.832
   575   1 h    0.891 --   574 o    0.848
   576   1 h    0.884 --   574 o    0.832
   577   8 o    1.864 --   579 h    0.877   578 h    0.860
   578   1 h    0.889 --   577 o    0.860
   579   1 h    0.901 --   577 o    0.877
   580   8 o    1.833 --   582 h    0.890   581 h    0.814
   581   1 h    0.883 --   580 o    0.814
   582   1 h    0.907 --   580 o    0.890
   583   8 o    1.854 --   585 h    0.854   584 h    0.835
   584   1 h    0.891 --   583 o    0.835
   585   1 h    0.892 --   583 o    0.854
   586   8 o    1.863 --   587 h    0.888   588 h    0.780
   587   1 h    0.902 --   586 o    0.888
   588   1 h    0.865 --   586 o    0.780
   589   8 o    1.827 --   590 h    0.863   591 h    0.832
   590   1 h    0.898 --   589 o    0.863
   591   1 h    0.891 --   589 o    0.832
   592   8 o    1.853 --   593 h    0.876   594 h    0.804
   593   1 h    0.900 --   592 o    0.876
   594   1 h    0.873 --   592 o    0.804
   595   8 o    1.857 --   597 h    0.814   596 h    0.807
   596   1 h    0.891 --   595 o    0.807
   597   1 h    0.877 --   595 o    0.814
   598   8 o    1.837 --   600 h    0.855   599 h    0.824
   599   1 h    0.877 --   598 o    0.824
   600   1 h    0.901 --   598 o    0.855
   601   8 o    1.819 --   602 h    0.836   603 h    0.832
   602   1 h    0.896 --   601 o    0.836
   603   1 h    0.882 --   601 o    0.832
   604   8 o    1.881 --   605 h    0.838   606 h    0.835
   605   1 h    0.891 --   604 o    0.838
   606   1 h    0.886 --   604 o    0.835
   607   8 o    1.838 --   608 h    0.889   609 h    0.853
   608   1 h    0.904 --   607 o    0.889
   609   1 h    0.893 --   607 o    0.853
   610   8 o    1.801 --   612 h    0.885   611 h    0.817
   611   1 h    0.885 --   610 o    0.817
   612   1 h    0.907 --   610 o    0.885
   613   8 o    1.838 --   614 h    0.859   615 h    0.829
   614   1 h    0.895 --   613 o    0.859
   615   1 h    0.887 --   613 o    0.829
   616   8 o    1.843 --   618 h    0.850   617 h    0.823
   617   1 h    0.885 --   616 o    0.823
   618   1 h    0.898 --   616 o    0.850
   619   8 o    1.863 --   620 h    0.828   621 h    0.821
   620   1 h    0.886 --   619 o    0.828
   621   1 h    0.887 --   619 o    0.821
   622   8 o    1.871 --   623 h    0.860   624 h    0.812
   623   1 h    0.893 --   622 o    0.860
   624   1 h    0.886 --   622 o    0.812
   625   8 o    1.819 --   626 h    0.856   627 h    0.822
   626   1 h    0.895 --   625 o    0.856
   627   1 h    0.889 --   625 o    0.822
   628   8 o    1.849 --   630 h    0.826   629 h    0.808
   629   1 h    0.877 --   628 o    0.808
   630   1 h    0.876 --   628 o    0.826
   631   8 o    1.858 --   633 h    0.830   632 h    0.811
   632   1 h    0.891 --   631 o    0.811
   633   1 h    0.885 --   631 o    0.830
   634   8 o    1.851 --   635 h    0.841   636 h    0.837
   635   1 h    0.895 --   634 o    0.841
   636   1 h    0.892 --   634 o    0.837
   637   8 o    1.821 --   638 h    0.845   639 h    0.838
   638   1 h    0.898 --   637 o    0.845
   639   1 h    0.892 --   637 o    0.838
   640   8 o    1.848 --   641 h    0.830   642 h    0.806
   641   1 h    0.885 --   640 o    0.830
   642   1 h    0.874 --   640 o    0.806
   643   8 o    1.870 --   644 h    0.892   645 h    0.759
   644   1 h    0.907 --   643 o    0.892
   645   1 h    0.866 --   643 o    0.759
   646   8 o    1.842 --   647 h    0.889   648 h    0.859
   647   1 h    0.903 --   646 o    0.889
   648   1 h    0.896 --   646 o    0.859
   649   8 o    1.839 --   651 h    0.904   650 h    0.836
   650   1 h    0.881 --   649 o    0.836
   651   1 h    0.913 --   649 o    0.904
   652   8 o    1.836 --   654 h    0.893   653 h    0.765
   653   1 h    0.874 --   652 o    0.765   523 o    0.101
   654   1 h    0.911 --   652 o    0.893
   655   8 o    1.829 --   657 h    0.834   656 h    0.807
   656   1 h    0.879 --   655 o    0.807
   657   1 h    0.896 --   655 o    0.834
   658   8 o    1.851 --   660 h    0.914   659 h    0.788
   659   1 h    0.873 --   658 o    0.788
   660   1 h    0.919 --   658 o    0.914
   661   8 o    1.860 --   663 h    0.840   662 h    0.823
   662   1 h    0.879 --   661 o    0.823
   663   1 h    0.869 --   661 o    0.840
   664   8 o    1.852 --   665 h    0.861   666 h    0.856
   665   1 h    0.894 --   664 o    0.861
   666   1 h    0.889 --   664 o    0.856
   667   8 o    1.853 --   668 h    0.864   669 h    0.813
   668   1 h    0.900 --   667 o    0.864
   669   1 h    0.887 --   667 o    0.813
   670   8 o    1.837 --   671 h    0.860   672 h    0.845
   671   1 h    0.890 --   670 o    0.860
   672   1 h    0.899 --   670 o    0.845
   673   8 o    1.850 --   675 h    0.823   674 h    0.790
   674   1 h    0.883 --   673 o    0.790
   675   1 h    0.877 --   673 o    0.823
   676   8 o    1.855 --   678 h    0.915   677 h    0.810
   677   1 h    0.883 --   676 o    0.810
   678   1 h    0.921 --   676 o    0.915
   679   8 o    1.862 --   681 h    0.911   680 h    0.809
   680   1 h    0.877 --   679 o    0.809
   681   1 h    0.918 --   679 o    0.911
   682   8 o    1.858 --   683 h    0.851   684 h    0.828
   683   1 h    0.891 --   682 o    0.851
   684   1 h    0.879 --   682 o    0.828
   685   8 o    1.848 --   687 h    0.847   686 h    0.804
   686   1 h    0.883 --   685 o    0.804
   687   1 h    0.895 --   685 o    0.847
   688   8 o    1.873 --   689 h    0.858   690 h    0.824
   689   1 h    0.894 --   688 o    0.858
   690   1 h    0.883 --   688 o    0.824
   691   8 o    1.829 --   692 h    0.879   693 h    0.868
   692   1 h    0.899 --   691 o    0.879
   693   1 h    0.893 --   691 o    0.868
   694   8 o    1.843 --   696 h    0.869   695 h    0.853
   695   1 h    0.892 --   694 o    0.853
   696   1 h    0.899 --   694 o    0.869
   697   8 o    1.849 --   699 h    0.867   698 h    0.800
   698   1 h    0.886 --   697 o    0.800
   699   1 h    0.894 --   697 o    0.867
   700   8 o    1.848 --   702 h    0.835   701 h    0.769
   701   1 h    0.870 --   700 o    0.769
   702   1 h    0.889 --   700 o    0.835
   703   8 o    1.882 --   705 h    0.819   704 h    0.797
   704   1 h    0.885 --   703 o    0.797
   705   1 h    0.878 --   703 o    0.819
   706   8 o    1.858 --   708 h    0.822   707 h    0.815
   707   1 h    0.890 --   706 o    0.815
   708   1 h    0.883 --   706 o    0.822
   709   8 o    1.857 --   710 h    0.876   711 h    0.858
   710   1 h    0.896 --   709 o    0.876
   711   1 h    0.888 --   709 o    0.858
   712   8 o    1.896 --   714 h    0.872   713 h    0.785
   713   1 h    0.862 --   712 o    0.785
   714   1 h    0.895 --   712 o    0.872
   715   8 o    1.856 --   717 h    0.844   716 h    0.807
   716   1 h    0.876 --   715 o    0.807
   717   1 h    0.888 --   715 o    0.844
   718   8 o    1.869 --   719 h    0.815   720 h    0.785
   719   1 h    0.889 --   718 o    0.815
   720   1 h    0.874 --   718 o    0.785
   721   8 o    1.849 --   723 h    0.873   722 h    0.819
   722   1 h    0.886 --   721 o    0.819
   723   1 h    0.896 --   721 o    0.873
   724   8 o    1.851 --   726 h    0.818   725 h    0.810
   725   1 h    0.880 --   724 o    0.810
   726   1 h    0.889 --   724 o    0.818
   727   8 o    1.869 --   728 h    0.915   729 h    0.825
   728   1 h    0.918 --   727 o    0.915
   729   1 h    0.874 --   727 o    0.825
   730   8 o    1.877 --   732 h    0.915   731 h    0.762
   731   1 h    0.870 --   730 o    0.762   736 o    0.101
   732   1 h    0.918 --   730 o    0.915
   733   8 o    1.868 --   735 h    0.899   734 h    0.782
   734   1 h    0.872 --   733 o    0.782
   735   1 h    0.912 --   733 o    0.899
   736   8 o    1.865 --   738 h    0.836   737 h    0.827   731 h    0.101
   737   1 h    0.887 --   736 o    0.827
   738   1 h    0.893 --   736 o    0.836
   739   8 o    1.875 --   741 h    0.824   740 h    0.819
   740   1 h    0.882 --   739 o    0.819
   741   1 h    0.890 --   739 o    0.824
   742   8 o    1.820 --   744 h    0.850   743 h    0.835
   743   1 h    0.892 --   742 o    0.835
   744   1 h    0.894 --   742 o    0.850
   745   8 o    1.854 --   747 h    0.834   746 h    0.799
   746   1 h    0.878 --   745 o    0.799
   747   1 h    0.883 --   745 o    0.834
   748   8 o    1.879 --   750 h    0.836   749 h    0.821
   749   1 h    0.886 --   748 o    0.821
   750   1 h    0.886 --   748 o    0.836
   751   8 o    1.809 --   752 h    0.867   753 h    0.857
   752   1 h    0.888 --   751 o    0.867
   753   1 h    0.880 --   751 o    0.857
   754   8 o    1.795 --   755 h    0.872   756 h    0.871
   755   1 h    0.899 --   754 o    0.872
   756   1 h    0.896 --   754 o    0.871
 ---------------------------------------------------------------------------

Topologies differ in total number of bonds
Writing topology from bond orders to xtbtopo.mol

molecular dipole:
                 x           y           z       tot (Debye)
 q only:       -0.598       2.006       0.688
   full:       -0.699       2.392       1.580       7.501
molecular quadrupole (traceless):
                xx          xy          yy          xz          yz          zz
 q only:      114.926      14.169      -6.536      -7.031      13.498    -108.390
  q+dip:      172.635      52.629     -18.505      -3.869      10.261    -154.130
   full:      174.160      55.303     -19.148      -2.930      10.177    -155.013


           -------------------------------------------------
          | TOTAL ENERGY            -1283.300996876196 Eh   |
          | GRADIENT NORM               0.100561874709 Eh/α |
          | HOMO-LUMO GAP               5.707463222871 eV   |
           -------------------------------------------------

------------------------------------------------------------------------
 * finished run on 2022/11/24 at 12:22:36.129     
------------------------------------------------------------------------
 total:
 * wall-time:     0 d,  0 h,  0 min, 55.299 sec
 *  cpu-time:     0 d,  0 h,  1 min, 11.376 sec
 * ratio c/w:     1.291 speedup
 SCF:
 * wall-time:     0 d,  0 h,  0 min, 54.284 sec
 *  cpu-time:     0 d,  0 h,  1 min,  9.669 sec
 * ratio c/w:     1.283 speedup

