      -----------------------------------------------------------      
     |                   =====================                   |     
     |                           x T B                           |     
     |                   =====================                   |     
     |                         S. Grimme                         |     
     |          Mulliken Center for Theoretical Chemistry        |     
     |                    University of Bonn                     |     
      -----------------------------------------------------------      

   * xtb version 6.5.1 (579679a) compiled by 'ehlert@majestix' on 2022-07-11

   xtb is free software: you can redistribute it and/or modify it under
   the terms of the GNU Lesser General Public License as published by
   the Free Software Foundation, either version 3 of the License, or
   (at your option) any later version.
   
   xtb is distributed in the hope that it will be useful,
   but WITHOUT ANY WARRANTY; without even the implied warranty of
   MERCHANTABILITY or FITNESS FOR A PARTICULAR PURPOSE.  See the
   GNU Lesser General Public License for more details.
   
   Cite this work as:
   * C. Bannwarth, E. Caldeweyher, S. Ehlert, A. Hansen, P. Pracht,
     J. Seibert, S. Spicher, S. Grimme, WIREs Comput. Mol. Sci., 2020, 11,
     e01493. DOI: 10.1002/wcms.1493
   
   for GFN2-xTB:
   * C. Bannwarth, S. Ehlert and S. Grimme., J. Chem. Theory Comput., 2019,
     15, 1652-1671. DOI: 10.1021/acs.jctc.8b01176
   for GFN1-xTB:
   * S. Grimme, C. Bannwarth, P. Shushkov, J. Chem. Theory Comput., 2017,
     13, 1989-2009. DOI: 10.1021/acs.jctc.7b00118
   for GFN0-xTB:
   * P. Pracht, E. Caldeweyher, S. Ehlert, S. Grimme, ChemRxiv, 2019, preprint.
     DOI: 10.26434/chemrxiv.8326202.v1
   for GFN-FF:
   * S. Spicher and S. Grimme, Angew. Chem. Int. Ed., 2020, 59, 15665-15673.
     DOI: 10.1002/anie.202004239
   
   for ALPB and GBSA implicit solvation:
   * S. Ehlert, M. Stahn, S. Spicher, S. Grimme, J. Chem. Theory Comput.,
     2021, 17, 4250-4261. DOI: 10.1021/acs.jctc.1c00471
   
   for DFT-D4:
   * E. Caldeweyher, C. Bannwarth and S. Grimme, J. Chem. Phys., 2017,
     147, 034112. DOI: 10.1063/1.4993215
   * E. Caldeweyher, S. Ehlert, A. Hansen, H. Neugebauer, S. Spicher,
     C. Bannwarth and S. Grimme, J. Chem. Phys., 2019, 150, 154122.
     DOI: 10.1063/1.5090222
   * E. Caldeweyher, J.-M. Mewes, S. Ehlert and S. Grimme, Phys. Chem. Chem. Phys.
     2020, 22, 8499-8512. DOI: 10.1039/D0CP00502A
   
   for sTDA-xTB:
   * S. Grimme and C. Bannwarth, J. Chem. Phys., 2016, 145, 054103.
     DOI: 10.1063/1.4959605
   
   in the mass-spec context:
   * V. Asgeirsson, C. Bauer and S. Grimme, Chem. Sci., 2017, 8, 4879.
     DOI: 10.1039/c7sc00601b
   * J. Koopman and S. Grimme, ACS Omega 2019, 4, 12, 15120-15133.
     DOI: 10.1021/acsomega.9b02011
   
   for metadynamics refer to:
   * S. Grimme, J. Chem. Theory Comput., 2019, 155, 2847-2862
     DOI: 10.1021/acs.jctc.9b00143
   
   for SPH calculations refer to:
   * S. Spicher and S. Grimme, J. Chem. Theory Comput., 2021, 17, 1701-1714
     DOI: 10.1021/acs.jctc.0c01306
   
   with help from (in alphabetical order)
   P. Atkinson, C. Bannwarth, F. Bohle, G. Brandenburg, E. Caldeweyher
   M. Checinski, S. Dohm, S. Ehlert, S. Ehrlich, I. Gerasimov, C. Hölzer
   A. Katbashev, J. Koopman, C. Lavigne, S. Lehtola, F. März, M. Müller,
   F. Musil, H. Neugebauer, J. Pisarek, C. Plett, P. Pracht, F. Pultar,
   J. Seibert, P. Shushkov, S. Spicher, M. Stahn, M. Steiner, T. Strunk,
   J. Stückrath, T. Rose, and J. Unsleber
   
 * started run on 2022/11/24 at 12:21:16.686     

           -------------------------------------------------
          |                Calculation Setup                |
           -------------------------------------------------

          program call               : xtb xtbopt.coord --gfn2 --sp --gbsa water
          hostname                   : cn0430
          coordinate file            : xtbopt.coord
          omp threads                :                     2

   ID    Z sym.   atoms
    1    8 o      1, 4, 7, 10, 13, 16, 19, 22, 25, 28, 31, 34, 37, 40, 43,
                  46, 49, 52, 55, 58, 61, 64, 67, 70, 73, 76, 79, 82, 85, 88,
                  91, 94, 97, 100, 103, 106, 109, 112, 115, 118, 121, 124,
                  127, 130, 133, 136, 139, 142, 145, 148, 151, 154, 157, 160,
                  163, 166, 169, 172, 175, 178, 181, 184, 187, 190, 193, 196,
                  199, 202, 205, 208, 211, 214, 217, 220, 223, 226, 229, 232,
                  235, 238, 241, 244, 247, 250, 253, 256, 259, 262, 265, 268,
                  271, 274, 277, 280, 283, 286, 289, 292, 295, 298, 301, 304,
                  307, 310, 313, 316, 319, 322, 325, 328, 331, 334, 337, 340,
                  343, 346, 349, 352, 355, 358, 361, 364, 367, 370, 373, 376,
                  379, 382, 385, 388, 391, 394, 397, 400, 403, 406, 409, 412,
                  415, 418, 421, 424, 427, 430, 433, 436, 439, 442, 445, 448,
                  451, 454, 457, 460, 463, 466, 469, 472, 475, 478, 481, 484,
                  487, 490, 493, 496, 499, 502, 505, 508, 511, 514, 517, 520,
                  523, 526, 529, 532, 535, 538, 541, 544, 547, 550, 553, 556,
                  559, 562, 565, 568, 571, 574, 577, 580, 583, 586, 589, 592,
                  595, 598, 601, 604, 607, 610, 613, 616, 619, 622, 625, 628,
                  631, 634, 637, 640, 643, 646, 649, 652, 655, 658, 661, 664,
                  667, 670, 673, 676, 679, 682, 685, 688, 691, 694, 697, 700,
                  703, 706, 709, 712, 715, 718, 721, 724, 727, 730, 733, 736,
                  739, 742, 745, 748, 751, 754
    2    1 h      2, 3, 5, 6, 8, 9, 11, 12, 14, 15, 17, 18, 20, 21, 23, 24,
                  26, 27, 29, 30, 32, 33, 35, 36, 38, 39, 41, 42, 44, 45, 47,
                  48, 50, 51, 53, 54, 56, 57, 59, 60, 62, 63, 65, 66, 68, 69,
                  71, 72, 74, 75, 77, 78, 80, 81, 83, 84, 86, 87, 89, 90, 92,
                  93, 95, 96, 98, 99, 101, 102, 104, 105, 107, 108, 110, 111,
                  113, 114, 116, 117, 119, 120, 122, 123, 125, 126, 128, 129,
                  131, 132, 134, 135, 137, 138, 140, 141, 143, 144, 146, 147,
                  149, 150, 152, 153, 155, 156, 158, 159, 161, 162, 164, 165,
                  167, 168, 170, 171, 173, 174, 176, 177, 179, 180, 182, 183,
                  185, 186, 188, 189, 191, 192, 194, 195, 197, 198, 200, 201,
                  203, 204, 206, 207, 209, 210, 212, 213, 215, 216, 218, 219,
                  221, 222, 224, 225, 227, 228, 230, 231, 233, 234, 236, 237,
                  239, 240, 242, 243, 245, 246, 248, 249, 251, 252, 254, 255,
                  257, 258, 260, 261, 263, 264, 266, 267, 269, 270, 272, 273,
                  275, 276, 278, 279, 281, 282, 284, 285, 287, 288, 290, 291,
                  293, 294, 296, 297, 299, 300, 302, 303, 305, 306, 308, 309,
                  311, 312, 314, 315, 317, 318, 320, 321, 323, 324, 326, 327,
                  329, 330, 332, 333, 335, 336, 338, 339, 341, 342, 344, 345,
                  347, 348, 350, 351, 353, 354, 356, 357, 359, 360, 362, 363,
                  365, 366, 368, 369, 371, 372, 374, 375, 377, 378, 380, 381,
                  383, 384, 386, 387, 389, 390, 392, 393, 395, 396, 398, 399,
                  401, 402, 404, 405, 407, 408, 410, 411, 413, 414, 416, 417,
                  419, 420, 422, 423, 425, 426, 428, 429, 431, 432, 434, 435,
                  437, 438, 440, 441, 443, 444, 446, 447, 449, 450, 452, 453,
                  455, 456, 458, 459, 461, 462, 464, 465, 467, 468, 470, 471,
                  473, 474, 476, 477, 479, 480, 482, 483, 485, 486, 488, 489,
                  491, 492, 494, 495, 497, 498, 500, 501, 503, 504, 506, 507,
                  509, 510, 512, 513, 515, 516, 518, 519, 521, 522, 524, 525,
                  527, 528, 530, 531, 533, 534, 536, 537, 539, 540, 542, 543,
                  545, 546, 548, 549, 551, 552, 554, 555, 557, 558, 560, 561,
                  563, 564, 566, 567, 569, 570, 572, 573, 575, 576, 578, 579,
                  581, 582, 584, 585, 587, 588, 590, 591, 593, 594, 596, 597,
                  599, 600, 602, 603, 605, 606, 608, 609, 611, 612, 614, 615,
                  617, 618, 620, 621, 623, 624, 626, 627, 629, 630, 632, 633,
                  635, 636, 638, 639, 641, 642, 644, 645, 647, 648, 650, 651,
                  653, 654, 656, 657, 659, 660, 662, 663, 665, 666, 668, 669,
                  671, 672, 674, 675, 677, 678, 680, 681, 683, 684, 686, 687,
                  689, 690, 692, 693, 695, 696, 698, 699, 701, 702, 704, 705,
                  707, 708, 710, 711, 713, 714, 716, 717, 719, 720, 722, 723,
                  725, 726, 728, 729, 731, 732, 734, 735, 737, 738, 740, 741,
                  743, 744, 746, 747, 749, 750, 752, 753, 755, 756

molecular fragmentation (1/2 indicates fragments):
111222222222222222222222222222222222222222222222222222222222222222222222
222222222222222222222222222222222222222222222222222222222222222222222222
222222222222222222222222222222222222222222222222222222222222222222222222
222222222222222222222222222222222222222222222222222222222222222222222222
222222222222222222222222222222222222222222222222222222222222222222222222
222222222222222222222222222222222222222222222222222222222222222222222222
222222222222222222222222222222222222222222222222222222222222222222222222
222222222222222222222222222222222222222222222222222222222222222222222222
222222222222222222222222222222222222222222222222222222222222222222222222
222222222222222222222222222222222222222222222222222222222222222222222222
222222222222222222222222222222222222
# atoms in fragment 1/2:     3   753
 fragment masses (1/2) :       18.02     4521.84
CMA distance (Bohr)    :  18.512
constraining FC (au)   :  0.0500

           -------------------------------------------------
          |                 G F N 2 - x T B                 |
           -------------------------------------------------

        Reference                      10.1021/acs.jctc.8b01176
      * Hamiltonian:
        H0-scaling (s, p, d)           1.850000    2.230000    2.230000
        zeta-weighting                 0.500000
      * Dispersion:
        s8                             2.700000
        a1                             0.520000
        a2                             5.000000
        s9                             5.000000
      * Repulsion:
        kExp                           1.500000    1.000000
        rExp                           1.000000
      * Coulomb:
        alpha                          2.000000
        third order                    shell-resolved
        anisotropic                    true
        a3                             3.000000
        a5                             4.000000
        cn-shift                       1.200000
        cn-exp                         4.000000
        max-rad                        5.000000

      * Solvation model:               GBSA
        Solvent                        water
        Parameter file                 internal GFN2-xTB/GBSA
        Dielectric constant                8.0200E+01
        Reference state                gsolv [1 M gas/solution]
        Free energy shift                  1.8574E-03 Eh       1.1656E+00 kcal/mol
        Temperature                        2.9815E+02 K
        Density                            1.0000E+00 kg/L
        Solvent mass                       1.8000E+01 g/mol
        Interaction kernel             Still
        Born radius scaling (c1)           1.5524E+00
        Born radii integrator          GBOBC
        Born offset                        2.4628E-02 a0       4.6540E-02 AA
        H-bond correction              true
        Ion screening                  false
        Surface tension                    1.0000E-05 Eh       1.5569E+01 dyn/cm
        Grid points                               230 per atom

          ...................................................
          :                      SETUP                      :
          :.................................................:
          :  # basis functions                1512          :
          :  # atomic orbitals                1512          :
          :  # shells                         1008          :
          :  # electrons                      2016          :
          :  max. iterations                   250          :
          :  Hamiltonian                  GFN2-xTB          :
          :  restarted?                      false          :
          :  GBSA solvation                   true          :
          :  PC potential                    false          :
          :  electronic temp.          300.0000000     K    :
          :  accuracy                    1.0000000          :
          :  -> integral cutoff          0.2500000E+02      :
          :  -> integral neglect         0.1000000E-07      :
          :  -> SCF convergence          0.1000000E-05 Eh   :
          :  -> wf. convergence          0.1000000E-03 e    :
          :  Broyden damping             0.4000000          :
          ...................................................

 iter      E             dE          RMSdq      gap      omega  full diag
   1  -1291.2174900 -0.129122E+04  0.408E+00    8.42       0.0  T
   2  -1291.3019729 -0.844829E-01  0.242E+00    8.01       1.0  T
   3  -1291.3378426 -0.358698E-01  0.225E-01    6.59       1.0  T
   4  -1291.3433011 -0.545843E-02  0.483E-02    6.91       1.0  T
   5  -1291.3434681 -0.166979E-03  0.308E-02    6.83       1.0  T
   6  -1291.3435156 -0.475644E-04  0.365E-03    6.84       1.0  T
   7  -1291.3435172 -0.158397E-05  0.943E-04    6.84       3.9  T
   8  -1291.3435173 -0.100681E-06  0.480E-04    6.84       7.6  T
   9  -1291.3435173 -0.384243E-07  0.144E-04    6.84      25.2  T

   *** convergence criteria satisfied after 9 iterations ***

         #    Occupation            Energy/Eh            Energy/eV
      -------------------------------------------------------------
         1        2.0000           -0.6579699             -17.9043
       ...           ...                  ...                  ...
      1002        2.0000           -0.3328168              -9.0564
      1003        2.0000           -0.3280303              -8.9262
      1004        2.0000           -0.3279706              -8.9245
      1005        2.0000           -0.3259788              -8.8703
      1006        2.0000           -0.3242999              -8.8246
      1007        2.0000           -0.3190394              -8.6815
      1008        2.0000           -0.3019646              -8.2169 (HOMO)
      1009                         -0.0507573              -1.3812 (LUMO)
      1010                         -0.0460115              -1.2520
      1011                         -0.0310150              -0.8440
      1012                         -0.0283508              -0.7715
      1013                         -0.0248941              -0.6774
       ...                                ...                  ...
      1512                          0.5095002              13.8642
      -------------------------------------------------------------
                  HL-Gap            0.2512073 Eh            6.8357 eV
             Fermi-level           -0.1763610 Eh           -4.7990 eV

 SCC (total)                   0 d,  0 h,  0 min, 21.252 sec
 SCC setup                      ...        0 min,  0.117 sec (  0.551%)
 Dispersion                     ...        0 min,  0.110 sec (  0.516%)
 classical contributions        ...        0 min,  0.023 sec (  0.109%)
 integral evaluation            ...        0 min,  0.600 sec (  2.823%)
 iterations                     ...        0 min,  7.838 sec ( 36.881%)
 molecular gradient             ...        0 min, 12.494 sec ( 58.790%)
 printout                       ...        0 min,  0.070 sec (  0.330%)

         :::::::::::::::::::::::::::::::::::::::::::::::::::::
         ::                     SUMMARY                     ::
         :::::::::::::::::::::::::::::::::::::::::::::::::::::
         :: total energy           -1283.547679991043 Eh    ::
         :: total w/o Gsasa/hb     -1283.315810451074 Eh    ::
         :: gradient norm              0.119140483518 Eh/a0 ::
         :: HOMO-LUMO gap              6.835697852997 eV    ::
         ::.................................................::
         :: SCC energy             -1291.343517342709 Eh    ::
         :: -> isotropic ES            7.346621222279 Eh    ::
         :: -> anisotropic ES         -1.632111298462 Eh    ::
         :: -> anisotropic XC         -0.120428072901 Eh    ::
         :: -> dispersion             -0.795876946642 Eh    ::
         :: -> Gsolv                  -0.262479334021 Eh    ::
         ::    -> Gelec               -0.030609794053 Eh    ::
         ::    -> Gsasa                0.004717377273 Eh    ::
         ::    -> Ghb                 -0.238444360368 Eh    ::
         ::    -> Gshift               0.001857443127 Eh    ::
         :: repulsion energy           7.637827539228 Eh    ::
         :: add. restraining           0.000000000000 Eh    ::
         :: total charge               0.000000000000 e     ::
         :::::::::::::::::::::::::::::::::::::::::::::::::::::

           -------------------------------------------------
          |                Property Printout                |
           -------------------------------------------------

    * Orbital Energies and Occupations

         #    Occupation            Energy/Eh            Energy/eV
      -------------------------------------------------------------
         1        2.0000           -0.6579699             -17.9043
       ...           ...                  ...                  ...
       996        2.0000           -0.3389494              -9.2233
       997        2.0000           -0.3385041              -9.2112
       998        2.0000           -0.3381452              -9.2014
       999        2.0000           -0.3371071              -9.1732
      1000        2.0000           -0.3353519              -9.1254
      1001        2.0000           -0.3335968              -9.0776
      1002        2.0000           -0.3328168              -9.0564
      1003        2.0000           -0.3280303              -8.9262
      1004        2.0000           -0.3279706              -8.9245
      1005        2.0000           -0.3259788              -8.8703
      1006        2.0000           -0.3242999              -8.8246
      1007        2.0000           -0.3190394              -8.6815
      1008        2.0000           -0.3019646              -8.2169 (HOMO)
      1009                         -0.0507573              -1.3812 (LUMO)
      1010                         -0.0460115              -1.2520
      1011                         -0.0310150              -0.8440
      1012                         -0.0283508              -0.7715
      1013                         -0.0248941              -0.6774
      1014                         -0.0192481              -0.5238
      1015                         -0.0183403              -0.4991
      1016                         -0.0068204              -0.1856
      1017                         -0.0056856              -0.1547
      1018                         -0.0016753              -0.0456
      1019                         -0.0007844              -0.0213
       ...                                ...                  ...
      1512                          0.5095002              13.8642
      -------------------------------------------------------------
                  HL-Gap            0.2512073 Eh            6.8357 eV
             Fermi-level           -0.1763610 Eh           -4.7990 eV

     #   Z          covCN         q      C6AA      α(0)
     1   8 o        1.609    -0.653    26.485     6.946
     2   1 h        0.803     0.351     0.586     1.203
     3   1 h        0.806     0.314     0.681     1.296
     4   8 o        1.607    -0.672    26.986     7.011
     5   1 h        0.803     0.343     0.604     1.221
     6   1 h        0.804     0.339     0.614     1.231
     7   8 o        1.607    -0.691    27.482     7.075
     8   1 h        0.804     0.333     0.631     1.248
     9   1 h        0.804     0.334     0.626     1.243
    10   8 o        1.609    -0.687    27.367     7.060
    11   1 h        0.804     0.348     0.592     1.209
    12   1 h        0.805     0.322     0.659     1.275
    13   8 o        1.609    -0.661    26.694     6.973
    14   1 h        0.804     0.342     0.607     1.223
    15   1 h        0.805     0.336     0.623     1.240
    16   8 o        1.608    -0.689    27.428     7.068
    17   1 h        0.803     0.354     0.580     1.196
    18   1 h        0.804     0.328     0.642     1.258
    19   8 o        1.606    -0.685    27.317     7.054
    20   1 h        0.803     0.336     0.621     1.238
    21   1 h        0.803     0.346     0.597     1.214
    22   8 o        1.607    -0.670    26.918     7.002
    23   1 h        0.804     0.348     0.593     1.210
    24   1 h        0.804     0.327     0.644     1.261
    25   8 o        1.610    -0.671    26.950     7.007
    26   1 h        0.804     0.349     0.590     1.206
    27   1 h        0.805     0.333     0.630     1.247
    28   8 o        1.609    -0.678    27.140     7.031
    29   1 h        0.804     0.321     0.662     1.278
    30   1 h        0.804     0.351     0.585     1.202
    31   8 o        1.609    -0.678    27.122     7.029
    32   1 h        0.805     0.342     0.608     1.225
    33   1 h        0.804     0.331     0.634     1.251
    34   8 o        1.606    -0.688    27.401     7.065
    35   1 h        0.804     0.322     0.658     1.274
    36   1 h        0.802     0.352     0.584     1.200
    37   8 o        1.605    -0.701    27.734     7.108
    38   1 h        0.803     0.336     0.623     1.240
    39   1 h        0.803     0.346     0.597     1.214
    40   8 o        1.607    -0.698    27.652     7.097
    41   1 h        0.803     0.352     0.584     1.201
    42   1 h        0.805     0.341     0.609     1.226
    43   8 o        1.607    -0.692    27.488     7.076
    44   1 h        0.804     0.356     0.575     1.191
    45   1 h        0.803     0.349     0.590     1.207
    46   8 o        1.609    -0.658    26.618     6.963
    47   1 h        0.805     0.337     0.620     1.237
    48   1 h        0.804     0.360     0.566     1.182
    49   8 o        1.610    -0.662    26.709     6.975
    50   1 h        0.804     0.344     0.602     1.219
    51   1 h        0.805     0.322     0.659     1.275
    52   8 o        1.609    -0.681    27.201     7.039
    53   1 h        0.804     0.338     0.616     1.233
    54   1 h        0.804     0.335     0.624     1.241
    55   8 o        1.611    -0.692    27.500     7.078
    56   1 h        0.805     0.338     0.617     1.234
    57   1 h        0.804     0.350     0.587     1.204
    58   8 o        1.604    -0.689    27.435     7.069
    59   1 h        0.803     0.342     0.608     1.225
    60   1 h        0.804     0.328     0.642     1.259
    61   8 o        1.609    -0.684    27.278     7.049
    62   1 h        0.804     0.338     0.617     1.234
    63   1 h        0.805     0.322     0.658     1.274
    64   8 o        1.607    -0.700    27.699     7.103
    65   1 h        0.804     0.341     0.611     1.228
    66   1 h        0.803     0.341     0.610     1.227
    67   8 o        1.606    -0.717    28.155     7.161
    68   1 h        0.804     0.353     0.581     1.198
    69   1 h        0.803     0.344     0.604     1.221
    70   8 o        1.609    -0.659    26.654     6.968
    71   1 h        0.804     0.341     0.610     1.227
    72   1 h        0.804     0.331     0.635     1.252
    73   8 o        1.607    -0.697    27.639     7.095
    74   1 h        0.803     0.336     0.624     1.241
    75   1 h        0.802     0.355     0.576     1.193
    76   8 o        1.608    -0.689    27.430     7.069
    77   1 h        0.803     0.362     0.561     1.177
    78   1 h        0.805     0.330     0.637     1.253
    79   8 o        1.607    -0.687    27.375     7.062
    80   1 h        0.803     0.353     0.582     1.198
    81   1 h        0.804     0.344     0.602     1.219
    82   8 o        1.608    -0.677    27.107     7.027
    83   1 h        0.803     0.353     0.582     1.198
    84   1 h        0.805     0.327     0.644     1.261
    85   8 o        1.608    -0.675    27.042     7.018
    86   1 h        0.803     0.345     0.601     1.218
    87   1 h        0.805     0.346     0.599     1.215
    88   8 o        1.609    -0.671    26.940     7.005
    89   1 h        0.805     0.343     0.605     1.221
    90   1 h        0.804     0.360     0.565     1.181
    91   8 o        1.608    -0.662    26.708     6.975
    92   1 h        0.803     0.365     0.555     1.170
    93   1 h        0.805     0.313     0.684     1.299
    94   8 o        1.607    -0.700    27.710     7.105
    95   1 h        0.803     0.351     0.585     1.202
    96   1 h        0.804     0.341     0.610     1.227
    97   8 o        1.607    -0.672    26.990     7.012
    98   1 h        0.804     0.356     0.574     1.190
    99   1 h        0.803     0.329     0.639     1.256
   100   8 o        1.610    -0.670    26.922     7.003
   101   1 h        0.805     0.344     0.603     1.220
   102   1 h        0.805     0.356     0.575     1.191
   103   8 o        1.607    -0.687    27.367     7.060
   104   1 h        0.804     0.355     0.577     1.193
   105   1 h        0.803     0.346     0.597     1.214
   106   8 o        1.609    -0.667    26.839     6.992
   107   1 h        0.805     0.343     0.605     1.222
   108   1 h        0.804     0.332     0.631     1.248
   109   8 o        1.608    -0.671    26.943     7.006
   110   1 h        0.804     0.319     0.667     1.283
   111   1 h        0.804     0.359     0.567     1.183
   112   8 o        1.605    -0.684    27.285     7.050
   113   1 h        0.803     0.342     0.607     1.224
   114   1 h        0.803     0.346     0.598     1.215
   115   8 o        1.608    -0.687    27.370     7.061
   116   1 h        0.804     0.346     0.598     1.215
   117   1 h        0.803     0.325     0.650     1.266
   118   8 o        1.608    -0.666    26.823     6.990
   119   1 h        0.804     0.326     0.649     1.266
   120   1 h        0.804     0.349     0.591     1.208
   121   8 o        1.608    -0.683    27.258     7.046
   122   1 h        0.804     0.339     0.614     1.231
   123   1 h        0.804     0.318     0.670     1.286
   124   8 o        1.609    -0.678    27.132     7.030
   125   1 h        0.804     0.341     0.610     1.227
   126   1 h        0.803     0.341     0.609     1.226
   127   8 o        1.608    -0.675    27.067     7.022
   128   1 h        0.803     0.344     0.602     1.219
   129   1 h        0.804     0.336     0.623     1.240
   130   8 o        1.608    -0.686    27.340     7.057
   131   1 h        0.803     0.358     0.571     1.187
   132   1 h        0.804     0.350     0.588     1.205
   133   8 o        1.608    -0.679    27.150     7.032
   134   1 h        0.804     0.350     0.588     1.204
   135   1 h        0.804     0.326     0.647     1.263
   136   8 o        1.609    -0.675    27.062     7.021
   137   1 h        0.804     0.330     0.637     1.254
   138   1 h        0.804     0.333     0.629     1.246
   139   8 o        1.602    -0.722    28.312     7.181
   140   1 h        0.803     0.352     0.584     1.200
   141   1 h        0.802     0.364     0.556     1.172
   142   8 o        1.607    -0.681    27.205     7.040
   143   1 h        0.804     0.330     0.638     1.255
   144   1 h        0.803     0.347     0.596     1.212
   145   8 o        1.610    -0.658    26.607     6.962
   146   1 h        0.805     0.325     0.651     1.268
   147   1 h        0.805     0.337     0.621     1.237
   148   8 o        1.607    -0.701    27.726     7.107
   149   1 h        0.804     0.347     0.595     1.212
   150   1 h        0.803     0.350     0.587     1.204
   151   8 o        1.608    -0.678    27.135     7.030
   152   1 h        0.804     0.350     0.588     1.205
   153   1 h        0.804     0.327     0.645     1.261
   154   8 o        1.610    -0.649    26.393     6.934
   155   1 h        0.805     0.333     0.631     1.247
   156   1 h        0.805     0.329     0.640     1.257
   157   8 o        1.608    -0.674    27.029     7.017
   158   1 h        0.805     0.342     0.606     1.223
   159   1 h        0.803     0.362     0.560     1.176
   160   8 o        1.607    -0.683    27.254     7.046
   161   1 h        0.803     0.357     0.573     1.189
   162   1 h        0.804     0.329     0.641     1.258
   163   8 o        1.610    -0.677    27.094     7.025
   164   1 h        0.804     0.322     0.658     1.274
   165   1 h        0.803     0.353     0.580     1.197
   166   8 o        1.607    -0.688    27.398     7.064
   167   1 h        0.804     0.338     0.618     1.235
   168   1 h        0.802     0.356     0.575     1.191
   169   8 o        1.605    -0.696    27.611     7.092
   170   1 h        0.803     0.336     0.622     1.239
   171   1 h        0.804     0.354     0.578     1.194
   172   8 o        1.607    -0.689    27.418     7.067
   173   1 h        0.804     0.371     0.542     1.157
   174   1 h        0.805     0.339     0.614     1.231
   175   8 o        1.604    -0.720    28.239     7.172
   176   1 h        0.802     0.353     0.581     1.198
   177   1 h        0.803     0.340     0.611     1.228
   178   8 o        1.609    -0.665    26.790     6.986
   179   1 h        0.804     0.343     0.605     1.221
   180   1 h        0.805     0.337     0.621     1.238
   181   8 o        1.606    -0.686    27.331     7.056
   182   1 h        0.802     0.360     0.566     1.182
   183   1 h        0.805     0.313     0.683     1.298
   184   8 o        1.607    -0.686    27.349     7.058
   185   1 h        0.804     0.323     0.655     1.272
   186   1 h        0.802     0.360     0.565     1.181
   187   8 o        1.607    -0.709    27.956     7.136
   188   1 h        0.803     0.340     0.612     1.229
   189   1 h        0.804     0.346     0.598     1.215
   190   8 o        1.605    -0.691    27.474     7.074
   191   1 h        0.803     0.348     0.594     1.210
   192   1 h        0.802     0.361     0.563     1.179
   193   8 o        1.607    -0.681    27.206     7.040
   194   1 h        0.803     0.344     0.602     1.219
   195   1 h        0.804     0.339     0.616     1.232
   196   8 o        1.608    -0.668    26.877     6.997
   197   1 h        0.805     0.331     0.635     1.252
   198   1 h        0.803     0.335     0.625     1.242
   199   8 o        1.607    -0.692    27.489     7.076
   200   1 h        0.803     0.345     0.601     1.217
   201   1 h        0.803     0.354     0.580     1.196
   202   8 o        1.608    -0.685    27.320     7.054
   203   1 h        0.804     0.354     0.578     1.194
   204   1 h        0.804     0.343     0.606     1.223
   205   8 o        1.610    -0.673    27.014     7.015
   206   1 h        0.803     0.348     0.593     1.210
   207   1 h        0.805     0.341     0.610     1.227
   208   8 o        1.608    -0.668    26.884     6.998
   209   1 h        0.803     0.361     0.563     1.179
   210   1 h        0.805     0.305     0.707     1.320
   211   8 o        1.606    -0.687    27.363     7.060
   212   1 h        0.803     0.332     0.633     1.250
   213   1 h        0.803     0.365     0.554     1.169
   214   8 o        1.608    -0.687    27.378     7.062
   215   1 h        0.805     0.347     0.596     1.213
   216   1 h        0.803     0.356     0.575     1.191
   217   8 o        1.609    -0.695    27.590     7.089
   218   1 h        0.804     0.325     0.652     1.268
   219   1 h        0.805     0.346     0.597     1.214
   220   8 o        1.609    -0.678    27.137     7.031
   221   1 h        0.805     0.343     0.605     1.222
   222   1 h        0.804     0.338     0.617     1.234
   223   8 o        1.607    -0.680    27.191     7.038
   224   1 h        0.805     0.316     0.674     1.289
   225   1 h        0.802     0.358     0.570     1.186
   226   8 o        1.610    -0.652    26.463     6.943
   227   1 h        0.804     0.358     0.570     1.186
   228   1 h        0.806     0.306     0.704     1.318
   229   8 o        1.607    -0.667    26.859     6.995
   230   1 h        0.804     0.347     0.596     1.213
   231   1 h        0.803     0.329     0.640     1.256
   232   8 o        1.609    -0.654    26.505     6.948
   233   1 h        0.803     0.349     0.590     1.207
   234   1 h        0.805     0.319     0.667     1.283
   235   8 o        1.608    -0.670    26.937     7.005
   236   1 h        0.803     0.358     0.571     1.187
   237   1 h        0.803     0.337     0.620     1.237
   238   8 o        1.608    -0.672    26.981     7.011
   239   1 h        0.805     0.321     0.660     1.276
   240   1 h        0.803     0.363     0.560     1.175
   241   8 o        1.608    -0.686    27.343     7.057
   242   1 h        0.805     0.324     0.653     1.269
   243   1 h        0.803     0.350     0.588     1.205
   244   8 o        1.608    -0.676    27.075     7.023
   245   1 h        0.804     0.326     0.647     1.263
   246   1 h        0.804     0.349     0.590     1.206
   247   8 o        1.607    -0.694    27.555     7.085
   248   1 h        0.803     0.350     0.588     1.204
   249   1 h        0.803     0.356     0.574     1.190
   250   8 o        1.608    -0.686    27.332     7.056
   251   1 h        0.805     0.323     0.656     1.272
   252   1 h        0.804     0.347     0.594     1.211
   253   8 o        1.608    -0.682    27.231     7.043
   254   1 h        0.804     0.360     0.564     1.180
   255   1 h        0.804     0.331     0.634     1.251
   256   8 o        1.608    -0.675    27.066     7.022
   257   1 h        0.803     0.340     0.612     1.229
   258   1 h        0.805     0.330     0.638     1.254
   259   8 o        1.608    -0.685    27.305     7.052
   260   1 h        0.803     0.355     0.576     1.192
   261   1 h        0.805     0.318     0.670     1.285
   262   8 o        1.609    -0.690    27.439     7.070
   263   1 h        0.804     0.364     0.557     1.172
   264   1 h        0.805     0.349     0.591     1.207
   265   8 o        1.607    -0.700    27.701     7.103
   266   1 h        0.804     0.321     0.661     1.277
   267   1 h        0.803     0.354     0.578     1.194
   268   8 o        1.609    -0.668    26.874     6.997
   269   1 h        0.805     0.327     0.645     1.262
   270   1 h        0.804     0.340     0.611     1.228
   271   8 o        1.608    -0.679    27.154     7.033
   272   1 h        0.803     0.365     0.555     1.170
   273   1 h        0.805     0.341     0.610     1.227
   274   8 o        1.608    -0.675    27.056     7.020
   275   1 h        0.803     0.351     0.586     1.203
   276   1 h        0.805     0.320     0.663     1.279
   277   8 o        1.605    -0.695    27.589     7.089
   278   1 h        0.803     0.360     0.566     1.181
   279   1 h        0.803     0.338     0.617     1.234
   280   8 o        1.606    -0.702    27.765     7.112
   281   1 h        0.804     0.348     0.593     1.210
   282   1 h        0.804     0.345     0.601     1.218
   283   8 o        1.609    -0.665    26.804     6.988
   284   1 h        0.806     0.303     0.711     1.325
   285   1 h        0.803     0.356     0.575     1.191
   286   8 o        1.608    -0.685    27.320     7.054
   287   1 h        0.804     0.336     0.621     1.238
   288   1 h        0.804     0.342     0.607     1.224
   289   8 o        1.608    -0.654    26.522     6.951
   290   1 h        0.805     0.324     0.654     1.270
   291   1 h        0.803     0.344     0.604     1.220
   292   8 o        1.607    -0.668    26.875     6.997
   293   1 h        0.802     0.369     0.546     1.161
   294   1 h        0.805     0.311     0.690     1.304
   295   8 o        1.606    -0.679    27.156     7.033
   296   1 h        0.806     0.302     0.715     1.329
   297   1 h        0.800     0.366     0.554     1.169
   298   8 o        1.606    -0.686    27.352     7.058
   299   1 h        0.802     0.329     0.640     1.257
   300   1 h        0.803     0.361     0.562     1.178
   301   8 o        1.609    -0.669    26.887     6.998
   302   1 h        0.804     0.328     0.642     1.259
   303   1 h        0.805     0.349     0.590     1.207
   304   8 o        1.608    -0.677    27.108     7.027
   305   1 h        0.804     0.337     0.621     1.237
   306   1 h        0.804     0.341     0.611     1.228
   307   8 o        1.607    -0.690    27.446     7.071
   308   1 h        0.803     0.355     0.577     1.194
   309   1 h        0.803     0.347     0.596     1.213
   310   8 o        1.607    -0.691    27.471     7.074
   311   1 h        0.804     0.326     0.649     1.265
   312   1 h        0.803     0.345     0.601     1.218
   313   8 o        1.606    -0.686    27.348     7.058
   314   1 h        0.803     0.350     0.588     1.204
   315   1 h        0.804     0.326     0.647     1.264
   316   8 o        1.608    -0.644    26.265     6.917
   317   1 h        0.803     0.339     0.614     1.231
   318   1 h        0.805     0.328     0.643     1.259
   319   8 o        1.606    -0.675    27.043     7.019
   320   1 h        0.803     0.336     0.621     1.238
   321   1 h        0.803     0.339     0.614     1.231
   322   8 o        1.607    -0.687    27.366     7.060
   323   1 h        0.804     0.352     0.584     1.201
   324   1 h        0.802     0.357     0.571     1.188
   325   8 o        1.608    -0.669    26.902     7.000
   326   1 h        0.805     0.329     0.640     1.257
   327   1 h        0.803     0.349     0.591     1.208
   328   8 o        1.607    -0.692    27.503     7.078
   329   1 h        0.805     0.319     0.666     1.282
   330   1 h        0.803     0.355     0.578     1.194
   331   8 o        1.609    -0.659    26.637     6.966
   332   1 h        0.804     0.340     0.612     1.229
   333   1 h        0.806     0.313     0.684     1.299
   334   8 o        1.610    -0.695    27.572     7.087
   335   1 h        0.804     0.333     0.629     1.246
   336   1 h        0.804     0.356     0.576     1.192
   337   8 o        1.606    -0.686    27.344     7.057
   338   1 h        0.802     0.351     0.586     1.202
   339   1 h        0.804     0.354     0.580     1.196
   340   8 o        1.608    -0.684    27.300     7.052
   341   1 h        0.805     0.317     0.671     1.287
   342   1 h        0.803     0.361     0.564     1.180
   343   8 o        1.608    -0.670    26.919     7.002
   344   1 h        0.804     0.337     0.621     1.238
   345   1 h        0.804     0.331     0.636     1.253
   346   8 o        1.606    -0.678    27.145     7.032
   347   1 h        0.803     0.359     0.568     1.184
   348   1 h        0.805     0.320     0.663     1.279
   349   8 o        1.607    -0.678    27.143     7.031
   350   1 h        0.803     0.335     0.626     1.242
   351   1 h        0.804     0.348     0.592     1.208
   352   8 o        1.608    -0.658    26.613     6.963
   353   1 h        0.805     0.316     0.675     1.291
   354   1 h        0.802     0.348     0.594     1.211
   355   8 o        1.609    -0.676    27.084     7.024
   356   1 h        0.804     0.338     0.616     1.233
   357   1 h        0.805     0.336     0.621     1.238
   358   8 o        1.609    -0.636    26.068     6.891
   359   1 h        0.804     0.326     0.649     1.265
   360   1 h        0.805     0.309     0.695     1.310
   361   8 o        1.608    -0.686    27.342     7.057
   362   1 h        0.804     0.345     0.599     1.216
   363   1 h        0.804     0.335     0.624     1.241
   364   8 o        1.607    -0.694    27.546     7.083
   365   1 h        0.803     0.349     0.590     1.207
   366   1 h        0.804     0.361     0.563     1.179
   367   8 o        1.604    -0.717    28.169     7.163
   368   1 h        0.803     0.353     0.581     1.197
   369   1 h        0.803     0.340     0.612     1.229
   370   8 o        1.609    -0.669    26.887     6.998
   371   1 h        0.804     0.346     0.598     1.215
   372   1 h        0.805     0.331     0.636     1.252
   373   8 o        1.607    -0.685    27.325     7.055
   374   1 h        0.805     0.328     0.641     1.258
   375   1 h        0.802     0.352     0.584     1.201
   376   8 o        1.608    -0.689    27.419     7.067
   377   1 h        0.804     0.348     0.593     1.209
   378   1 h        0.804     0.339     0.614     1.231
   379   8 o        1.611    -0.661    26.686     6.972
   380   1 h        0.804     0.359     0.567     1.183
   381   1 h        0.804     0.322     0.659     1.275
   382   8 o        1.607    -0.685    27.327     7.055
   383   1 h        0.803     0.340     0.613     1.230
   384   1 h        0.804     0.349     0.591     1.207
   385   8 o        1.609    -0.676    27.082     7.024
   386   1 h        0.804     0.336     0.622     1.239
   387   1 h        0.805     0.340     0.612     1.228
   388   8 o        1.609    -0.689    27.414     7.067
   389   1 h        0.804     0.343     0.604     1.221
   390   1 h        0.804     0.334     0.627     1.244
   391   8 o        1.609    -0.676    27.090     7.025
   392   1 h        0.805     0.329     0.640     1.257
   393   1 h        0.803     0.343     0.604     1.221
   394   8 o        1.608    -0.679    27.166     7.035
   395   1 h        0.803     0.351     0.587     1.204
   396   1 h        0.805     0.315     0.678     1.293
   397   8 o        1.607    -0.682    27.234     7.043
   398   1 h        0.803     0.338     0.616     1.233
   399   1 h        0.803     0.331     0.635     1.252
   400   8 o        1.608    -0.683    27.266     7.047
   401   1 h        0.805     0.320     0.664     1.280
   402   1 h        0.802     0.367     0.551     1.166
   403   8 o        1.608    -0.675    27.047     7.019
   404   1 h        0.803     0.336     0.623     1.240
   405   1 h        0.804     0.359     0.567     1.183
   406   8 o        1.607    -0.683    27.264     7.047
   407   1 h        0.804     0.344     0.602     1.219
   408   1 h        0.803     0.338     0.617     1.233
   409   8 o        1.607    -0.705    27.837     7.121
   410   1 h        0.803     0.350     0.587     1.204
   411   1 h        0.803     0.356     0.575     1.191
   412   8 o        1.610    -0.691    27.472     7.074
   413   1 h        0.805     0.338     0.618     1.235
   414   1 h        0.805     0.350     0.587     1.204
   415   8 o        1.607    -0.684    27.276     7.049
   416   1 h        0.804     0.328     0.642     1.258
   417   1 h        0.803     0.347     0.596     1.212
   418   8 o        1.605    -0.713    28.069     7.150
   419   1 h        0.803     0.336     0.623     1.239
   420   1 h        0.802     0.357     0.572     1.188
   421   8 o        1.608    -0.663    26.736     6.979
   422   1 h        0.803     0.331     0.635     1.252
   423   1 h        0.805     0.348     0.592     1.209
   424   8 o        1.606    -0.691    27.474     7.074
   425   1 h        0.803     0.342     0.606     1.223
   426   1 h        0.803     0.346     0.598     1.215
   427   8 o        1.609    -0.680    27.188     7.037
   428   1 h        0.804     0.329     0.640     1.257
   429   1 h        0.805     0.317     0.671     1.287
   430   8 o        1.607    -0.697    27.620     7.093
   431   1 h        0.804     0.334     0.626     1.243
   432   1 h        0.803     0.360     0.566     1.182
   433   8 o        1.609    -0.656    26.562     6.956
   434   1 h        0.804     0.337     0.621     1.237
   435   1 h        0.805     0.327     0.644     1.261
   436   8 o        1.608    -0.684    27.289     7.050
   437   1 h        0.804     0.337     0.619     1.236
   438   1 h        0.804     0.328     0.642     1.259
   439   8 o        1.609    -0.673    27.008     7.014
   440   1 h        0.805     0.331     0.635     1.252
   441   1 h        0.804     0.336     0.623     1.240
   442   8 o        1.607    -0.696    27.606     7.091
   443   1 h        0.804     0.360     0.566     1.181
   444   1 h        0.803     0.350     0.589     1.206
   445   8 o        1.608    -0.672    26.986     7.011
   446   1 h        0.802     0.369     0.547     1.161
   447   1 h        0.805     0.314     0.679     1.295
   448   8 o        1.607    -0.669    26.895     6.999
   449   1 h        0.802     0.358     0.570     1.186
   450   1 h        0.806     0.308     0.696     1.311
   451   8 o        1.608    -0.670    26.914     7.002
   452   1 h        0.803     0.356     0.574     1.190
   453   1 h        0.805     0.324     0.652     1.268
   454   8 o        1.607    -0.692    27.511     7.079
   455   1 h        0.804     0.339     0.614     1.231
   456   1 h        0.803     0.333     0.629     1.246
   457   8 o        1.608    -0.671    26.947     7.006
   458   1 h        0.804     0.349     0.590     1.207
   459   1 h        0.804     0.328     0.643     1.259
   460   8 o        1.609    -0.682    27.231     7.043
   461   1 h        0.805     0.328     0.643     1.259
   462   1 h        0.804     0.343     0.605     1.222
   463   8 o        1.608    -0.672    26.975     7.010
   464   1 h        0.804     0.334     0.628     1.245
   465   1 h        0.803     0.339     0.615     1.232
   466   8 o        1.609    -0.648    26.360     6.929
   467   1 h        0.806     0.318     0.670     1.286
   468   1 h        0.804     0.333     0.630     1.246
   469   8 o        1.606    -0.663    26.737     6.979
   470   1 h        0.806     0.311     0.689     1.303
   471   1 h        0.801     0.356     0.576     1.192
   472   8 o        1.607    -0.679    27.167     7.035
   473   1 h        0.803     0.335     0.624     1.241
   474   1 h        0.803     0.341     0.609     1.226
   475   8 o        1.607    -0.674    27.017     7.015
   476   1 h        0.803     0.335     0.625     1.242
   477   1 h        0.805     0.350     0.588     1.205
   478   8 o        1.608    -0.699    27.683     7.101
   479   1 h        0.803     0.362     0.561     1.176
   480   1 h        0.805     0.325     0.650     1.266
   481   8 o        1.609    -0.668    26.885     6.998
   482   1 h        0.805     0.335     0.626     1.243
   483   1 h        0.805     0.335     0.625     1.242
   484   8 o        1.605    -0.699    27.685     7.101
   485   1 h        0.805     0.326     0.648     1.265
   486   1 h        0.801     0.363     0.560     1.175
   487   8 o        1.609    -0.685    27.319     7.054
   488   1 h        0.804     0.341     0.609     1.226
   489   1 h        0.805     0.328     0.642     1.258
   490   8 o        1.608    -0.671    26.946     7.006
   491   1 h        0.805     0.322     0.659     1.275
   492   1 h        0.803     0.366     0.553     1.168
   493   8 o        1.606    -0.688    27.387     7.063
   494   1 h        0.803     0.341     0.610     1.227
   495   1 h        0.804     0.327     0.645     1.261
   496   8 o        1.608    -0.658    26.611     6.962
   497   1 h        0.806     0.310     0.691     1.305
   498   1 h        0.803     0.361     0.564     1.180
   499   8 o        1.606    -0.680    27.177     7.036
   500   1 h        0.802     0.333     0.631     1.248
   501   1 h        0.804     0.334     0.628     1.245
   502   8 o        1.608    -0.683    27.268     7.048
   503   1 h        0.805     0.316     0.674     1.290
   504   1 h        0.803     0.353     0.582     1.199
   505   8 o        1.607    -0.680    27.195     7.038
   506   1 h        0.802     0.367     0.550     1.165
   507   1 h        0.806     0.309     0.696     1.310
   508   8 o        1.606    -0.707    27.886     7.127
   509   1 h        0.802     0.363     0.558     1.174
   510   1 h        0.804     0.348     0.594     1.211
   511   8 o        1.609    -0.672    26.979     7.010
   512   1 h        0.804     0.338     0.617     1.234
   513   1 h        0.804     0.338     0.616     1.233
   514   8 o        1.607    -0.685    27.307     7.053
   515   1 h        0.804     0.335     0.626     1.242
   516   1 h        0.803     0.342     0.607     1.224
   517   8 o        1.609    -0.669    26.892     6.999
   518   1 h        0.804     0.329     0.640     1.256
   519   1 h        0.804     0.344     0.603     1.220
   520   8 o        1.607    -0.685    27.328     7.055
   521   1 h        0.803     0.354     0.579     1.195
   522   1 h        0.804     0.318     0.668     1.284
   523   8 o        1.610    -0.683    27.260     7.047
   524   1 h        0.804     0.356     0.574     1.190
   525   1 h        0.804     0.329     0.640     1.257
   526   8 o        1.607    -0.671    26.940     7.005
   527   1 h        0.803     0.344     0.602     1.218
   528   1 h        0.805     0.327     0.644     1.261
   529   8 o        1.609    -0.670    26.916     7.002
   530   1 h        0.804     0.335     0.623     1.240
   531   1 h        0.805     0.336     0.623     1.240
   532   8 o        1.606    -0.688    27.394     7.064
   533   1 h        0.802     0.345     0.601     1.218
   534   1 h        0.804     0.322     0.659     1.275
   535   8 o        1.607    -0.714    28.093     7.153
   536   1 h        0.803     0.349     0.592     1.208
   537   1 h        0.804     0.336     0.623     1.240
   538   8 o        1.609    -0.673    27.001     7.013
   539   1 h        0.805     0.319     0.665     1.281
   540   1 h        0.804     0.342     0.607     1.224
   541   8 o        1.608    -0.675    27.045     7.019
   542   1 h        0.804     0.330     0.638     1.255
   543   1 h        0.804     0.332     0.633     1.249
   544   8 o        1.608    -0.667    26.855     6.994
   545   1 h        0.805     0.316     0.675     1.291
   546   1 h        0.802     0.348     0.593     1.210
   547   8 o        1.605    -0.699    27.689     7.102
   548   1 h        0.802     0.363     0.559     1.175
   549   1 h        0.803     0.330     0.637     1.254
   550   8 o        1.608    -0.674    27.041     7.018
   551   1 h        0.805     0.327     0.645     1.262
   552   1 h        0.803     0.351     0.586     1.202
   553   8 o        1.608    -0.683    27.274     7.049
   554   1 h        0.804     0.333     0.629     1.245
   555   1 h        0.804     0.340     0.612     1.229
   556   8 o        1.607    -0.654    26.527     6.951
   557   1 h        0.804     0.335     0.625     1.242
   558   1 h        0.803     0.335     0.626     1.243
   559   8 o        1.608    -0.690    27.449     7.071
   560   1 h        0.804     0.341     0.610     1.227
   561   1 h        0.804     0.335     0.625     1.242
   562   8 o        1.607    -0.668    26.883     6.998
   563   1 h        0.804     0.349     0.591     1.208
   564   1 h        0.803     0.327     0.646     1.262
   565   8 o        1.606    -0.687    27.378     7.062
   566   1 h        0.803     0.326     0.649     1.266
   567   1 h        0.803     0.358     0.571     1.187
   568   8 o        1.607    -0.670    26.920     7.003
   569   1 h        0.806     0.310     0.690     1.305
   570   1 h        0.802     0.359     0.568     1.184
   571   8 o        1.608    -0.681    27.199     7.039
   572   1 h        0.805     0.348     0.593     1.209
   573   1 h        0.803     0.362     0.560     1.176
   574   8 o        1.608    -0.676    27.087     7.024
   575   1 h        0.805     0.334     0.626     1.243
   576   1 h        0.804     0.349     0.591     1.208
   577   8 o        1.610    -0.642    26.202     6.909
   578   1 h        0.805     0.337     0.620     1.237
   579   1 h        0.805     0.324     0.653     1.269
   580   8 o        1.608    -0.680    27.179     7.036
   581   1 h        0.803     0.350     0.589     1.206
   582   1 h        0.805     0.322     0.658     1.274
   583   8 o        1.608    -0.681    27.213     7.041
   584   1 h        0.804     0.339     0.615     1.232
   585   1 h        0.804     0.338     0.617     1.234
   586   8 o        1.606    -0.674    27.018     7.015
   587   1 h        0.805     0.322     0.659     1.275
   588   1 h        0.801     0.367     0.550     1.165
   589   8 o        1.608    -0.697    27.633     7.095
   590   1 h        0.805     0.329     0.639     1.256
   591   1 h        0.804     0.343     0.605     1.222
   592   8 o        1.607    -0.679    27.150     7.032
   593   1 h        0.805     0.321     0.661     1.277
   594   1 h        0.802     0.364     0.557     1.172
   595   8 o        1.604    -0.703    27.802     7.116
   596   1 h        0.802     0.331     0.634     1.251
   597   1 h        0.803     0.360     0.567     1.182
   598   8 o        1.608    -0.687    27.379     7.062
   599   1 h        0.803     0.359     0.567     1.183
   600   1 h        0.805     0.322     0.658     1.274
   601   8 o        1.608    -0.683    27.264     7.047
   602   1 h        0.804     0.322     0.659     1.275
   603   1 h        0.804     0.347     0.596     1.213
   604   8 o        1.608    -0.655    26.535     6.952
   605   1 h        0.804     0.332     0.633     1.250
   606   1 h        0.804     0.334     0.626     1.243
   607   8 o        1.610    -0.649    26.380     6.932
   608   1 h        0.805     0.320     0.665     1.281
   609   1 h        0.804     0.332     0.631     1.248
   610   8 o        1.608    -0.693    27.524     7.081
   611   1 h        0.803     0.350     0.589     1.206
   612   1 h        0.805     0.316     0.675     1.291
   613   8 o        1.608    -0.681    27.206     7.040
   614   1 h        0.805     0.326     0.647     1.264
   615   1 h        0.803     0.346     0.599     1.216
   616   8 o        1.607    -0.689    27.427     7.068
   617   1 h        0.803     0.350     0.587     1.204
   618   1 h        0.804     0.320     0.664     1.280
   619   8 o        1.606    -0.674    27.027     7.016
   620   1 h        0.804     0.341     0.610     1.227
   621   1 h        0.803     0.335     0.625     1.242
   622   8 o        1.607    -0.674    27.041     7.018
   623   1 h        0.805     0.337     0.621     1.238
   624   1 h        0.802     0.344     0.604     1.221
   625   8 o        1.607    -0.688    27.402     7.065
   626   1 h        0.804     0.329     0.640     1.257
   627   1 h        0.803     0.340     0.612     1.229
   628   8 o        1.607    -0.694    27.554     7.085
   629   1 h        0.803     0.347     0.595     1.212
   630   1 h        0.804     0.356     0.575     1.191
   631   8 o        1.606    -0.670    26.939     7.005
   632   1 h        0.803     0.328     0.643     1.259
   633   1 h        0.804     0.337     0.619     1.236
   634   8 o        1.608    -0.692    27.505     7.078
   635   1 h        0.804     0.344     0.603     1.220
   636   1 h        0.804     0.331     0.635     1.252
   637   8 o        1.608    -0.697    27.639     7.095
   638   1 h        0.804     0.331     0.636     1.252
   639   1 h        0.803     0.340     0.611     1.228
   640   8 o        1.607    -0.685    27.311     7.053
   641   1 h        0.804     0.336     0.623     1.240
   642   1 h        0.803     0.358     0.570     1.186
   643   8 o        1.605    -0.677    27.118     7.028
   644   1 h        0.806     0.314     0.681     1.297
   645   1 h        0.802     0.372     0.539     1.153
   646   8 o        1.610    -0.667    26.854     6.994
   647   1 h        0.805     0.328     0.643     1.259
   648   1 h        0.804     0.338     0.618     1.235
   649   8 o        1.609    -0.665    26.801     6.987
   650   1 h        0.804     0.355     0.577     1.193
   651   1 h        0.806     0.317     0.673     1.289
   652   8 o        1.605    -0.688    27.385     7.063
   653   1 h        0.802     0.360     0.566     1.182
   654   1 h        0.805     0.311     0.688     1.303
   655   8 o        1.607    -0.687    27.355     7.059
   656   1 h        0.803     0.350     0.589     1.206
   657   1 h        0.804     0.321     0.661     1.277
   658   8 o        1.606    -0.666    26.829     6.991
   659   1 h        0.801     0.353     0.582     1.199
   660   1 h        0.806     0.311     0.687     1.302
   661   8 o        1.607    -0.664    26.771     6.983
   662   1 h        0.804     0.349     0.589     1.206
   663   1 h        0.803     0.347     0.596     1.212
   664   8 o        1.609    -0.661    26.700     6.974
   665   1 h        0.805     0.328     0.642     1.258
   666   1 h        0.805     0.344     0.602     1.219
   667   8 o        1.608    -0.685    27.318     7.054
   668   1 h        0.805     0.331     0.633     1.250
   669   1 h        0.802     0.338     0.617     1.234
   670   8 o        1.610    -0.661    26.690     6.973
   671   1 h        0.805     0.340     0.611     1.228
   672   1 h        0.804     0.316     0.675     1.291
   673   8 o        1.605    -0.698    27.658     7.098
   674   1 h        0.803     0.343     0.605     1.222
   675   1 h        0.803     0.353     0.582     1.198
   676   8 o        1.608    -0.666    26.825     6.990
   677   1 h        0.802     0.345     0.599     1.216
   678   1 h        0.806     0.316     0.674     1.290
   679   8 o        1.608    -0.657    26.583     6.959
   680   1 h        0.802     0.354     0.580     1.197
   681   1 h        0.806     0.311     0.689     1.304
   682   8 o        1.609    -0.663    26.737     6.979
   683   1 h        0.805     0.325     0.650     1.266
   684   1 h        0.804     0.352     0.583     1.199
   685   8 o        1.606    -0.689    27.427     7.068
   686   1 h        0.802     0.350     0.587     1.204
   687   1 h        0.804     0.325     0.649     1.266
   688   8 o        1.608    -0.664    26.774     6.984
   689   1 h        0.805     0.335     0.626     1.242
   690   1 h        0.803     0.343     0.605     1.222
   691   8 o        1.610    -0.654    26.520     6.950
   692   1 h        0.805     0.327     0.644     1.260
   693   1 h        0.805     0.335     0.624     1.241
   694   8 o        1.610    -0.667    26.849     6.993
   695   1 h        0.804     0.338     0.618     1.235
   696   1 h        0.805     0.330     0.636     1.253
   697   8 o        1.607    -0.679    27.170     7.035
   698   1 h        0.802     0.344     0.603     1.220
   699   1 h        0.805     0.329     0.641     1.258
   700   8 o        1.605    -0.709    27.966     7.137
   701   1 h        0.802     0.365     0.555     1.170
   702   1 h        0.804     0.332     0.631     1.248
   703   8 o        1.605    -0.679    27.160     7.034
   704   1 h        0.802     0.334     0.627     1.244
   705   1 h        0.803     0.351     0.586     1.202
   706   8 o        1.607    -0.681    27.212     7.040
   707   1 h        0.803     0.327     0.644     1.261
   708   1 h        0.804     0.346     0.599     1.215
   709   8 o        1.610    -0.650    26.425     6.938
   710   1 h        0.805     0.331     0.634     1.251
   711   1 h        0.804     0.342     0.608     1.225
   712   8 o        1.608    -0.667    26.857     6.994
   713   1 h        0.801     0.373     0.537     1.151
   714   1 h        0.805     0.327     0.645     1.261
   715   8 o        1.607    -0.688    27.407     7.066
   716   1 h        0.802     0.361     0.563     1.179
   717   1 h        0.804     0.331     0.635     1.252
   718   8 o        1.604    -0.701    27.738     7.108
   719   1 h        0.803     0.328     0.643     1.259
   720   1 h        0.802     0.364     0.557     1.173
   721   8 o        1.608    -0.676    27.068     7.022
   722   1 h        0.803     0.346     0.597     1.214
   723   1 h        0.805     0.329     0.640     1.256
   724   8 o        1.607    -0.689    27.432     7.069
   725   1 h        0.803     0.348     0.592     1.209
   726   1 h        0.803     0.333     0.630     1.247
   727   8 o        1.609    -0.647    26.337     6.926
   728   1 h        0.806     0.317     0.673     1.288
   729   1 h        0.803     0.354     0.580     1.196
   730   8 o        1.604    -0.663    26.751     6.980
   731   1 h        0.801     0.356     0.574     1.191
   732   1 h        0.806     0.313     0.683     1.298
   733   8 o        1.607    -0.672    26.981     7.010
   734   1 h        0.801     0.365     0.556     1.171
   735   1 h        0.806     0.311     0.688     1.303
   736   8 o        1.610    -0.684    27.298     7.052
   737   1 h        0.804     0.348     0.593     1.210
   738   1 h        0.803     0.331     0.636     1.253
   739   8 o        1.607    -0.664    26.780     6.984
   740   1 h        0.803     0.337     0.620     1.237
   741   1 h        0.803     0.330     0.638     1.255
   742   8 o        1.608    -0.684    27.283     7.050
   743   1 h        0.804     0.339     0.615     1.232
   744   1 h        0.804     0.330     0.638     1.255
   745   8 o        1.608    -0.691    27.461     7.073
   746   1 h        0.803     0.355     0.578     1.194
   747   1 h        0.805     0.342     0.608     1.224
   748   8 o        1.607    -0.666    26.822     6.990
   749   1 h        0.803     0.334     0.628     1.245
   750   1 h        0.804     0.341     0.610     1.227
   751   8 o        1.609    -0.647    26.332     6.926
   752   1 h        0.805     0.329     0.640     1.256
   753   1 h        0.804     0.327     0.645     1.262
   754   8 o        1.611    -0.665    26.789     6.986
   755   1 h        0.805     0.317     0.672     1.287
   756   1 h        0.805     0.324     0.654     1.270

 Mol. C6AA /au·bohr⁶  :    2899092.859143
 Mol. C8AA /au·bohr⁸  :   52598724.415552
 Mol. α(0) /au        :       2393.005539


Wiberg/Mayer (AO) data.
largest (>0.10) Wiberg bond orders for each atom

 ---------------------------------------------------------------------------
     #   Z sym  total        # sym  WBO       # sym  WBO       # sym  WBO
 ---------------------------------------------------------------------------
     1   8 o    1.844 --     3 h    0.894     2 h    0.821
     2   1 h    0.877 --     1 o    0.821
     3   1 h    0.901 --     1 o    0.894
     4   8 o    1.884 --     6 h    0.833     5 h    0.810
     5   1 h    0.882 --     4 o    0.810
     6   1 h    0.885 --     4 o    0.833
     7   8 o    1.814 --     9 h    0.834     8 h    0.829
     8   1 h    0.889 --     7 o    0.829
     9   1 h    0.888 --     7 o    0.834
    10   8 o    1.811 --    12 h    0.856    11 h    0.808
    11   1 h    0.879 --    10 o    0.808
    12   1 h    0.896 --    10 o    0.856
    13   8 o    1.849 --    15 h    0.865    14 h    0.840
    14   1 h    0.883 --    13 o    0.840
    15   1 h    0.887 --    13 o    0.865
    16   8 o    1.851 --    18 h    0.826    17 h    0.808
    17   1 h    0.875 --    16 o    0.808
    18   1 h    0.892 --    16 o    0.826
    19   8 o    1.863 --    20 h    0.827    21 h    0.807
    20   1 h    0.887 --    19 o    0.827
    21   1 h    0.880 --    19 o    0.807
    22   8 o    1.864 --    24 h    0.836    23 h    0.822
    23   1 h    0.879 --    22 o    0.822
    24   1 h    0.893 --    22 o    0.836
    25   8 o    1.846 --    27 h    0.854    26 h    0.832
    26   1 h    0.878 --    25 o    0.832
    27   1 h    0.889 --    25 o    0.854
    28   8 o    1.860 --    29 h    0.835    30 h    0.809
    29   1 h    0.897 --    28 o    0.835
    30   1 h    0.876 --    28 o    0.809
    31   8 o    1.836 --    32 h    0.838    33 h    0.835
    32   1 h    0.883 --    31 o    0.838
    33   1 h    0.890 --    31 o    0.835
    34   8 o    1.853 --    35 h    0.831    36 h    0.786
    35   1 h    0.896 --    34 o    0.831
    36   1 h    0.876 --    34 o    0.786
    37   8 o    1.860 --    38 h    0.818    39 h    0.792
    38   1 h    0.887 --    37 o    0.818
    39   1 h    0.880 --    37 o    0.792
    40   8 o    1.839 --    42 h    0.821    41 h    0.799
    41   1 h    0.876 --    40 o    0.799
    42   1 h    0.883 --    40 o    0.821
    43   8 o    1.867 --    44 h    0.817    45 h    0.812
    44   1 h    0.873 --    43 o    0.817
    45   1 h    0.878 --    43 o    0.812
    46   8 o    1.884 --    47 h    0.861    48 h    0.803
    47   1 h    0.887 --    46 o    0.861
    48   1 h    0.871 --    46 o    0.803
    49   8 o    1.833 --    51 h    0.866    50 h    0.829
    50   1 h    0.881 --    49 o    0.829
    51   1 h    0.896 --    49 o    0.866
    52   8 o    1.824 --    54 h    0.854    53 h    0.839
    53   1 h    0.885 --    52 o    0.839
    54   1 h    0.888 --    52 o    0.854
    55   8 o    1.837 --    56 h    0.833    57 h    0.793
    56   1 h    0.886 --    55 o    0.833
    57   1 h    0.877 --    55 o    0.793
    58   8 o    1.861 --    60 h    0.835    59 h    0.781
    59   1 h    0.883 --    58 o    0.781
    60   1 h    0.892 --    58 o    0.835
    61   8 o    1.794 --    63 h    0.863    62 h    0.826
    62   1 h    0.886 --    61 o    0.826
    63   1 h    0.896 --    61 o    0.863
    64   8 o    1.817 --    65 h    0.817    66 h    0.814
    65   1 h    0.884 --    64 o    0.817
    66   1 h    0.884 --    64 o    0.814
    67   8 o    1.808 --    69 h    0.805    68 h    0.799
    68   1 h    0.875 --    67 o    0.799
    69   1 h    0.882 --    67 o    0.805
    70   8 o    1.868 --    71 h    0.848    72 h    0.836
    71   1 h    0.884 --    70 o    0.848
    72   1 h    0.890 --    70 o    0.836
    73   8 o    1.877 --    74 h    0.816    75 h    0.778
    74   1 h    0.887 --    73 o    0.816
    75   1 h    0.874 --    73 o    0.778
    76   8 o    1.831 --    78 h    0.848    77 h    0.795
    77   1 h    0.869 --    76 o    0.795
    78   1 h    0.891 --    76 o    0.848
    79   8 o    1.854 --    81 h    0.831    80 h    0.809
    80   1 h    0.875 --    79 o    0.809
    81   1 h    0.881 --    79 o    0.831
    82   8 o    1.844 --    84 h    0.865    83 h    0.791
    83   1 h    0.875 --    82 o    0.791
    84   1 h    0.893 --    82 o    0.865
    85   8 o    1.856 --    87 h    0.844    86 h    0.812
    86   1 h    0.881 --    85 o    0.812
    87   1 h    0.880 --    85 o    0.844
    88   8 o    1.888 --    89 h    0.835    90 h    0.809
    89   1 h    0.882 --    88 o    0.835
    90   1 h    0.870 --    88 o    0.809
    91   8 o    1.849 --    93 h    0.885    92 h    0.803
    92   1 h    0.867 --    91 o    0.803
    93   1 h    0.902 --    91 o    0.885
    94   8 o    1.832 --    96 h    0.823    95 h    0.806
    95   1 h    0.876 --    94 o    0.806
    96   1 h    0.884 --    94 o    0.823
    97   8 o    1.866 --    99 h    0.831    98 h    0.826
    98   1 h    0.873 --    97 o    0.826
    99   1 h    0.891 --    97 o    0.831
   100   8 o    1.856 --   101 h    0.848   102 h    0.829
   101   1 h    0.882 --   100 o    0.848
   102   1 h    0.873 --   100 o    0.829
   103   8 o    1.864 --   104 h    0.817   105 h    0.814
   104   1 h    0.874 --   103 o    0.817
   105   1 h    0.880 --   103 o    0.814
   106   8 o    1.852 --   107 h    0.838   108 h    0.836
   107   1 h    0.882 --   106 o    0.838
   108   1 h    0.889 --   106 o    0.836
   109   8 o    1.849 --   110 h    0.858   111 h    0.816
   110   1 h    0.898 --   109 o    0.858
   111   1 h    0.871 --   109 o    0.816
   112   8 o    1.875 --   113 h    0.815   114 h    0.803
   113   1 h    0.883 --   112 o    0.815
   114   1 h    0.880 --   112 o    0.803
   115   8 o    1.815 --   116 h    0.838   117 h    0.837
   116   1 h    0.880 --   115 o    0.838
   117   1 h    0.894 --   115 o    0.837
   118   8 o    1.867 --   119 h    0.841   120 h    0.819
   119   1 h    0.894 --   118 o    0.841
   120   1 h    0.878 --   118 o    0.819
   121   8 o    1.825 --   123 h    0.840   122 h    0.813
   122   1 h    0.885 --   121 o    0.813
   123   1 h    0.899 --   121 o    0.840
   124   8 o    1.862 --   125 h    0.836   126 h    0.826
   125   1 h    0.884 --   124 o    0.836
   126   1 h    0.884 --   124 o    0.826
   127   8 o    1.843 --   129 h    0.854   128 h    0.828
   128   1 h    0.881 --   127 o    0.828
   129   1 h    0.887 --   127 o    0.854
   130   8 o    1.875 --   132 h    0.818   131 h    0.800
   131   1 h    0.872 --   130 o    0.800
   132   1 h    0.877 --   130 o    0.818
   133   8 o    1.847 --   135 h    0.833   134 h    0.813
   134   1 h    0.877 --   133 o    0.813
   135   1 h    0.893 --   133 o    0.833
   136   8 o    1.810 --   138 h    0.845   137 h    0.844
   137   1 h    0.891 --   136 o    0.844
   138   1 h    0.889 --   136 o    0.845
   139   8 o    1.863 --   140 h    0.783   141 h    0.762
   140   1 h    0.876 --   139 o    0.783
   141   1 h    0.867 --   139 o    0.762
   142   8 o    1.848 --   143 h    0.832   144 h    0.813
   143   1 h    0.891 --   142 o    0.832
   144   1 h    0.880 --   142 o    0.813
   145   8 o    1.823 --   146 h    0.869   147 h    0.856
   146   1 h    0.895 --   145 o    0.869
   147   1 h    0.887 --   145 o    0.856
   148   8 o    1.833 --   149 h    0.829   150 h    0.795
   149   1 h    0.879 --   148 o    0.829
   150   1 h    0.877 --   148 o    0.795
   151   8 o    1.859 --   153 h    0.828   152 h    0.802
   152   1 h    0.877 --   151 o    0.802
   153   1 h    0.893 --   151 o    0.828
   154   8 o    1.821 --   156 h    0.870   155 h    0.869
   155   1 h    0.889 --   154 o    0.869
   156   1 h    0.892 --   154 o    0.870
   157   8 o    1.872 --   158 h    0.853   159 h    0.807
   158   1 h    0.883 --   157 o    0.853
   159   1 h    0.869 --   157 o    0.807
   160   8 o    1.852 --   162 h    0.841   161 h    0.802
   161   1 h    0.873 --   160 o    0.802
   162   1 h    0.892 --   160 o    0.841
   163   8 o    1.861 --   164 h    0.840   165 h    0.803
   164   1 h    0.896 --   163 o    0.840
   165   1 h    0.875 --   163 o    0.803
   166   8 o    1.885 --   167 h    0.830   168 h    0.772   347 h    0.103
   167   1 h    0.886 --   166 o    0.830
   168   1 h    0.873 --   166 o    0.772
   169   8 o    1.880 --   170 h    0.820   171 h    0.770
   170   1 h    0.887 --   169 o    0.820
   171   1 h    0.874 --   169 o    0.770
   172   8 o    1.878 --   174 h    0.842   173 h    0.769
   173   1 h    0.863 --   172 o    0.769
   174   1 h    0.885 --   172 o    0.842
   175   8 o    1.827 --   177 h    0.810   176 h    0.770
   176   1 h    0.875 --   175 o    0.770
   177   1 h    0.884 --   175 o    0.810
   178   8 o    1.852 --   180 h    0.856   179 h    0.836
   179   1 h    0.882 --   178 o    0.836
   180   1 h    0.887 --   178 o    0.856
   181   8 o    1.837 --   183 h    0.879   182 h    0.771
   182   1 h    0.870 --   181 o    0.771
   183   1 h    0.902 --   181 o    0.879
   184   8 o    1.843 --   185 h    0.857   186 h    0.799
   185   1 h    0.896 --   184 o    0.857
   186   1 h    0.870 --   184 o    0.799
   187   8 o    1.797 --   188 h    0.828   189 h    0.819
   188   1 h    0.884 --   187 o    0.828
   189   1 h    0.880 --   187 o    0.819
   190   8 o    1.896 --   191 h    0.813   192 h    0.786
   191   1 h    0.879 --   190 o    0.813
   192   1 h    0.869 --   190 o    0.786
   193   8 o    1.828 --   195 h    0.844   194 h    0.814
   194   1 h    0.881 --   193 o    0.814
   195   1 h    0.885 --   193 o    0.844
   196   8 o    1.837 --   197 h    0.861   198 h    0.833
   197   1 h    0.891 --   196 o    0.861
   198   1 h    0.888 --   196 o    0.833
   199   8 o    1.861 --   200 h    0.815   201 h    0.813
   200   1 h    0.881 --   199 o    0.815
   201   1 h    0.875 --   199 o    0.813
   202   8 o    1.864 --   204 h    0.823   203 h    0.816
   203   1 h    0.874 --   202 o    0.816
   204   1 h    0.883 --   202 o    0.823
   205   8 o    1.868 --   207 h    0.848   206 h    0.804   645 h    0.100
   206   1 h    0.879 --   205 o    0.804
   207   1 h    0.884 --   205 o    0.848
   208   8 o    1.830 --   210 h    0.894   209 h    0.804
   209   1 h    0.869 --   208 o    0.804
   210   1 h    0.907 --   208 o    0.894
   211   8 o    1.859 --   212 h    0.829   213 h    0.817
   212   1 h    0.890 --   211 o    0.829
   213   1 h    0.867 --   211 o    0.817
   214   8 o    1.867 --   215 h    0.827   216 h    0.792
   215   1 h    0.880 --   214 o    0.827
   216   1 h    0.873 --   214 o    0.792
   217   8 o    1.802 --   218 h    0.834   219 h    0.824
   218   1 h    0.895 --   217 o    0.834
   219   1 h    0.880 --   217 o    0.824
   220   8 o    1.847 --   221 h    0.846   222 h    0.819
   221   1 h    0.882 --   220 o    0.846
   222   1 h    0.886 --   220 o    0.819
   223   8 o    1.834 --   224 h    0.885   225 h    0.789
   224   1 h    0.900 --   223 o    0.885
   225   1 h    0.872 --   223 o    0.789
   226   8 o    1.823 --   228 h    0.893   227 h    0.837
   227   1 h    0.872 --   226 o    0.837
   228   1 h    0.906 --   226 o    0.893
   229   8 o    1.882 --   230 h    0.831   231 h    0.824
   230   1 h    0.880 --   229 o    0.831
   231   1 h    0.892 --   229 o    0.824
   232   8 o    1.846 --   234 h    0.892   233 h    0.821
   233   1 h    0.878 --   232 o    0.821
   234   1 h    0.898 --   232 o    0.892
   235   8 o    1.902 --   237 h    0.818   236 h    0.811
   236   1 h    0.872 --   235 o    0.811
   237   1 h    0.886 --   235 o    0.818
   238   8 o    1.850 --   239 h    0.872   240 h    0.809
   239   1 h    0.897 --   238 o    0.872
   240   1 h    0.868 --   238 o    0.809
   241   8 o    1.813 --   242 h    0.871   243 h    0.808
   242   1 h    0.895 --   241 o    0.871
   243   1 h    0.877 --   241 o    0.808
   244   8 o    1.825 --   245 h    0.860   246 h    0.828
   245   1 h    0.893 --   244 o    0.860
   246   1 h    0.878 --   244 o    0.828
   247   8 o    1.871 --   248 h    0.807   249 h    0.796
   248   1 h    0.877 --   247 o    0.807
   249   1 h    0.873 --   247 o    0.796
   250   8 o    1.795 --   251 h    0.865   252 h    0.826
   251   1 h    0.896 --   250 o    0.865
   252   1 h    0.879 --   250 o    0.826
   253   8 o    1.855 --   255 h    0.835   254 h    0.812
   254   1 h    0.870 --   253 o    0.812
   255   1 h    0.890 --   253 o    0.835
   256   8 o    1.831 --   258 h    0.863   257 h    0.827
   257   1 h    0.884 --   256 o    0.827
   258   1 h    0.891 --   256 o    0.863
   259   8 o    1.803 --   261 h    0.874   260 h    0.809
   260   1 h    0.874 --   259 o    0.809
   261   1 h    0.899 --   259 o    0.874
   262   8 o    1.848 --   264 h    0.840   263 h    0.805
   263   1 h    0.868 --   262 o    0.805
   264   1 h    0.878 --   262 o    0.840
   265   8 o    1.810 --   266 h    0.846   267 h    0.803
   266   1 h    0.897 --   265 o    0.846
   267   1 h    0.874 --   265 o    0.803
   268   8 o    1.839 --   269 h    0.854   270 h    0.840
   269   1 h    0.893 --   268 o    0.854
   270   1 h    0.884 --   268 o    0.840
   271   8 o    1.872 --   273 h    0.843   272 h    0.792
   272   1 h    0.867 --   271 o    0.792
   273   1 h    0.884 --   271 o    0.843
   274   8 o    1.820 --   276 h    0.873   275 h    0.816
   275   1 h    0.877 --   274 o    0.816
   276   1 h    0.897 --   274 o    0.873
   277   8 o    1.874 --   279 h    0.817   278 h    0.780
   278   1 h    0.870 --   277 o    0.780
   279   1 h    0.885 --   277 o    0.817
   280   8 o    1.855 --   282 h    0.803   281 h    0.792
   281   1 h    0.879 --   280 o    0.792
   282   1 h    0.881 --   280 o    0.803
   283   8 o    1.811 --   284 h    0.901   285 h    0.815
   284   1 h    0.908 --   283 o    0.901
   285   1 h    0.873 --   283 o    0.815
   286   8 o    1.836 --   287 h    0.830   288 h    0.827
   287   1 h    0.887 --   286 o    0.830
   288   1 h    0.883 --   286 o    0.827
   289   8 o    1.857 --   290 h    0.875   291 h    0.829
   290   1 h    0.895 --   289 o    0.875
   291   1 h    0.882 --   289 o    0.829
   292   8 o    1.858 --   294 h    0.888   293 h    0.776
   293   1 h    0.864 --   292 o    0.776
   294   1 h    0.903 --   292 o    0.888
   295   8 o    1.816 --   296 h    0.903   297 h    0.781
   296   1 h    0.909 --   295 o    0.903
   297   1 h    0.866 --   295 o    0.781
   298   8 o    1.868 --   299 h    0.820   300 h    0.809
   299   1 h    0.892 --   298 o    0.820
   300   1 h    0.869 --   298 o    0.809
   301   8 o    1.859 --   303 h    0.840   302 h    0.835
   302   1 h    0.892 --   301 o    0.835
   303   1 h    0.878 --   301 o    0.840
   304   8 o    1.845 --   305 h    0.843   306 h    0.837
   305   1 h    0.887 --   304 o    0.843
   306   1 h    0.884 --   304 o    0.837
   307   8 o    1.867 --   309 h    0.824   308 h    0.803
   308   1 h    0.874 --   307 o    0.803
   309   1 h    0.880 --   307 o    0.824
   310   8 o    1.831 --   311 h    0.837   312 h    0.798
   311   1 h    0.894 --   310 o    0.837
   312   1 h    0.881 --   310 o    0.798
   313   8 o    1.861 --   315 h    0.833   314 h    0.789
   314   1 h    0.877 --   313 o    0.789
   315   1 h    0.894 --   313 o    0.833
   316   8 o    1.878 --   318 h    0.869   317 h    0.830
   317   1 h    0.885 --   316 o    0.830
   318   1 h    0.892 --   316 o    0.869
   319   8 o    1.882 --   321 h    0.815   320 h    0.814
   320   1 h    0.887 --   319 o    0.814
   321   1 h    0.885 --   319 o    0.815
   322   8 o    1.888 --   323 h    0.821   324 h    0.790
   323   1 h    0.876 --   322 o    0.821
   324   1 h    0.872 --   322 o    0.790
   325   8 o    1.842 --   326 h    0.869   327 h    0.825
   326   1 h    0.892 --   325 o    0.869
   327   1 h    0.878 --   325 o    0.825
   328   8 o    1.819 --   329 h    0.859   330 h    0.804
   329   1 h    0.898 --   328 o    0.859
   330   1 h    0.874 --   328 o    0.804
   331   8 o    1.819 --   333 h    0.899   332 h    0.832
   332   1 h    0.884 --   331 o    0.832
   333   1 h    0.902 --   331 o    0.899
   334   8 o    1.852 --   335 h    0.831   336 h    0.802
   335   1 h    0.889 --   334 o    0.831
   336   1 h    0.874 --   334 o    0.802
   337   8 o    1.873 --   339 h    0.829   338 h    0.803
   338   1 h    0.877 --   337 o    0.803
   339   1 h    0.875 --   337 o    0.829
   340   8 o    1.826 --   341 h    0.871   342 h    0.797
   341   1 h    0.899 --   340 o    0.871
   342   1 h    0.870 --   340 o    0.797
   343   8 o    1.839 --   344 h    0.848   345 h    0.846
   344   1 h    0.887 --   343 o    0.848
   345   1 h    0.891 --   343 o    0.846
   346   8 o    1.870 --   348 h    0.874   347 h    0.760
   347   1 h    0.871 --   346 o    0.760   166 o    0.103
   348   1 h    0.897 --   346 o    0.874
   349   8 o    1.875 --   351 h    0.818   350 h    0.815
   350   1 h    0.888 --   349 o    0.815
   351   1 h    0.878 --   349 o    0.818
   352   8 o    1.850 --   353 h    0.871   354 h    0.816
   353   1 h    0.900 --   352 o    0.871
   354   1 h    0.879 --   352 o    0.816
   355   8 o    1.815 --   357 h    0.860   356 h    0.852
   356   1 h    0.885 --   355 o    0.852
   357   1 h    0.887 --   355 o    0.860
   358   8 o    1.855 --   360 h    0.874   359 h    0.854
   359   1 h    0.894 --   358 o    0.854
   360   1 h    0.905 --   358 o    0.874
   361   8 o    1.810 --   363 h    0.853   362 h    0.831
   362   1 h    0.881 --   361 o    0.831
   363   1 h    0.888 --   361 o    0.853
[...]
   370   8 o    1.835 --   372 h    0.867   371 h    0.832
   371   1 h    0.880 --   370 o    0.832
   372   1 h    0.891 --   370 o    0.867
   373   8 o    1.842 --   374 h    0.848   375 h    0.801
   374   1 h    0.892 --   373 o    0.848
   375   1 h    0.876 --   373 o    0.801
   376   8 o    1.842 --   378 h    0.831   377 h    0.829
   377   1 h    0.879 --   376 o    0.829
   378   1 h    0.885 --   376 o    0.831
   379   8 o    1.886 --   381 h    0.851   380 h    0.808
   380   1 h    0.871 --   379 o    0.808
   381   1 h    0.896 --   379 o    0.851
   382   8 o    1.861 --   383 h    0.821   384 h    0.817
   383   1 h    0.884 --   382 o    0.821
   384   1 h    0.878 --   382 o    0.817
   385   8 o    1.831 --   387 h    0.852   386 h    0.845
   386   1 h    0.887 --   385 o    0.845
   387   1 h    0.884 --   385 o    0.852
   388   8 o    1.851 --   390 h    0.825   389 h    0.817
   389   1 h    0.882 --   388 o    0.817
   390   1 h    0.888 --   388 o    0.825
   391   8 o    1.824 --   392 h    0.869   393 h    0.823
   392   1 h    0.892 --   391 o    0.869
   393   1 h    0.882 --   391 o    0.823
   394   8 o    1.811 --   396 h    0.881   395 h    0.806
   395   1 h    0.877 --   394 o    0.806
   396   1 h    0.901 --   394 o    0.881
   397   8 o    1.839 --   399 h    0.837   398 h    0.830
   398   1 h    0.885 --   397 o    0.830
   399   1 h    0.890 --   397 o    0.837
   400   8 o    1.832 --   401 h    0.877   402 h    0.788
   401   1 h    0.898 --   400 o    0.877
   402   1 h    0.866 --   400 o    0.788
   403   8 o    1.892 --   404 h    0.818   405 h    0.811
   404   1 h    0.887 --   403 o    0.818
   405   1 h    0.871 --   403 o    0.811
   406   8 o    1.855 --   407 h    0.819   408 h    0.813
   407   1 h    0.881 --   406 o    0.819
   408   1 h    0.885 --   406 o    0.813
   409   8 o    1.847 --   410 h    0.803   411 h    0.800
   410   1 h    0.877 --   409 o    0.803
   411   1 h    0.873 --   409 o    0.800
   412   8 o    1.828 --   413 h    0.843   414 h    0.821
   413   1 h    0.886 --   412 o    0.843
   414   1 h    0.877 --   412 o    0.821
   415   8 o    1.840 --   416 h    0.843   417 h    0.820
   416   1 h    0.892 --   415 o    0.843
   417   1 h    0.880 --   415 o    0.820
   418   8 o    1.844 --   419 h    0.817   420 h    0.782
   419   1 h    0.887 --   418 o    0.817
   420   1 h    0.872 --   418 o    0.782
   421   8 o    1.875 --   423 h    0.844   422 h    0.828
   422   1 h    0.890 --   421 o    0.828
   423   1 h    0.879 --   421 o    0.844
   424   8 o    1.877 --   425 h    0.816   426 h    0.799
   425   1 h    0.883 --   424 o    0.816
   426   1 h    0.880 --   424 o    0.799
   427   8 o    1.791 --   429 h    0.868   428 h    0.832
   428   1 h    0.892 --   427 o    0.832
   429   1 h    0.899 --   427 o    0.868
   430   8 o    1.857 --   431 h    0.834   432 h    0.801
   431   1 h    0.888 --   430 o    0.834
   432   1 h    0.871 --   430 o    0.801
   433   8 o    1.834 --   435 h    0.867   434 h    0.854
   434   1 h    0.887 --   433 o    0.854
   435   1 h    0.893 --   433 o    0.867
   436   8 o    1.828 --   438 h    0.834   437 h    0.829
   437   1 h    0.886 --   436 o    0.829
   438   1 h    0.892 --   436 o    0.834
   439   8 o    1.807 --   440 h    0.861   441 h    0.853
   440   1 h    0.890 --   439 o    0.861
   441   1 h    0.887 --   439 o    0.853
   442   8 o    1.875 --   444 h    0.809   443 h    0.802
   443   1 h    0.870 --   442 o    0.802
   444   1 h    0.878 --   442 o    0.809
   445   8 o    1.858 --   447 h    0.883   446 h    0.780
   446   1 h    0.864 --   445 o    0.780
   447   1 h    0.901 --   445 o    0.883
   448   8 o    1.835 --   450 h    0.900   449 h    0.786
   449   1 h    0.872 --   448 o    0.786
   450   1 h    0.905 --   448 o    0.900
   451   8 o    1.840 --   453 h    0.870   452 h    0.814
   452   1 h    0.873 --   451 o    0.814
   453   1 h    0.895 --   451 o    0.870
   454   8 o    1.827 --   455 h    0.838   456 h    0.808
   455   1 h    0.885 --   454 o    0.838
   456   1 h    0.889 --   454 o    0.808
   457   8 o    1.846 --   458 h    0.836   459 h    0.833
   458   1 h    0.878 --   457 o    0.836
   459   1 h    0.892 --   457 o    0.833
   460   8 o    1.819 --   461 h    0.865   462 h    0.818
   461   1 h    0.892 --   460 o    0.865
   462   1 h    0.882 --   460 o    0.818
   463   8 o    1.845 --   464 h    0.844   465 h    0.826
   464   1 h    0.889 --   463 o    0.844
   465   1 h    0.885 --   463 o    0.826
   466   8 o    1.833 --   467 h    0.891   468 h    0.842
   467   1 h    0.899 --   466 o    0.891
   468   1 h    0.889 --   466 o    0.842
   469   8 o    1.863 --   470 h    0.900   471 h    0.780
   470   1 h    0.903 --   469 o    0.900
   471   1 h    0.874 --   469 o    0.780
   472   8 o    1.853 --   473 h    0.831   474 h    0.822
   473   1 h    0.887 --   472 o    0.831
   474   1 h    0.883 --   472 o    0.822
   475   8 o    1.870 --   477 h    0.837   476 h    0.810
   476   1 h    0.888 --   475 o    0.810
   477   1 h    0.877 --   475 o    0.837
   478   8 o    1.813 --   480 h    0.865   479 h    0.802
   479   1 h    0.869 --   478 o    0.802
   480   1 h    0.894 --   478 o    0.865
   481   8 o    1.817 --   483 h    0.859   482 h    0.857
   482   1 h    0.888 --   481 o    0.857
   483   1 h    0.888 --   481 o    0.859
   484   8 o    1.837 --   485 h    0.858   486 h    0.776
   485   1 h    0.894 --   484 o    0.858
   486   1 h    0.868 --   484 o    0.776
   487   8 o    1.804 --   489 h    0.863   488 h    0.840
   488   1 h    0.883 --   487 o    0.840
   489   1 h    0.892 --   487 o    0.863
   490   8 o    1.859 --   491 h    0.869   492 h    0.794
   491   1 h    0.896 --   490 o    0.869
   492   1 h    0.866 --   490 o    0.794
   493   8 o    1.843 --   495 h    0.841   494 h    0.790
   494   1 h    0.884 --   493 o    0.790
   495   1 h    0.893 --   493 o    0.841
   496   8 o    1.839 --   497 h    0.896   498 h    0.805
   497   1 h    0.904 --   496 o    0.896
   498   1 h    0.870 --   496 o    0.805
   499   8 o    1.846 --   501 h    0.845   500 h    0.807
   500   1 h    0.889 --   499 o    0.807
   501   1 h    0.889 --   499 o    0.845
   502   8 o    1.811 --   503 h    0.876   504 h    0.813
   503   1 h    0.900 --   502 o    0.876
   504   1 h    0.876 --   502 o    0.813
   505   8 o    1.818 --   507 h    0.891   506 h    0.790
   506   1 h    0.865 --   505 o    0.790
   507   1 h    0.905 --   505 o    0.891
   508   8 o    1.838 --   510 h    0.828   509 h    0.779
   509   1 h    0.868 --   508 o    0.779
   510   1 h    0.879 --   508 o    0.828
   511   8 o    1.827 --   512 h    0.845   513 h    0.843
   512   1 h    0.886 --   511 o    0.845
   513   1 h    0.886 --   511 o    0.843
   514   8 o    1.825 --   515 h    0.843   516 h    0.823
   515   1 h    0.888 --   514 o    0.843
   516   1 h    0.883 --   514 o    0.823
   517   8 o    1.840 --   518 h    0.857   519 h    0.838
   518   1 h    0.892 --   517 o    0.857
   519   1 h    0.882 --   517 o    0.838
   520   8 o    1.831 --   522 h    0.844   521 h    0.812
   521   1 h    0.875 --   520 o    0.812
   522   1 h    0.899 --   520 o    0.844
   523   8 o    1.858 --   525 h    0.836   524 h    0.813   653 h    0.102
   524   1 h    0.873 --   523 o    0.813
   525   1 h    0.892 --   523 o    0.836
   526   8 o    1.869 --   528 h    0.850   527 h    0.806
   527   1 h    0.881 --   526 o    0.806
   528   1 h    0.893 --   526 o    0.850
   529   8 o    1.824 --   531 h    0.875   530 h    0.844
   530   1 h    0.887 --   529 o    0.844
   531   1 h    0.887 --   529 o    0.875
   532   8 o    1.822 --   534 h    0.857   533 h    0.805
   533   1 h    0.881 --   532 o    0.805
   534   1 h    0.896 --   532 o    0.857
   535   8 o    1.804 --   537 h    0.847   536 h    0.802
   536   1 h    0.878 --   535 o    0.802
   537   1 h    0.887 --   535 o    0.847
   538   8 o    1.814 --   539 h    0.879   540 h    0.824
   539   1 h    0.898 --   538 o    0.879
   540   1 h    0.883 --   538 o    0.824
   541   8 o    1.840 --   542 h    0.836   543 h    0.832
   542   1 h    0.891 --   541 o    0.836
   543   1 h    0.890 --   541 o    0.832
   544   8 o    1.836 --   545 h    0.878   546 h    0.812
   545   1 h    0.900 --   544 o    0.878
   546   1 h    0.879 --   544 o    0.812
   547   8 o    1.869 --   549 h    0.821   548 h    0.790
   548   1 h    0.868 --   547 o    0.790
   549   1 h    0.891 --   547 o    0.821
   550   8 o    1.838 --   551 h    0.858   552 h    0.818
   551   1 h    0.893 --   550 o    0.858
   552   1 h    0.877 --   550 o    0.818
   553   8 o    1.838 --   554 h    0.842   555 h    0.834
   554   1 h    0.889 --   553 o    0.842
   555   1 h    0.884 --   553 o    0.834
   556   8 o    1.891 --   557 h    0.838   558 h    0.832
   557   1 h    0.888 --   556 o    0.838
   558   1 h    0.888 --   556 o    0.832
   559   8 o    1.800 --   561 h    0.847   560 h    0.832
   560   1 h    0.884 --   559 o    0.832
   561   1 h    0.888 --   559 o    0.847
   562   8 o    1.881 --   564 h    0.827   563 h    0.822
   563   1 h    0.878 --   562 o    0.822
   564   1 h    0.893 --   562 o    0.827
   565   8 o    1.872 --   566 h    0.834   567 h    0.791
   566   1 h    0.894 --   565 o    0.834
   567   1 h    0.872 --   565 o    0.791
   568   8 o    1.838 --   569 h    0.897   570 h    0.784
   569   1 h    0.904 --   568 o    0.897
   570   1 h    0.871 --   568 o    0.784
   571   8 o    1.876 --   572 h    0.841   573 h    0.800
   572   1 h    0.879 --   571 o    0.841
   573   1 h    0.869 --   571 o    0.800
   574   8 o    1.848 --   575 h    0.845   576 h    0.826
   575   1 h    0.888 --   574 o    0.845
   576   1 h    0.878 --   574 o    0.826
   577   8 o    1.855 --   579 h    0.872   578 h    0.857
   578   1 h    0.887 --   577 o    0.857
   579   1 h    0.895 --   577 o    0.872
   580   8 o    1.814 --   582 h    0.879   581 h    0.807
   581   1 h    0.878 --   580 o    0.807
   582   1 h    0.896 --   580 o    0.879
   583   8 o    1.834 --   585 h    0.847   584 h    0.829
   584   1 h    0.885 --   583 o    0.829
   585   1 h    0.886 --   583 o    0.847
   586   8 o    1.858 --   587 h    0.883   588 h    0.780
   587   1 h    0.896 --   586 o    0.883
   588   1 h    0.865 --   586 o    0.780
   589   8 o    1.806 --   590 h    0.857   591 h    0.820
   590   1 h    0.892 --   589 o    0.857
   591   1 h    0.882 --   589 o    0.820
   592   8 o    1.843 --   593 h    0.873   594 h    0.798
   593   1 h    0.897 --   592 o    0.873
   594   1 h    0.867 --   592 o    0.798
   595   8 o    1.852 --   596 h    0.808   597 h    0.806
   596   1 h    0.890 --   595 o    0.808
   597   1 h    0.871 --   595 o    0.806
   598   8 o    1.827 --   600 h    0.849   599 h    0.816
   599   1 h    0.871 --   598 o    0.816
   600   1 h    0.896 --   598 o    0.849
   601   8 o    1.819 --   602 h    0.838   603 h    0.828
   602   1 h    0.896 --   601 o    0.838
   603   1 h    0.880 --   601 o    0.828
   604   8 o    1.879 --   606 h    0.839   605 h    0.836
   605   1 h    0.890 --   604 o    0.836
   606   1 h    0.888 --   604 o    0.839
   607   8 o    1.829 --   608 h    0.883   609 h    0.850
   608   1 h    0.898 --   607 o    0.883
   609   1 h    0.889 --   607 o    0.850
   610   8 o    1.784 --   612 h    0.878   611 h    0.808
   611   1 h    0.878 --   610 o    0.808
   612   1 h    0.900 --   610 o    0.878
   613   8 o    1.825 --   614 h    0.858   615 h    0.821
   614   1 h    0.893 --   613 o    0.858
   615   1 h    0.881 --   613 o    0.821
   616   8 o    1.830 --   618 h    0.851   617 h    0.812
   617   1 h    0.877 --   616 o    0.812
   618   1 h    0.898 --   616 o    0.851
   619   8 o    1.859 --   620 h    0.826   621 h    0.826
   620   1 h    0.884 --   619 o    0.826
   621   1 h    0.888 --   619 o    0.826
   622   8 o    1.856 --   623 h    0.854   624 h    0.811
   623   1 h    0.887 --   622 o    0.854
   624   1 h    0.882 --   622 o    0.811
   625   8 o    1.807 --   626 h    0.853   627 h    0.816
   626   1 h    0.892 --   625 o    0.853
   627   1 h    0.884 --   625 o    0.816
   628   8 o    1.854 --   630 h    0.824   629 h    0.812
   629   1 h    0.879 --   628 o    0.812
   630   1 h    0.873 --   628 o    0.824
   631   8 o    1.861 --   633 h    0.832   632 h    0.815
   632   1 h    0.892 --   631 o    0.815
   633   1 h    0.886 --   631 o    0.832
   634   8 o    1.831 --   636 h    0.835   635 h    0.826
   635   1 h    0.882 --   634 o    0.826
   636   1 h    0.891 --   634 o    0.835
   637   8 o    1.800 --   638 h    0.837   639 h    0.830
   638   1 h    0.891 --   637 o    0.837
   639   1 h    0.884 --   637 o    0.830
   640   8 o    1.852 --   641 h    0.835   642 h    0.804
   641   1 h    0.887 --   640 o    0.835
   642   1 h    0.872 --   640 o    0.804
   643   8 o    1.864 --   644 h    0.887   645 h    0.752
   644   1 h    0.902 --   643 o    0.887
   645   1 h    0.861 --   643 o    0.752   205 o    0.100
   646   8 o    1.816 --   647 h    0.878   648 h    0.847
   647   1 h    0.892 --   646 o    0.878
   648   1 h    0.886 --   646 o    0.847
   649   8 o    1.819 --   651 h    0.891   650 h    0.829
   650   1 h    0.874 --   649 o    0.829
   651   1 h    0.900 --   649 o    0.891
   652   8 o    1.823 --   654 h    0.885   653 h    0.760
   653   1 h    0.871 --   652 o    0.760   523 o    0.102
   654   1 h    0.903 --   652 o    0.885
   655   8 o    1.832 --   657 h    0.837   656 h    0.805
   656   1 h    0.878 --   655 o    0.805
   657   1 h    0.897 --   655 o    0.837
   658   8 o    1.837 --   660 h    0.898   659 h    0.793
   659   1 h    0.876 --   658 o    0.793
   660   1 h    0.903 --   658 o    0.898
   661   8 o    1.870 --   663 h    0.853   662 h    0.821
   662   1 h    0.878 --   661 o    0.821
   663   1 h    0.880 --   661 o    0.853
   664   8 o    1.841 --   665 h    0.861   666 h    0.848
   665   1 h    0.892 --   664 o    0.861
   666   1 h    0.882 --   664 o    0.848
   667   8 o    1.836 --   668 h    0.852   669 h    0.812
   668   1 h    0.890 --   667 o    0.852
   669   1 h    0.886 --   667 o    0.812
   670   8 o    1.835 --   671 h    0.854   672 h    0.848
   671   1 h    0.884 --   670 o    0.854
   672   1 h    0.900 --   670 o    0.848
   673   8 o    1.852 --   675 h    0.822   674 h    0.791
   674   1 h    0.882 --   673 o    0.791
   675   1 h    0.875 --   673 o    0.822
   676   8 o    1.831 --   678 h    0.894   677 h    0.808
   677   1 h    0.881 --   676 o    0.808
   678   1 h    0.900 --   676 o    0.894
   679   8 o    1.845 --   681 h    0.897   680 h    0.807
   680   1 h    0.875 --   679 o    0.807
   681   1 h    0.903 --   679 o    0.897
   682   8 o    1.859 --   683 h    0.856   684 h    0.823
   683   1 h    0.894 --   682 o    0.856
   684   1 h    0.876 --   682 o    0.823
   685   8 o    1.836 --   687 h    0.847   686 h    0.796
   686   1 h    0.877 --   685 o    0.796
   687   1 h    0.894 --   685 o    0.847
   688   8 o    1.862 --   689 h    0.853   690 h    0.824
   689   1 h    0.888 --   688 o    0.853
   690   1 h    0.882 --   688 o    0.824
   691   8 o    1.815 --   692 h    0.872   693 h    0.863
   692   1 h    0.893 --   691 o    0.872
   693   1 h    0.888 --   691 o    0.863
   694   8 o    1.825 --   696 h    0.861   695 h    0.846
   695   1 h    0.886 --   694 o    0.846
   696   1 h    0.891 --   694 o    0.861
   697   8 o    1.840 --   699 h    0.866   698 h    0.795
   698   1 h    0.882 --   697 o    0.795
   699   1 h    0.892 --   697 o    0.866
   700   8 o    1.845 --   702 h    0.835   701 h    0.766
   701   1 h    0.867 --   700 o    0.766
   702   1 h    0.889 --   700 o    0.835
   703   8 o    1.888 --   705 h    0.818   704 h    0.804
   704   1 h    0.888 --   703 o    0.804
   705   1 h    0.877 --   703 o    0.818
   706   8 o    1.863 --   707 h    0.821   708 h    0.819
   707   1 h    0.893 --   706 o    0.821
   708   1 h    0.880 --   706 o    0.819
   709   8 o    1.847 --   710 h    0.870   711 h    0.853
   710   1 h    0.890 --   709 o    0.870
   711   1 h    0.883 --   709 o    0.853
   712   8 o    1.890 --   714 h    0.870   713 h    0.782
   713   1 h    0.860 --   712 o    0.782
   714   1 h    0.893 --   712 o    0.870
   715   8 o    1.849 --   717 h    0.848   716 h    0.798
   716   1 h    0.869 --   715 o    0.798
   717   1 h    0.890 --   715 o    0.848
   718   8 o    1.868 --   719 h    0.821   720 h    0.776
   719   1 h    0.892 --   718 o    0.821
   720   1 h    0.868 --   718 o    0.776
   721   8 o    1.832 --   723 h    0.869   722 h    0.813
   722   1 h    0.880 --   721 o    0.813
   723   1 h    0.892 --   721 o    0.869
   724   8 o    1.848 --   726 h    0.819   725 h    0.808
   725   1 h    0.879 --   724 o    0.808
   726   1 h    0.889 --   724 o    0.819
   727   8 o    1.854 --   728 h    0.896   729 h    0.826
   728   1 h    0.900 --   727 o    0.896
   729   1 h    0.875 --   727 o    0.826
   730   8 o    1.866 --   732 h    0.898   731 h    0.768
   731   1 h    0.873 --   730 o    0.768
   732   1 h    0.902 --   730 o    0.898
   733   8 o    1.854 --   735 h    0.890   734 h    0.774
   734   1 h    0.867 --   733 o    0.774
   735   1 h    0.903 --   733 o    0.890
   736   8 o    1.848 --   738 h    0.835   737 h    0.816
   737   1 h    0.879 --   736 o    0.816
   738   1 h    0.891 --   736 o    0.835
   739   8 o    1.877 --   740 h    0.827   741 h    0.826
   740   1 h    0.886 --   739 o    0.827
   741   1 h    0.891 --   739 o    0.826
   742   8 o    1.809 --   744 h    0.847   743 h    0.828
   743   1 h    0.885 --   742 o    0.828
   744   1 h    0.891 --   742 o    0.847
   745   8 o    1.854 --   747 h    0.834   746 h    0.794
   746   1 h    0.874 --   745 o    0.794
   747   1 h    0.883 --   745 o    0.834
   748   8 o    1.881 --   750 h    0.832   749 h    0.826
   749   1 h    0.889 --   748 o    0.826
   750   1 h    0.884 --   748 o    0.832
   751   8 o    1.820 --   753 h    0.871   752 h    0.870
   752   1 h    0.892 --   751 o    0.870
   753   1 h    0.893 --   751 o    0.871
   754   8 o    1.790 --   755 h    0.869   756 h    0.868
   755   1 h    0.899 --   754 o    0.869
   756   1 h    0.895 --   754 o    0.868
 ---------------------------------------------------------------------------

Topologies differ in total number of bonds
Writing topology from bond orders to xtbtopo.mol

molecular dipole:
                 x           y           z       tot (Debye)
 q only:       -0.703       2.417       1.101
   full:       -0.768       2.685       1.855       8.522
molecular quadrupole (traceless):
                xx          xy          yy          xz          yz          zz
 q only:      141.911      23.224     -12.194      -6.039      14.684    -129.717
  q+dip:      190.879      57.804     -22.227      -3.195      11.162    -168.653
   full:      192.392      60.511     -22.880      -2.284      11.115    -169.512


           -------------------------------------------------
          | TOTAL ENERGY            -1283.547679991043 Eh   |
          | GRADIENT NORM               0.119140483518 Eh/α |
          | HOMO-LUMO GAP               6.835697852997 eV   |
           -------------------------------------------------

------------------------------------------------------------------------
 * finished run on 2022/11/24 at 12:21:38.928     
------------------------------------------------------------------------
 total:
 * wall-time:     0 d,  0 h,  0 min, 22.242 sec
 *  cpu-time:     0 d,  0 h,  0 min, 35.972 sec
 * ratio c/w:     1.617 speedup
 SCF:
 * wall-time:     0 d,  0 h,  0 min, 21.263 sec
 *  cpu-time:     0 d,  0 h,  0 min, 34.272 sec
 * ratio c/w:     1.612 speedup

