756
 energy: -1283.291726052185 gnorm: 0.014153907174 xtb: 6.5.1 (579679a)
o            5.77115609846929       -7.82622396680605       -0.57604521695632
h            4.82789325318211       -8.05333775273479       -0.44013447286551
h            6.28344265494077       -8.29886980465538        0.08002622277520
o           -0.46197980233900        3.78303459072139        4.34318154115242
h            0.04070819652316        3.22920383360402        4.97430659359861
h            0.07353616267749        4.58739455849518        4.22405083920522
o           -1.10707988908827       -2.18966156494985       -2.21404589778710
h           -0.55405979419600       -2.89068006491109       -2.60711580701968
h           -1.87734723562525       -2.64458897694277       -1.82691736140412
o           -5.25796864988132        2.71259419493372       -1.48915617064045
h           -4.37435665696019        2.44140560649372       -1.80378268745035
h           -5.45943399468967        3.52178701425887       -1.97049324998347
o           -2.45721750442682        3.00661164095521        0.30562287854543
h           -3.09981004960894        3.63569351239083        0.66761134106107
h           -1.67111805915859        3.02342465209532        0.86656233150288
o           -4.40342304216351       -3.91815049698547        2.71492712151687
h           -4.80395005080346       -3.05109868832822        2.50985054594334
h           -5.06310843525950       -4.40267412383267        3.24234295668515
o            0.36592399855079       -4.25385394824003       -3.20354264628475
h           -0.20490876188938       -5.03663108401632       -3.06832086313016
h            1.17435927274633       -4.50163821105116       -2.70673151147729
o            0.78676801040607       -6.35902613552831        0.23399756339021
h            1.02016609035196       -6.44968329571728        1.17665896103310
h            0.33675737925665       -7.18708720830323       -0.01697609332487
o           -2.27538732849642       -2.93200672977724        1.21384129208338
h           -1.52268523522950       -2.65694647229607        1.75740451565331
h           -2.88274846634730       -3.35241081217335        1.83231276610333
o            0.76109243338787        2.18420987975548       -5.01628699960370
h            0.58473679674982        2.62124336430863       -5.86922134987085
h            1.01417591990794        2.89694860932960       -4.40246726385179
o           -2.25992696143087       -0.06610912766637       -3.71847767651060
h           -1.75895311040939       -0.75036299418351       -3.25272864532134
h           -3.00114056236277       -0.53152568778650       -4.14141686147135
o           -1.01812050964181        4.14965243220736       -3.71330949589027
h           -0.62154602913473        4.74477941239338       -4.36960469310098
h           -1.50707093027833        3.48340020002060       -4.25678552316818
o           -4.45784996451378       -5.08322946209276        0.36499475933664
h           -5.37818698342774       -4.89915079327091        0.08724875780511
h           -4.36836337581619       -4.65556990306998        1.24933221859077
o           -2.85083759300786        2.21103701006632       -2.46901938293156
h           -2.73330943641183        1.35136657062405       -2.93095397407467
h           -1.99512784449772        2.38473879335089       -2.05198517402296
o           -0.21908115827427        2.43663603103590       -1.88291485950890
h           -0.03809111656614        1.61029030740219       -2.36809925119484
h           -0.28299647964459        3.13282289224588       -2.56808390824080
o            0.40328324558463        0.20326693574136       -3.21373434483942
h            0.09254805891363        0.35969298192855       -4.11235022316839
h            0.77373129931549       -0.69535347788713       -3.14663356236467
o           -2.92945562711364       -0.13115557413156        2.69650212442635
h           -2.99030516896833        0.83099462720261        2.80214439942538
h           -2.29391759987690       -0.44034634214582        3.34805651927725
o           -5.64242604721234        0.12010827965644        7.65535695125857
h           -5.95034532934422        0.94740513900267        7.25050773511902
h           -6.18591904538861       -0.56941167307148        7.24775034007478
o           -0.58261608614642       -4.76976495557546        2.16749966930562
h           -0.92962090315275       -4.35494292506114        2.97010117824260
h            0.37402713209882       -4.58460139285428        2.14850023166848
o           -2.41065437564662        1.80592944695119        5.92311153987098
h           -2.68118687104761        0.92429665184622        6.29976819902627
h           -3.11868347315764        2.41603218724778        6.19596078965714
o           -0.04130168326835       -1.81728991019731        2.38135461106506
h            0.92961236925316       -1.84091226590559        2.33929883726665
h           -0.25516004312680       -1.36995622429942        3.20857713421771
o            2.47858402054413        1.74799406492645        2.09502599582952
h            3.30236546641617        1.30945268261294        2.37123105570392
h            2.55627345543644        2.64195471538701        2.48240191779019
o            1.01128003777629       -2.93688725832413       -0.24668593011309
h            1.28180348497829       -3.31209955171316        0.61519592652375
h            0.25223133179880       -3.48820326217482       -0.52384943889889
o            0.97807120955754        5.51101744720376       -1.20140622363730
h            1.81657598866317        5.85801654041030       -0.86315592091876
h            0.45056087979840        6.26152718967391       -1.52221015387389
o           -3.16239297190238       -0.46211992252602        6.90601564748026
h           -4.02686413209927       -0.28042969278230        7.33651876113934
h           -3.37413627335743       -1.00088159384096        6.10330631045309
o           -5.50694827548157        0.36614075213040        4.30705977170358
h           -5.48177389111698        0.75568111309030        3.40949366777744
h           -5.79918769536836        1.06465137252473        4.90802823374730
o           -6.72971825113670        0.62257010933968       -0.64810744887066
h           -6.23934305573206        1.37181071712743       -1.04561444839097
h           -6.58505226295817        0.72997575067502        0.30717330280153
o            1.90522640253870        3.03804376953942       -0.42422583604173
h            1.07702692817659        2.85107261028587       -0.91479301362795
h            1.65367381467707        3.47187155908996        0.39365127397835
o           -3.42686436506544       -3.30525278474813       -1.39834432046588
h           -3.66586856259153       -3.98613567327804       -0.73819702031224
h           -4.07913882534924       -2.60151705553863       -1.29441820270771
o            1.89954530906588       -1.85664331834631       -2.53165295102057
h            2.28353971533983       -2.53986472435895       -3.09945912964104
h            1.50605217207316       -2.28529024277759       -1.75510217336661
o           -4.78761510331937       -5.77874361786493       -2.58465549200312
h           -4.98306824328545       -4.82087295903358       -2.62504082035663
h           -4.77107084145429       -6.08147424347869       -3.49617678533497
o           -5.77324175457557       -1.92883093584850       -0.60824303876884
h           -5.42230356333465       -1.85959997607157        0.30457908934217
h           -6.18598058088282       -1.06113789205077       -0.76388002232966
o            1.32309569604706        2.35711321691373        5.67534242775848
h            1.83245730599006        2.57040918702525        4.87742270308681
h            1.71835867837580        2.90899783771161        6.38016935186661
o            2.60275079962442       -1.33741699291829        2.12860217261479
h            3.27752130032124       -2.02562901246806        2.12460469928541
h            2.61338746993771       -0.88913941820828        1.27163464202129
o            2.13328929047944       -0.11842168151321        4.53352442239308
h            2.37817284045997       -0.54991739358037        3.69686406211597
h            1.16050124513227       -0.02456573342093        4.51174910391339
o            2.46659245305677        3.83889804193827        3.71852610400589
h            2.22992321801414        4.64472167217615        3.24246753947359
h            3.26848645365930        4.03879326719260        4.23027083932792
o           -3.82794769795434        4.50327837749889       -3.81540083141845
h           -4.05474920231206        4.20614795166600       -4.70823910428346
h           -3.47641673116813        3.71352232487049       -3.36645446177010
o           -6.36033450990689        5.05848477058865       -2.72270392739553
h           -6.38934827971494        4.91298181978818       -3.69382392269781
h           -5.51764186968959        5.52203278518200       -2.52890203357583
o            1.65571206558804       -4.44808402421981        6.77716029823493
h            1.76762558850475       -3.49820633724677        6.60862122137162
h            0.83310534900670       -4.51214645847616        7.29877853494052
o           -1.87344981848684       -3.41970917082918        4.11814875493034
h           -2.12520535062965       -4.11956340259921        4.74328554423216
h           -2.59175536664432       -2.76748496534090        4.14911867265678
o            0.35171825066847       -2.36795921220795        5.08979312198368
h           -0.37306924918795       -2.86948087317793        4.67041712369230
h           -0.00975947309439       -2.07870030674418        5.94279752604449
o           -0.20934209347794        1.95834344181081        2.37843761453568
h            0.74162895839390        1.84823516932620        2.22482877058677
h           -0.31168813778256        2.75186057709050        2.93751144066655
o           -1.13813243490720       -3.33323310195236       -7.51531451695124
h           -0.58111337198588       -4.00936417362320       -7.08459864941171
h           -0.50672926138719       -2.74091959760536       -7.95096826743233
o            2.71447645725875       -3.29079384218973        4.27211749364555
h            1.86983040352247       -2.94166378888133        4.62769228125609
h            3.39758042128225       -2.60892232035171        4.38600581567911
o           -7.68780790054801        2.32192845677852        3.28915797154174
h           -6.78102344657631        2.67838361900755        3.31516046022928
h           -8.19849739446758        2.93893358033429        3.84253119060121
o           -9.73389086931821        4.49332310532273        1.96222650215030
h           -8.94421156468208        5.04900971826772        2.03817052900436
h          -10.01324691900030        4.58387567442126        1.03829650326980
o           -9.73099195158690       -3.11320000546621       -0.08364064724022
h           -9.68565860959311       -2.27309158470928        0.43134299398106
h           -9.02895875061950       -2.98904284988520       -0.78081403125829
o            1.36546891561563       -6.75729747897770        2.90231337863184
h            2.15388488966915       -6.54244161781128        3.43359419154099
h            0.63406105327388       -6.35705892261075        3.41420345604043
o            4.52503461738061       -4.00946858171304        6.82239169923870
h            4.69659899726350       -3.26929502208416        7.41603559446204
h            3.58874769314635       -4.23003170394998        6.91537202621189
o            2.57568865703522        1.50727510595965       -2.52179033423596
h            2.37128310109913        2.44104226172749       -2.67986823426975
h            1.83817381495940        1.00252631648860       -2.92616350751919
o            5.00427694491784       -4.59236745593337       -2.53332589066553
h            4.34873352703721       -4.20544573193124       -3.14421983658845
h            5.36355272658507       -5.40322164110519       -2.93717503609727
o           -9.18487635985411        4.94930270301817       -3.90166229321506
h           -8.48179342418434        5.03018371281407       -4.55308066837842
h           -9.17643408393743        5.75873163372168       -3.38377300816347
o            6.52577167945801        2.63820006263572        1.16298414890169
h            5.87282875713595        2.30021859329223        1.78606747239414
h            6.72620516956233        1.89907816250930        0.55026398394786
o           -0.92481699539822        0.23949270608031       -6.20206385489064
h           -1.07913594488069       -0.53888832920355       -5.63375359521705
h           -1.71988689253412        0.27104813145285       -6.76273001457386
o           -8.15228768115447       -2.71858421677790       -2.08350996589827
h           -8.68454607427323       -3.01145679130569       -2.84137624668520
h           -7.85686690626302       -1.81853963698112       -2.32423375436437
o           -2.90551385963499        2.47945354646356        3.36099864597665
h           -2.58527615164566        2.25356727702082        4.25243972247092
h           -2.51227301751864        3.36429244527058        3.14740711899277
o            3.62063034068878       -6.05617764432541        1.30436417308518
h            3.32455610855719       -6.81996214506405        0.77245252673437
h            4.35359641378586       -5.63726964969047        0.78653101482816
o           -2.34402136542865       -6.60605687130954        1.72906500508230
h           -1.65202197833035       -5.91314667769563        1.87011236819664
h           -2.69015126191584       -6.50363428501181        0.83157412944885
o            2.73872749430900        0.49655159373132       -5.18668984419404
h            2.01931013885435        1.17990805733177       -5.14821455406352
h            2.23910388696239       -0.34250022292357       -5.26893635576366
o            1.08604271264029       -1.78399134048651       -8.04176394520890
h            2.00783982061850       -2.09453966007482       -8.02837501915112
h            1.09912512212646       -0.84365237962841       -8.26815475110514
o           -0.56844003906162        0.21215956031646        4.28002129861200
h           -0.48304107368487        0.85871340543114        3.53063689983811
h           -0.98330223497186        0.69020986236457        5.00147955137751
o            0.35167582057240       -4.89317933972535       -5.82377734028706
h           -0.35453978360677       -5.55450471046923       -5.77251987164278
h            0.40830195691874       -4.52542040664473       -4.91343387184582
o            2.09316261050234        0.25566184898039       -0.09763092544220
h            2.11312515135020        0.95564717543804        0.58302343510877
h            2.22406401205792        0.68908460406851       -0.96070758866851
o           -1.06202975366820       -4.55397369469584       -0.51665020976683
h           -0.45125651913357       -5.17571782801198       -0.06748284183911
h           -1.53288377958357       -4.03199497162340        0.17802107268352
o            4.85696935218457       -3.22183821178737        1.89631951766490
h            4.94462908935165       -3.58145444832297        2.80143363909112
h            5.58191509992628       -3.62467084141348        1.39250064020813
o           -3.97655889426641       -3.09229431060583       -7.13405168052370
h           -3.06705270174805       -3.21903160474792       -7.43524807157975
h           -4.27507805067078       -3.93636786429520       -6.74561798866138
o           -6.96775052855274       -4.28325784381202       -0.07106858620636
h           -7.15253121460911       -4.05741304976510        0.86253470807649
h           -6.70210886469797       -3.43148313913713       -0.46860903862398
o           -2.25296273287651        2.45845194821188       -5.29150150007025
h           -3.04883690653809        2.06607681371564       -4.88728789397195
h           -1.66163152633861        1.71635796546151       -5.50898544039231
o           -8.81183178976404        1.84230657857644        0.93361682008199
h           -8.40449117035624        2.15629464134515        1.76687903727406
h           -8.38188824845316        2.29773777412276        0.20296984596910
o            3.13854297331539       -5.92229783734660        4.76309196539413
h            3.06482774875448       -4.96239460640336        4.58261106853903
h            2.74320723939307       -6.02665160156500        5.63050197261845
o            0.83572164546395        0.62244108325181        7.65226853614488
h            0.25979932959683        1.32986047691951        8.01497915949390
h            1.02598015371271        0.95275181060675        6.75322145495620
o            4.13743556774102       -0.57999368568985       -1.98470813246460
h            3.89267659334894        0.31310375005100       -2.26351114109783
h            3.34175716696164       -1.12629736010529       -2.17032777794336
o            3.77863792032891        4.16718109148102        1.27077777420119
h            4.47529135069540        4.51899422694081        1.84780951586588
h            4.16128644752819        3.42586756155806        0.78730748625589
o           -4.71048907407464       -0.23218565425830       -2.62400250405278
h           -4.64834680244013        0.17547919611981       -1.75220108933566
h           -5.64032592040703       -0.45722194228042       -2.79250888241910
o            5.36484461896524       -6.64070308819514        3.22807417810888
h            4.87865661097252       -7.03469205534219        3.95629427764653
h            4.67815529197472       -6.45262682294407        2.54443671733478
o           -3.40552468504535        0.22084716151068       -7.12474331868713
h           -3.80040205530972       -0.21020857809741       -6.35265418201921
h           -3.94634812686938       -0.02252542411009       -7.87484084189553
o            4.93426376791338       -1.00635845323299       -4.67225689392181
h            4.18818526663257       -0.39646765411707       -4.78697321587854
h            5.30520980699817       -1.15726992243188       -5.56690362001900
o           -9.28542528062545       -4.20510743836231        3.90079017079609
h           -9.58823701823157       -4.63612016427443        3.07630499688924
h           -8.98172169220241       -4.91122098475148        4.47375192213848
o           -9.72292569523556       -0.73687274783519        0.94446812677497
h           -9.68879518050187       -0.15686289724684        0.15795975924498
h          -10.42345184534257       -0.40845024120521        1.54468921428829
o           -8.20833816955436       -5.73438768768016       -2.00559432012681
h           -9.15724289501777       -5.57790907659815       -1.98808343185158
h           -7.80472996199984       -5.17314836995044       -1.31015273834788
o           -8.32415639980927        6.68762919754118       -1.79044497558797
h           -7.90199980947571        7.23680221909077       -1.12074557362030
h           -7.59120496441055        6.14996914532379       -2.15825105316369
o           -6.21275669589852        7.32904351003287       -0.02944893846783
h           -5.61167047766563        7.81905214997109        0.54996203127622
h           -5.61415589673499        6.93729478807841       -0.69102087878913
o           -2.10542970786422        5.01478625024270       -1.41292917431265
h           -1.71119737714030        4.78103490562988       -2.27616018902471
h           -2.22035128770247        4.18332073378401       -0.91332519136426
o            0.32445525889798        5.16984825195676        6.98943693984064
h            1.16920833612425        4.90516892531282        7.37462916760338
h            0.54946540152243        5.59536927677802        6.14212728915165
o            1.84909412774660        5.88033617463956        1.90935517425559
h            2.59360611247274        5.45429612926647        1.44456691377715
h            1.72634774213446        6.76502749606043        1.52792526304357
o            0.64721459565346        3.72084487859069       -7.20561586668436
h            1.58760068290721        3.92687973137562       -7.03033347284619
h            0.14687899467324        4.48387572329927       -6.89351182514000
o            0.94038116975439        1.00022975790137       -7.98719252977180
h            0.34314481766412        0.72202980061201       -7.26175487217560
h            0.72458034107563        1.92939779369633       -8.12250097641846
o            4.38330900602950        1.94270435856168       -0.27130396742913
h            3.47030126183559        2.19398476734863       -0.49042688379944
h            4.37464807603294        1.03055408828841        0.03197111703376
o            3.26192417716832        3.98236683062766       -6.49429115197895
h            3.51650336914918        3.26852630645597       -7.10402143740983
h            3.59094585124285        3.65305336448029       -5.63129916064446
o           -0.23123481604657        5.87879345688273       -5.63210471966975
h           -0.88831156458514        6.47982727002067       -5.25808176157048
h            0.66028647494071        6.19498215254783       -5.40937458143422
o           -5.08902297665519       -1.46994311762289        1.92185985159541
h           -4.25867739279226       -1.00499697575936        2.16119844549024
h           -5.81964097427076       -0.90934361553379        2.20973660218712
o            1.25145570259341       -8.34296396806424       -2.24817466522103
h            0.62931486761388       -7.65568679182799       -2.56035338325801
h            0.69823490252008       -8.90969720608470       -1.69949898462565
o            7.11335661014367       -2.85464809095419        0.29686859725754
h            6.74753539278349       -2.55872653320872       -0.57070111635178
h            7.47711716089495       -3.74552292210156        0.10838520584412
o            1.98427550860480       -4.09149473670316        1.89380164959873
h            2.25547884834322       -3.78729410782608        2.78471539814213
h            2.53651144807016       -4.87470363653952        1.69149134756817
o            2.22292540156354        8.25074203392020       -1.92784191464027
h            2.78429421398130        8.73927291979576       -2.52905263646177
h            2.80519817274196        7.56206018121449       -1.54787934709243
o           -5.38600809090223       -3.57042550674648        5.97521331413723
h           -6.08017500509911       -2.90114085564074        6.10210806976440
h           -5.76269877155362       -4.24856098283109        5.38523037837402
o           -8.30477883100714       -1.33200662672035       -5.65505903103998
h           -8.84105357665292       -2.10365886522867       -5.44643688429573
h           -8.91015188404242       -0.56600148618829       -5.57743870184150
o           -4.28393896114867        6.45786900265780       -1.80493069554408
h           -3.55757681333866        5.82631245005169       -1.57513923566298
h           -3.88522251934029        7.06595382944179       -2.42960174088887
o           -2.45547104918867        6.76618140385352       -4.16957266465933
h           -3.01644326894349        7.15891325841687       -4.83794304624978
h           -2.84763122480505        5.86738298374164       -3.99558037070190
o            4.14617688132968        1.33052254975785        5.66386773432302
h            3.89823630633334        1.29437125611220        6.61562436772155
h            3.42750382470631        0.86920633065753        5.19111901718316
o           -5.50641114353119       -3.17288986912868       -3.18944440179266
h           -6.30471624556707       -3.52835259615000       -3.61703187102252
h           -5.79361501598546       -2.68923169700092       -2.40549711182515
o            3.06683890976744       -5.26153411715048       -5.89813808218781
h            3.17932756733135       -5.96762186554153       -5.23798151303545
h            2.10475569332719       -5.19430794088723       -6.03981622974359
o            2.34156484925654       -5.23847022199014       -1.71115656864377
h            2.96391902141639       -4.58830891871040       -1.32783267430776
h            1.85790440512917       -5.66679297585140       -0.97865809990295
o           -4.12234410314123        5.04414519971911        0.91833168509990
h           -4.29803623554094        5.99812257641178        0.96130574021295
h           -4.97645398059936        4.56508752826483        0.93129488209699
o           -7.25482714641818       -0.60044126389262       -3.30975142713088
h           -7.39652409177199        0.37131919205008       -3.33524091616605
h           -7.45700799366066       -0.91685790683663       -4.20944680355982
o          -10.08596459155383        4.90781245066758       -0.74316635235123
h           -9.64165865437542        5.69094296421078       -1.12285479982460
h          -10.86241694281701        4.69634744608642       -1.27363817413564
o            5.51877019518461        5.33731888331905        2.88798611296130
h            6.18635674814788        4.88394311828215        3.44171423068797
h            5.98262078524991        5.96540371584757        2.29287379897406
o           -7.25645751876731        2.00388314488566       -3.49299676093000
h           -7.46068996681928        2.46318178917325       -2.66566445368732
h           -6.29149428899386        2.09297040272034       -3.68914068413234
o            2.72714343758364        3.80600460669009        7.47850148596667
h            3.06359125836915        3.09296932414318        8.03529650930866
h            3.44377031879692        4.02431054033635        6.85266483312972
o            3.62512487867148        1.48158649844265       -7.52997129499126
h            2.80406621094700        1.30728721351365       -8.01179870788893
h            3.44806634089834        1.08725274102811       -6.64907492111838
o           -1.59622147150707       -7.91352001980692        5.12129060656175
h           -2.43352335972477       -7.70301660193683        4.66673307353429
h           -1.82204705345574       -8.23902742100748        5.99176070270195
o            6.15724854114881        2.44624286134452       -2.20449925737294
h            6.95110421879697        2.71691348793267       -1.70996388955465
h            5.47098796291794        2.27984659898235       -1.53028995092442
o           -7.70447041930179       -0.43195803252440        2.60478938143519
h           -8.34209526974514       -0.41342841674315        1.85547402905448
h           -7.60327431199052        0.49540660783744        2.88370744215834
o            9.70174494440055        4.37531662167114        3.86032914485014
h           10.32728925966445        4.96789843349317        3.43225804396536
h            9.47605838633931        3.71632381351058        3.16634918923546
o          -11.33967510083827       -0.02633643975684        2.95377969375702
h          -11.17160425203112        0.90155294725641        3.18090868308462
h          -10.84536390029876       -0.55813594551795        3.59935261956288
o           -5.26594669754102        3.38551469890167        3.86166962902560
h           -4.39434859160500        2.99182972782661        3.59307119414555
h           -5.36074513734562        3.22982165424681        4.80691596572837
o           -6.39069175499050        3.71842493101553        1.03108404603887
h           -6.89178264540045        4.44158897132242        1.45995274844980
h           -6.77693473885601        3.57906869124459        0.14833141583800
o           -6.70142377796179        2.12834524983817        6.08657634080559
h           -6.85529399638585        3.03066361212386        6.38233432776587
h           -7.59387168436290        1.75679742250947        5.90757209961273
o           -0.87279652022447       -4.35348759619620        7.69222512393782
h           -0.93391800075393       -3.38756210281200        7.73068280676982
h           -1.58444876329970       -4.65197631000349        7.11230804444085
o           -0.11287463992796       -5.53431152714291        4.78900346809023
h            0.49024865711643       -5.19719108221973        5.46768945672395
h           -0.58560147576955       -6.29571698720184        5.14466859879270
o           -4.29009712427739        3.76594683450672       -6.52588622544760
h           -3.39755010228510        3.40578203832140       -6.38651486397801
h           -4.80817193601215        2.99934999312899       -6.81772199877203
o            3.88825763945864        4.21254219567288       -1.98426633450556
h            4.70214160284932        4.28178012954877       -1.44343424808231
h            3.16313441593374        3.97002454617272       -1.38472340922925
o            6.85586922003272        0.18344227788068       -3.21160138903726
h            6.45879332907222        1.02610663790102       -2.86572798852623
h            6.16045037025154       -0.25142150187368       -3.74562208659241
o            4.06543877242057        8.13370874317845        1.83705865336294
h            3.82386757893257        7.67918655934743        2.66399050124268
h            5.02696117271334        8.09479394648865        1.77452914486460
o            4.52610176348169        3.93956690509864        5.46877986302260
h            5.46006320643126        4.14024757867994        5.31868405664803
h            4.46914108916619        2.95643234031076        5.46255932299997
o            7.34291070054613        1.46127299672731        4.06629023974170
h            6.54203632334929        1.18076646395211        3.59343630291131
h            8.03329810849396        1.59435780428032        3.39165558473207
o            5.63563361504253       -5.15861053699938       -0.01937625770208
h            5.35185241947076       -4.86466653747057       -0.90376613095140
h            6.00871520382916       -6.04415934734041       -0.14582384237099
o            6.90442178752788       -1.24553641454301        2.42134083125513
h            7.73695181158838       -0.73553651025922        2.38500700512581