      -----------------------------------------------------------      
     |                   =====================                   |     
     |                           x T B                           |     
     |                   =====================                   |     
     |                         S. Grimme                         |     
     |          Mulliken Center for Theoretical Chemistry        |     
     |                    University of Bonn                     |     
      -----------------------------------------------------------      

   * xtb version 6.5.1 (579679a) compiled by 'ehlert@majestix' on 2022-07-11

   xtb is free software: you can redistribute it and/or modify it under
   the terms of the GNU Lesser General Public License as published by
   the Free Software Foundation, either version 3 of the License, or
   (at your option) any later version.
   
   xtb is distributed in the hope that it will be useful,
   but WITHOUT ANY WARRANTY; without even the implied warranty of
   MERCHANTABILITY or FITNESS FOR A PARTICULAR PURPOSE.  See the
   GNU Lesser General Public License for more details.
   
   Cite this work as:
   * C. Bannwarth, E. Caldeweyher, S. Ehlert, A. Hansen, P. Pracht,
     J. Seibert, S. Spicher, S. Grimme, WIREs Comput. Mol. Sci., 2020, 11,
     e01493. DOI: 10.1002/wcms.1493
   
   for GFN2-xTB:
   * C. Bannwarth, S. Ehlert and S. Grimme., J. Chem. Theory Comput., 2019,
     15, 1652-1671. DOI: 10.1021/acs.jctc.8b01176
   for GFN1-xTB:
   * S. Grimme, C. Bannwarth, P. Shushkov, J. Chem. Theory Comput., 2017,
     13, 1989-2009. DOI: 10.1021/acs.jctc.7b00118
   for GFN0-xTB:
   * P. Pracht, E. Caldeweyher, S. Ehlert, S. Grimme, ChemRxiv, 2019, preprint.
     DOI: 10.26434/chemrxiv.8326202.v1
   for GFN-FF:
   * S. Spicher and S. Grimme, Angew. Chem. Int. Ed., 2020, 59, 15665-15673.
     DOI: 10.1002/anie.202004239
   
   for ALPB and GBSA implicit solvation:
   * S. Ehlert, M. Stahn, S. Spicher, S. Grimme, J. Chem. Theory Comput.,
     2021, 17, 4250-4261. DOI: 10.1021/acs.jctc.1c00471
   
   for DFT-D4:
   * E. Caldeweyher, C. Bannwarth and S. Grimme, J. Chem. Phys., 2017,
     147, 034112. DOI: 10.1063/1.4993215
   * E. Caldeweyher, S. Ehlert, A. Hansen, H. Neugebauer, S. Spicher,
     C. Bannwarth and S. Grimme, J. Chem. Phys., 2019, 150, 154122.
     DOI: 10.1063/1.5090222
   * E. Caldeweyher, J.-M. Mewes, S. Ehlert and S. Grimme, Phys. Chem. Chem. Phys.
     2020, 22, 8499-8512. DOI: 10.1039/D0CP00502A
   
   for sTDA-xTB:
   * S. Grimme and C. Bannwarth, J. Chem. Phys., 2016, 145, 054103.
     DOI: 10.1063/1.4959605
   
   in the mass-spec context:
   * V. Asgeirsson, C. Bauer and S. Grimme, Chem. Sci., 2017, 8, 4879.
     DOI: 10.1039/c7sc00601b
   * J. Koopman and S. Grimme, ACS Omega 2019, 4, 12, 15120-15133.
     DOI: 10.1021/acsomega.9b02011
   
   for metadynamics refer to:
   * S. Grimme, J. Chem. Theory Comput., 2019, 155, 2847-2862
     DOI: 10.1021/acs.jctc.9b00143
   
   for SPH calculations refer to:
   * S. Spicher and S. Grimme, J. Chem. Theory Comput., 2021, 17, 1701-1714
     DOI: 10.1021/acs.jctc.0c01306
   
   with help from (in alphabetical order)
   P. Atkinson, C. Bannwarth, F. Bohle, G. Brandenburg, E. Caldeweyher
   M. Checinski, S. Dohm, S. Ehlert, S. Ehrlich, I. Gerasimov, C. Hölzer
   A. Katbashev, J. Koopman, C. Lavigne, S. Lehtola, F. März, M. Müller,
   F. Musil, H. Neugebauer, J. Pisarek, C. Plett, P. Pracht, F. Pultar,
   J. Seibert, P. Shushkov, S. Spicher, M. Stahn, M. Steiner, T. Strunk,
   J. Stückrath, T. Rose, and J. Unsleber
   
 * started run on 2022/11/03 at 00:49:15.947     

           -------------------------------------------------
          |                Calculation Setup                |
           -------------------------------------------------

          program call               : xtb cluster.xyz --gfn2 --ohess
          hostname                   : cn0272
          coordinate file            : cluster.xyz
          omp threads                :                     1

   ID    Z sym.   atoms
    1    1 H      1, 3, 5, 6, 8, 10-12, 14, 15, 17, 18, 20, 21, 23, 24, 26,
                  27, 29, 30, 32, 33, 35, 36, 38, 39, 41, 42, 44, 45, 47, 48,
                  50, 51, 53, 54, 56, 57, 59, 60, 62, 63, 65, 66, 68, 69, 71,
                  72, 74, 75, 77, 78, 80, 81, 83, 84, 86, 87, 89, 90, 92, 93,
                  95, 96, 98, 99, 101, 102, 104, 105, 107, 108, 110, 111,
                  113, 114, 116, 117, 119, 120, 122, 123, 125, 126, 128, 129,
                  131, 132, 134, 135, 137, 138, 140, 141, 143, 144, 146, 147,
                  149, 150, 152, 153, 155, 156, 158, 159, 161, 162, 164, 165,
                  167, 168, 170, 171, 173, 174, 176, 177, 179, 180, 182, 183,
                  185, 186, 188, 189, 191, 192, 194, 195, 197, 198, 200, 201,
                  203, 204, 206, 207, 209, 210, 212, 213, 215, 216, 218, 219,
                  221, 222, 224, 225, 227, 228, 230, 231, 233, 234, 236, 237,
                  239, 240, 242, 243, 245, 246, 248, 249, 251, 252, 254, 255,
                  257, 258, 260, 261, 263, 264, 266, 267, 269, 270, 272, 273,
                  275, 276, 278, 279, 281, 282, 284, 285, 287, 288, 290, 291,
                  293, 294, 296, 297, 299, 300, 302, 303, 305, 306, 308, 309,
                  311, 312, 314, 315, 317, 318, 320, 321, 323, 324, 326, 327,
                  329, 330, 332, 333, 335, 336, 338, 339, 341, 342, 344, 345,
                  347, 348, 350, 351, 353, 354, 356, 357, 359, 360, 362, 363,
                  365, 366, 368, 369, 371, 372, 374, 375, 377, 378, 380, 381,
                  383, 384, 386, 387, 389, 390, 392, 393, 395, 396, 398, 399,
                  401, 402, 404, 405, 407, 408, 410, 411, 413, 414, 416, 417,
                  419, 420, 422, 423, 425, 426, 428, 429, 431, 432, 434, 435,
                  437, 438, 440, 441, 443, 444, 446, 447, 449, 450, 452, 453,
                  455, 456, 458, 459, 461, 462, 464, 465, 467, 468, 470, 471,
                  473, 474, 476, 477, 479, 480, 482, 483, 485, 486, 488, 489,
                  491, 492, 494, 495, 497, 498, 500, 501, 503, 504, 506, 507,
                  509, 510, 512, 513, 515, 516, 518, 519, 521, 522, 524, 525,
                  527, 528, 530, 531, 533, 534, 536, 537, 539, 540, 542, 543,
                  545, 546, 548, 549, 551, 552, 554, 555, 557, 558, 560, 561,
                  563, 564, 566, 567, 569, 570, 572, 573, 575, 576, 578, 579,
                  581, 582, 584, 585, 587, 588, 590, 591, 593, 594, 596, 597,
                  599, 600, 602, 603, 605, 606, 608, 609, 611, 612
    2    6 C      2, 4
    3    8 O      7, 13, 16, 19, 22, 25, 28, 31, 34, 37, 40, 43, 46, 49, 52,
                  55, 58, 61, 64, 67, 70, 73, 76, 79, 82, 85, 88, 91, 94, 97,
                  100, 103, 106, 109, 112, 115, 118, 121, 124, 127, 130, 133,
                  136, 139, 142, 145, 148, 151, 154, 157, 160, 163, 166, 169,
                  172, 175, 178, 181, 184, 187, 190, 193, 196, 199, 202, 205,
                  208, 211, 214, 217, 220, 223, 226, 229, 232, 235, 238, 241,
                  244, 247, 250, 253, 256, 259, 262, 265, 268, 271, 274, 277,
                  280, 283, 286, 289, 292, 295, 298, 301, 304, 307, 310, 313,
                  316, 319, 322, 325, 328, 331, 334, 337, 340, 343, 346, 349,
                  352, 355, 358, 361, 364, 367, 370, 373, 376, 379, 382, 385,
                  388, 391, 394, 397, 400, 403, 406, 409, 412, 415, 418, 421,
                  424, 427, 430, 433, 436, 439, 442, 445, 448, 451, 454, 457,
                  460, 463, 466, 469, 472, 475, 478, 481, 484, 487, 490, 493,
                  496, 499, 502, 505, 508, 511, 514, 517, 520, 523, 526, 529,
                  532, 535, 538, 541, 544, 547, 550, 553, 556, 559, 562, 565,
                  568, 571, 574, 577, 580, 583, 586, 589, 592, 595, 598, 601,
                  604, 607, 610
    4    7 N      9

molecular fragmentation (1/2 indicates fragments):
111111111111222222222222222222222222222222222222222222222222222222222222
222222222222222222222222222222222222222222222222222222222222222222222222
222222222222222222222222222222222222222222222222222222222222222222222222
222222222222222222222222222222222222222222222222222222222222222222222222
222222222222222222222222222222222222222222222222222222222222222222222222
222222222222222222222222222222222222222222222222222222222222222222222222
222222222222222222222222222222222222222222222222222222222222222222222222
222222222222222222222222222222222222222222222222222222222222222222222222
222222222222222222222222222222222222
# atoms in fragment 1/2:    12   600
 fragment masses (1/2) :       62.09     3603.06
CMA distance (Bohr)    :   5.750
constraining FC (au)   :  0.0500

           -------------------------------------------------
          |                 G F N 2 - x T B                 |
           -------------------------------------------------

        Reference                      10.1021/acs.jctc.8b01176
      * Hamiltonian:
        H0-scaling (s, p, d)           1.850000    2.230000    2.230000
        zeta-weighting                 0.500000
      * Dispersion:
        s8                             2.700000
        a1                             0.520000
        a2                             5.000000
        s9                             5.000000
      * Repulsion:
        kExp                           1.500000    1.000000
        rExp                           1.000000
      * Coulomb:
        alpha                          2.000000
        third order                    shell-resolved
        anisotropic                    true
        a3                             3.000000
        a5                             4.000000
        cn-shift                       1.200000
        cn-exp                         4.000000
        max-rad                        5.000000


          ...................................................
          :                      SETUP                      :
          :.................................................:
          :  # basis functions                1224          :
          :  # atomic orbitals                1224          :
          :  # shells                          816          :
          :  # electrons                      1626          :
          :  max. iterations                   250          :
          :  Hamiltonian                  GFN2-xTB          :
          :  restarted?                      false          :
          :  GBSA solvation                  false          :
          :  PC potential                    false          :
          :  electronic temp.          300.0000000     K    :
          :  accuracy                    1.0000000          :
          :  -> integral cutoff          0.2500000E+02      :
          :  -> integral neglect         0.1000000E-07      :
          :  -> SCF convergence          0.1000000E-05 Eh   :
          :  -> wf. convergence          0.1000000E-03 e    :
          :  Broyden damping             0.4000000          :
          ...................................................

 iter      E             dE          RMSdq      gap      omega  full diag
   1  -1039.6441194 -0.103964E+04  0.406E+00    8.01       0.0  T
   2  -1039.7627994 -0.118680E+00  0.240E+00    8.28       1.0  T
   3  -1039.7876558 -0.248564E-01  0.230E-01    7.95       1.0  T
   4  -1039.7918609 -0.420507E-02  0.901E-02    8.07       1.0  T
   5  -1039.7923814 -0.520580E-03  0.294E-02    8.13       1.0  T
   6  -1039.7924110 -0.295847E-04  0.133E-02    8.13       1.0  T
   7  -1039.7924159 -0.489572E-05  0.192E-03    8.13       2.1  T
   8  -1039.7924164 -0.458459E-06  0.645E-04    8.13       6.3  T
   9  -1039.7924164 -0.215095E-07  0.202E-04    8.13      20.0  T

   *** convergence criteria satisfied after 9 iterations ***

         #    Occupation            Energy/Eh            Energy/eV
      -------------------------------------------------------------
         1        2.0000           -0.7508277             -20.4311
       ...           ...                  ...                  ...
       807        2.0000           -0.4622049             -12.5772
       808        2.0000           -0.4621515             -12.5758
       809        2.0000           -0.4615170             -12.5585
       810        2.0000           -0.4592460             -12.4967
       811        2.0000           -0.4578175             -12.4578
       812        2.0000           -0.4575633             -12.4509
       813        2.0000           -0.4572988             -12.4437 (HOMO)
       814                         -0.1583793              -4.3097 (LUMO)
       815                         -0.1398863              -3.8065
       816                         -0.1330793              -3.6213
       817                         -0.1253678              -3.4114
       818                         -0.1226764              -3.3382
       ...                                ...                  ...
      1224                          0.3702108              10.0739
      -------------------------------------------------------------
                  HL-Gap            0.2989195 Eh            8.1340 eV
             Fermi-level           -0.3078391 Eh           -8.3767 eV

 SCC (total)                   0 d,  0 h,  0 min, 16.872 sec
 SCC setup                      ...        0 min,  0.035 sec (  0.210%)
 Dispersion                     ...        0 min,  0.094 sec (  0.557%)
 classical contributions        ...        0 min,  0.021 sec (  0.124%)
 integral evaluation            ...        0 min,  0.730 sec (  4.328%)
 iterations                     ...        0 min,  6.189 sec ( 36.681%)
 molecular gradient             ...        0 min,  9.732 sec ( 57.680%)
 printout                       ...        0 min,  0.071 sec (  0.422%)

         :::::::::::::::::::::::::::::::::::::::::::::::::::::
         ::                     SUMMARY                     ::
         :::::::::::::::::::::::::::::::::::::::::::::::::::::
         :: total energy           -1033.472512100207 Eh    ::
         :: gradient norm              0.000362965255 Eh/a0 ::
         :: HOMO-LUMO gap              8.134014736730 eV    ::
         ::.................................................::
         :: SCC energy             -1039.792416401342 Eh    ::
         :: -> isotropic ES            5.739748803284 Eh    ::
         :: -> anisotropic ES         -1.310180425320 Eh    ::
         :: -> anisotropic XC         -0.097352317589 Eh    ::
         :: -> dispersion             -0.629542765668 Eh    ::
         :: repulsion energy           6.199149492842 Eh    ::
         :: add. restraining           0.000000000000 Eh    ::
         :: total charge               1.000000000000 e     ::
         :::::::::::::::::::::::::::::::::::::::::::::::::::::

      ----------------------------------------------------------- 
     |                       L-ANC optimizer                     |
      ----------------------------------------------------------- 
          low memory version by Sebastian Ehlert

          ...................................................
          :                      SETUP                      :
          :.................................................:
          :   energy convergence        0.5000000E-05 Eh    :
          :   grad. convergence         0.1000000E-02 Eh/a0 :
          :   optimization log               true           :
          :   writing optlog all                1     steps :
          :   Hessian reset                    20     steps :
          :   maximium step len.        1.0000000     a0    :
          :   LBFGS images                     20           :
          ...................................................
 * calculating model hessian...
Using Lindh-Hessian (1995)
 Shifting diagonal of input Hessian by   1.169999070931226E-002
 Lowest  eigenvalues of input Hessian
    0.010000    0.011695    0.000000    0.000000    0.000000    0.000000
    0.000000    0.000000    0.011705    0.011728    0.011766    0.011773
    0.011817    0.011829    0.011856    0.011866    0.011877    0.011903
 Highest eigenvalues
    1.442663    1.448725    1.450238    1.450680    1.453567    1.484364
 

........................................................................
.............................. CYCLE    1 ..............................
........................................................................
   1  -1039.7921873 -0.103979E+04  0.602E-04    8.13       0.0  T
   2  -1039.7921873 -0.692216E-08  0.364E-04    8.13      11.1  T
   3  -1039.7921873 -0.179466E-08  0.493E-05    8.13      81.9  T
     SCC iter.                  ...        0 min,  1.833 sec
     gradient                   ...        0 min,  9.532 sec
 * total energy  : -1033.4725124 Eh     change       -0.3176360E-06 Eh
   gradient norm :     0.0002311 Eh/a0  converged?    E=T G=T D=F
   step length   :     0.0086884 a0

   *** GEOMETRY OPTIMIZATION CONVERGED AFTER 1 CYCLES ***

------------------------------------------------------------------------
 total energy gain   :        -0.0000003 Eh       -0.0002 kcal/mol
 total RMSD          :         0.0003512 a0        0.0002 Å
 total power (kW/mol):        -0.0008340 (step)   -0.0000 (real)
------------------------------------------------------------------------

 L-ANCopt (total)              0 d,  0 h,  0 min, 18.418 sec
 setup                          ...        0 min,  0.023 sec (  0.122%)
 model hessian                  ...        0 min,  4.593 sec ( 24.939%)
 ANC generation                 ...        0 min,  1.529 sec (  8.301%)
 coordinate transformation      ...        0 min,  0.007 sec (  0.038%)
 Rational function              ...        0 min,  0.002 sec (  0.012%)
 singlepoint calculation        ...        0 min, 12.249 sec ( 66.506%)
 optimization log               ...        0 min,  0.011 sec (  0.058%)
                                ...        0 min,  0.000 sec (  0.000%)

================
 final structure:
================
612
 xtb: 6.5.1 (579679a)
H           -3.20228708334646        1.56648852969395       -2.18877242458904
C           -2.93221822490039        0.57676387442369       -2.54817970221265
H           -3.80753598424566        0.08735297480577       -2.96354618817831
C           -2.41614222592184       -0.29084714559417       -1.41331630473688
H           -2.09460906002763       -1.25682006769756       -1.79206276063346
H           -3.23476937189034       -0.45836056382967       -0.71843844180361
O           -1.99771746687442        0.72942280738758       -3.61296713114348
H           -1.32115181518612        1.36772765048629       -3.27334798862445
N           -1.28619969423531        0.31993241842103       -0.70404905751413
H           -0.43591716043129        0.32841147355486       -1.31704059290660
H           -1.05093517204275       -0.25217890086344        0.11883087383168
H           -1.53521917929797        1.28270562471408       -0.37692726223617
O            1.83536796925842        5.34757663547527        3.12476466716098
H            0.97804002439208        5.68739166522259        3.40632883834509
H            2.41541724341293        5.41781460136528        3.90485760739132
O            5.15880743578849        3.04154440329740       -2.37977453149596
H            5.97115999622190        3.58370788868459       -2.45346429977514
H            4.51589941005348        3.65042943397124       -1.95770313139396
O            5.89576581295505        3.10527116804516        0.78878035026157
H            6.39024160477589        3.84334750637451        1.18238221755644
H            6.46550158402639        2.74313317392211        0.09422751508992
O           -2.27661006669301        2.62929919774914        0.26340283959193
H           -2.33306097184002        2.65232752558170        1.23812265285358
H           -3.19540543713055        2.49826844705405       -0.03831046010171
O           -4.81726187216914        2.29166632292943       -0.41310310325567
H           -5.24182287262444        1.63514234762735       -0.98989908680130
H           -5.17872198880769        2.16668685963589        0.47729398496569
O           -2.23808411720398       -4.26455941350021       -5.33519537299260
H           -2.14897997001143       -3.32316830330572       -5.11678661229902
H           -1.73147689453623       -4.37178539950358       -6.17815324297101
O            1.32275548145062        0.71584129082736        0.53825096858833
H            2.16925347702135        0.78042894757993        1.00254959874193
H            0.70305530718457        0.25786500531375        1.12274332988808
O            4.29100110367488        7.50329179596275        0.96855907871012
H            4.48783482837082        7.04289479107999        1.79595646219167
H            3.45436245946727        7.09654488444297        0.66820745370745
O            2.07043732572899       -2.15209774423721        1.32227504849619
H            2.02174948642431       -2.98643044668196        1.82014101936322
H            2.04683129509539       -1.44658758670838        1.99490285512146
O           -0.30430207984666       -2.28291223932339       -0.47942296984495
H            0.39449181734382       -2.30788035017090        0.18367635218867
H           -0.92199276095353       -3.00345885644566       -0.26195602244531
O            0.73597609807501        5.19949742900163       -1.85823458016550
H            0.99188382043597        6.13252136616078       -1.74186015890599
H            0.98675611521102        4.71195365628487       -1.05489376350164
O            7.69979985085630        2.04843136461983       -1.06062563040241
H            8.31351817290938        2.72080043841672       -1.41454609740766
H            7.26316757355900        1.64297876357247       -1.82313842548397
O           -3.54973175341826       -0.01761745673902        1.87619815009894
H           -3.94705055521399       -0.56325139502138        2.57421352755189
H           -2.62128778628920       -0.27891226151416        1.83159089915608
O            0.45152242932892        0.00364063586991        5.86956543362591
H            0.67652105368958       -0.88948314293880        5.52662277368390
H           -0.36011563454381       -0.13762889544905        6.37945094943769
O           -0.48507532171380        1.33146270575737        3.76275002213841
H           -0.02025547250702        0.84756133015787        4.48041521727278
H            0.15744658791867        1.90573061681574        3.30557623772712
O            5.04551226298638       -1.57409520387200       -1.85059359458955
H            5.49883591563328       -2.34193703707216       -2.25949509775647
H            4.08505150509594       -1.75047247841419       -1.90037538118804
O           -3.64063438212786       -4.66319200419476        4.31303388484359
H           -3.11476867804645       -4.52952965591506        5.10349443530800
H           -4.56832758953409       -4.66151506635354        4.60150105465141
O           -0.31563687026357       -3.36901974373282        2.15935343085158
H           -0.35309056380978       -3.83220579822309        3.00843413700953
H            0.09623307170799       -3.97186631186273        1.51582823615059
O            1.17895342587660       -2.40635455272351        5.02303394521210
H            0.52414274142577       -3.08527447066860        4.79619132039186
H            1.50271408591760       -1.98652325868676        4.20830622976155
O           -1.34421676445795       -0.89982242383259        7.76367090092505
H           -2.04193749587873       -0.22828801858000        7.85862134306553
H           -0.69535477121694       -0.77919491781975        8.46176106994779
O            4.63498962910788        2.82750594744617        3.29175919086874
H            5.52882654828671        2.41815776963602        3.32201294171932
H            4.21658333308896        2.32088318008300        2.56331937983046
O           -0.93519898459827        4.52221867760087       -4.10404119725133
H           -0.82765493611676        3.94514816879845       -4.87452354483096
H           -0.19892459532489        5.16366049658362       -4.13409213075246
O           -3.04362677144729        2.63454073705648        2.85177169499764
H           -3.98724886319523        2.59733603161503        2.59636936958093
H           -2.86596606596760        1.80532463781917        3.33093483648298
O           -3.93751305468131       -2.36469561544095        0.01370945107594
H           -3.30664432632048       -3.04709631322495       -0.25778257344505
H           -3.80328155894370       -2.29257781651818        0.97166607054894
O            2.48045318842749       -1.91836255439511       -1.34203788653032
H            1.86743801116721       -1.24106036826357       -1.68528997948271
H            2.31975941028083       -1.95395515741164       -0.38724546489420
O            8.79681311738762        2.63617271946985        1.53811992300287
H            9.65634246812933        2.24135339647248        1.77160771959944
H            8.50697576899852        2.23603126698895        0.70948632375664
O           -3.44442353559032        3.54112856512199       -3.13671654515136
H           -4.36126464062738        3.72329989081342       -2.87806257129776
H           -2.85739516898307        4.06665568191219       -2.56153539758516
O            2.57229603431384        1.99617986330250       -1.75099885561049
H            2.20826742840124        2.65510791443721       -2.37268465994156
H            2.78589943866556        2.47007175297185       -0.91433467001860
O            0.98429753126151       -3.63576768341758        7.55493916062944
H            0.02647087375989       -3.65057116302415        7.54349853196159
H            1.24002444174477       -2.72465229055919        7.79774622033379
O           -2.84230823430157       -2.71403931516983        2.48214625590567
H           -2.01717018452619       -3.08242894486508        2.11437414199601
H           -3.29349389497529       -3.43357096940773        2.94968178557189
O            1.69146136808329       -0.35621482452065       -6.33951934403815
H            0.88016338643631       -0.80234170630222       -6.69050429135006
H            1.33286437736270        0.36893156384154       -5.77047934399852
O            3.17223617836488        6.90671553274492       -3.31954485874760
H            2.81776172290190        7.62403413869648       -2.78259351522150
H            3.38474320943283        6.19350534614525       -2.66875512356707
O            0.35291018344771        5.26815137427945       -6.96804674423017
H            0.56946548000095        5.74307900460380       -6.14271645481795
H            1.00118746303499        5.53585057808606       -7.61733393791809
O            4.08051588905632       -4.97652104786227       -4.11619033825197
H            4.59865410329583       -4.18794563764816       -4.36141523257295
H            4.57515983906294       -5.39963317552729       -3.39762970470386
O           -2.06649090152114       -4.30769206882249       -0.14496641610948
H           -2.39352220822355       -4.82480139309559        0.61840757472324
H           -1.69270546769649       -4.95487608200410       -0.76398659949941
O          -10.23769340881804       -1.29524558122119        3.56452612721043
H          -10.66986186768151       -0.46846912285174        3.25663303697574
H          -10.33262250605462       -1.89453757807265        2.80417646789739
O           -7.13322412385068       -2.43590959621549        1.14925388609527
H           -6.33997996520206       -2.95720074046276        1.39617944336608
H           -6.84422419280954       -1.49854962110503        1.17366744004543
O           -0.71896230631884       -0.53775750038275        1.88793461585106
H           -0.54229836514284       -1.43743441855585        2.19385483406935
H           -0.71701151405601        0.06226326910533        2.66792445987180
O            1.80321927390999        3.60907089984318       -3.72938994613783
H            2.63366991822750        3.87260266990588       -4.16256512948726
H            1.47483011171957        4.33630540295319       -3.16603738799309
O           -1.21575779034540        7.90347991622586       -3.19622049956277
H           -1.79328628732580        7.55102505111898       -3.88719923602564
H           -1.73348389500247        7.78772263277097       -2.37564392554651
O           -5.18796114155699       -1.59442232575558        3.46456006738646
H           -5.18555432437734       -2.45115838495347        3.01368857262287
H           -6.08318924192385       -1.21289676926558        3.35524333631585
O            5.66608958330756        4.04348731795250        5.65058114453147
H            5.36152641960401        3.75725102508449        4.77931312270207
H            5.83109475937383        3.22040299671270        6.13274031604050
O           -5.67289769629531       -6.43323497479617       -3.24951277531146
H           -6.58985913725268       -6.15718029771638       -3.11118114732867
H           -5.45501813592004       -7.04104760715092       -2.52689571545833
O            3.24098233936161        3.35753927381677        0.40417572801751
H            2.70684694512497        3.07912185194308        1.15946898235153
H            4.18962126222626        3.25877889682932        0.60933908935371
O            5.09245900534038        0.86044682874800       -0.71420451929755
H            5.06546336267961        1.65826965913945       -1.27481920855161
H            5.00746201310950        0.08761597665843       -1.29048793331593
O            0.10153738519613       -6.99487567320405        4.73205406822167
H            0.59648170871894       -7.01105133589507        3.88563982133450
H           -0.58840707760835       -7.65339729279838        4.63698415894565
O           -6.81264445702656       -5.76647582137174        3.24691643542691
H           -7.62373867855599       -5.27998884039925        3.00940347349443
H           -6.64615528633518       -5.58263698431830        4.17913633947899
O            2.15432689072289       -4.48440045242458       -2.26647117618325
H            2.30100153026719       -3.60886710308005       -1.86634928200960
H            2.78421312362391       -4.56041601834464       -3.00383830905501
O            4.23238220654058        3.61986390476192       -4.82334938115216
H            4.59011688836069        3.28237953220976       -3.96789156457938
H            4.15847739993181        2.85391372990263       -5.41486691435637
O            3.82666678159671        5.13268480120356       -1.48544981093248
H            3.20544167252146        5.09512763726998       -0.73629236193492
H            4.64925031827126        5.51459762759264       -1.11653740243170
O            2.51955271317672       -1.67075711178087       -4.13214352152603
H            1.75174542168304       -2.05609735548077       -3.66157908744787
H            2.16560497960078       -1.26450609493421       -4.94514095513132
O           -3.63730628090362        0.72622855317272       -5.81599153513431
H           -4.04131091512878       -0.15884830647161       -5.92214221201684
H           -3.00851326622921        0.68966402289804       -5.06988057816985
O           -0.48657670614503       -4.25381339103957       -7.28638288013055
H           -0.45405676009536       -3.28971105225053       -7.41750306859363
H            0.37010777393825       -4.50625245359098       -6.91843715126524
O            3.26272694046461        5.37827877630481        5.44320704208859
H            2.53602201845496        4.89464959541336        5.86211604517302
H            4.08580597654612        4.98636704957631        5.78018798267537
O            0.61167584979251        1.43493387218364       -4.76868491111443
H            1.07437471611636        2.19021733802240       -4.35001111206537
H           -0.05469869395443        1.84810118245331       -5.33752166037634
O            3.84499689208268        0.88328966127686        1.64089864803073
H            4.29025151821979        0.93917361929809        0.77286843359659
H            4.38981328363502        0.32742035362885        2.21261926114266
O           -1.35935973790492        2.67710394590613        6.01993147362625
H           -1.99691639861926        3.36918196042583        5.79751410627337
H           -1.22569741095802        2.17241107764767        5.19055587468458
O            2.71681597116140        1.69807442183869        4.80333501254132
H            2.94804072560282        1.10527559256118        5.56441030987157
H            3.56051577603014        2.07477408428368        4.48840378924214
O            0.89689816542228        0.06937994981780       -2.29295235449115
H            0.69838218024410        0.41614663960800       -3.17365038748644
H            1.45332433348801        0.76172715687114       -1.86663410733551
O           -4.95516729358200       -1.60106113159899       -5.85736871018295
H           -5.03707126516571       -2.44727386895894       -6.30311108186572
H           -4.80278931158758       -1.81931956986854       -4.90468204702307
O           -1.53610302348338       -1.68095254632868       -4.55948208162672
H           -0.81779537620542       -2.05851981248739       -3.97859315026104
H           -1.61362130839327       -0.74740781966995       -4.25968669711000
O           -1.80904350505592       -8.17637625634240       -0.66147324626337
H           -1.34081959691819       -7.38985359396762       -1.01940468484966
H           -1.50793989914652       -8.93688274010439       -1.15733878526631
O            7.82109596180849       -4.59329408381764        1.96689791753710
H            7.46450702295352       -5.22678894437685        1.31602294113620
H            8.69463102107622       -4.32212014609985        1.64063263981175
O            2.99716102844018       -8.06583659785537        0.91723861740486
H            3.77268334352202       -7.56375168199074        1.22944879698425
H            2.80744594117239       -7.75456650976357        0.01662552026604
O           -5.58472124596173        1.06788848104644        4.48893518131648
H           -4.67882281137257        0.70712325657992        4.41322510080761
H           -6.10583537466785        0.41637734424068        5.00207939471543
O            8.07057736585127        3.92130877341295        3.99844979744712
H            7.59631329979440        4.15571163726329        4.80414970469662
H            8.95456018956293        3.56747302881463        4.25111313991750
O            9.36993966339659        3.95387262789540       -1.94068809000398
H            8.61810558936349        4.45388959547469       -2.31693996851122
H            9.57618482357300        4.41709982199825       -1.08952367455772
O            9.62558057616410        4.94983051981590        0.46808804051101
H            9.35984303900320        4.14663727205035        0.97102856973447
H            9.02945716076108        5.63900297354895        0.76940408164477
O           -5.96921618825327        0.27349212330709       -1.88515025275321
H           -5.88406927995862        0.52840600034797       -2.82382786625395
H           -5.97975648735246       -0.71947507706147       -1.84606811099440
O            6.57310882632567        0.90649807732405       -6.79946363806658
H            5.60636009652143        0.95970176873042       -6.68615956415326
H            6.84773725611746        0.09033826530792       -6.34835051475838
O           -3.02083697589056        0.56613873591282        4.71972489198399
H           -3.05263595808337        0.68086800058207        5.68401562518968
H           -2.40391551468755       -0.18304573616466        4.56038528342059
O           -8.92439550063953        0.32556148943152        0.91880233279919
H           -8.53271505296307        1.19117530753508        0.69604939258810
H           -8.35534623655857       -0.03635011505174        1.63210544500323
O           -9.56640659281338        2.22510884005852       -4.08913580909148
H           -9.10956337963740        1.83752086778578       -3.30705613871357
H          -10.28436524723584        1.62576212710565       -4.29874877823013
O            8.57959482083586       -5.06905219896729       -1.39939631754816
H            9.48097853947918       -4.82201125827700       -1.60589897441536
H            8.19210167080232       -4.29188278491525       -0.94373670917596
O            7.46723370653652       -2.91245506103502       -0.22564578763029
H            6.56357502196032       -2.77203268139661        0.06705640770410
H            7.66347475644894       -2.23232654419956       -0.88694955264818
O           -4.90069988741229        2.82083327708576        6.36253891138814
H           -4.28424146072729        3.42498220321456        5.91051957818086
H           -5.18984798915708        2.17539663490113        5.67334263680349
O            0.44840761123366        3.22067020669804       -0.03090215525138
H            0.80366069427089        2.37102755237822        0.29353194697945
H           -0.06741576662294        3.61915634590490        0.68332567638940
O           -5.01196571844038        5.86248820791741        3.66673689944693
H           -5.88457296465583        5.55220795495905        3.38373693731444
H           -4.49368041940890        5.96077443828010        2.84809706661841
O           -1.90204028706475        4.80775084204672       -1.32100832930644
H           -0.96741916077348        4.94453672694090       -1.57616324221662
H           -1.91147234044805        4.10435457760724       -0.64158405603517
O           -0.37022971571061        7.10915825775167        0.55693487909837
H           -0.62166664926849        6.26402334662461        0.99446457127010
H           -1.15775351318487        7.40136188432387        0.08801381531231
O            2.31004014090352       -4.34257520727881        3.05771330940687
H            2.09456482999499       -4.48285441281880        4.00030174442318
H            3.26838544290630       -4.14763645438382        3.06859324546876
O            7.02260481068457       -2.07038639946196        2.51643419887619
H            7.32527233352636       -2.89765132014337        2.09849610734841
H            7.12625303865512       -1.34644045505550        1.87112593681863
O           -0.52767499978569       -1.53031933011129       -7.03130668725059
H           -0.93824567071148       -1.59423194209103       -6.14041102091709
H           -0.99190582585580       -0.78556835323314       -7.47644272142587
O           -7.68274249294793       -0.54120182602643        3.15214355694822
H           -8.52934813084550       -0.92777428429335        3.45345725415324
H           -7.66822551624180        0.37292828522267        3.48587751647558
O            3.88044487687824        0.52619126041365       -3.46874516529855
H            3.37256171191826       -0.30686333114378       -3.51179625307569
H            3.44042588335820        1.10166537252104       -2.79837436130540
O           -0.95573065297383        2.98944539075560       -6.41792033651906
H           -0.49081350528820        3.74989605768412       -6.81183642604167
H           -1.90204823057319        3.24210737037269       -6.32272373359968
O            6.16855420936529       -1.30195048865603        6.15343559941512
H            6.95978542911885       -1.76291024608129        5.79945022142920
H            5.53554617418409       -1.98124684482453        6.40685099679192
O            3.75638003132571       -2.49221940545439        5.77101004857878
H            4.09111626657142       -2.78190616201875        4.90499527120389
H            2.79672856969526       -2.64000752122540        5.74137008217147
O           -0.01392721999968       -5.13947847736560       -4.03839896178484
H           -0.83777208193493       -4.95001578932529       -4.52174459843354
H            0.71205928140518       -5.02217936209449       -4.67114933724365
O            7.00281449352050        4.97156072195595       -2.66500731876857
H            6.76458910249816        5.52886628462204       -1.90376796662533
H            6.59098756455865        5.41201865979938       -3.44149102178696
O            6.27695647718248       -3.71973910141313       -2.79670917437599
H            7.20018318459451       -3.54391544688161       -3.03994057944069
H            6.27849916767420       -4.52055520196729       -2.26381625085690
O            5.05014602751023       -0.59199032499095        3.74044987346043
H            5.69941935235643       -1.09502639455290        3.22906182715837
H            5.35044320749298       -0.69264881911512        4.66387140330290
O            0.99353198382100       -4.94025144558753        0.35854954739478
H            1.92200887011441       -4.69990701928553        0.17849447293313
H            1.03417696039346       -5.68220088101830        0.99090861465886
O            2.38013899195609       -0.65286818340011        3.44056560942261
H            2.21009978781670        0.20064736340436        3.86880997739394
H            3.33670866876330       -0.79462335487424        3.58809897153063
O            9.33791247334176        0.03986479158350        0.03156670874747
H            8.96492808934946       -0.39744499154688       -0.76051489547562
H            9.95257089010854        0.73193966000647       -0.28061603772445
O           -6.04693765213140       -4.29802588428181        5.56310624976324
H           -6.93834723998159       -3.92103339370053        5.49012542262279
H           -5.51426197331981       -3.55647768302987        5.90974471710169
O           -2.18282415769287       -3.14650644911857        6.57744456613971
H           -3.10118119857729       -2.84105029106307        6.43258802882057
H           -1.81456867628489       -2.45536108440715        7.15778465335742
O          -10.30385275283871        3.16323221719335       -0.35443620378167
H           -9.83817062115005        3.63226539314412       -1.06538596450676
H          -10.79088928498018        2.44226946229674       -0.76438037851389
O           -4.02164134774571       -2.12056558528019       -3.45286768528688
H           -4.04522760883742       -3.05547990116662       -3.17507139469072
H           -3.12184404992961       -1.97285561225533       -3.77974387326997
O           -0.59208594925079        5.15425928519239        4.30859421477996
H           -1.50105937076372        5.07145927389249        4.64017272349410
H           -0.01746310743693        4.63270581299626        4.89838150338752
O           -7.35856784632071        4.77601835731057        2.66983916047014
H           -7.50378894237991        5.14879064518088        1.78456839710081
H           -8.23103818496036        4.47705160448053        2.95316702103360
O           -6.14222863704849       -2.26088670930270       -1.41916842895927
H           -6.07910908335317       -2.72948955020525       -2.26894676090675
H           -5.32588313045032       -2.41216989303874       -0.89841086732126
O           -7.61821647427703        2.59404655621656        0.37839618595357
H           -6.98337982389604        2.47295244327238        1.10462168466490
H           -7.81547089783338        3.54638862372649        0.32948667235835
O           -3.03654844744910        1.15686444326621        7.41755622393027
H           -2.32561999319982        1.76756839004056        7.13373588699853
H           -3.85409782053689        1.68473664411949        7.34948603863506
O            6.84644454517598       -4.73578982577961        4.48115597296298
H            7.39756948809902       -4.09291644836760        4.94488553760106
H            7.29090388762994       -4.86515341423607        3.62199203348102
O            4.77263733733814       -2.12096902681203        0.75458737882166
H            3.89073731928829       -1.83586948508042        1.04308800783153
H            4.89331812230338       -1.76515345861596       -0.15052371618072
O           -8.69078915274950       -3.87605627980058        2.69084417567872
H           -9.54042636709794       -3.88425610810297        2.24047183104975
H           -8.12939794843901       -3.26687471465965        2.14770388323279
O            2.11733174828973        5.98046807192249        0.50671282635468
H            2.16565661025728        5.61212657069763        1.40368417659573
H            1.28280295944831        6.47016507618897        0.48598946216179
O           -4.94836076665230       -4.53813563209922       -5.66671267842516
H           -5.20660657045776       -5.44338205150810       -5.48020932748308
H           -3.97733605812086       -4.49972404405318       -5.57496900919779
O          -12.29563107745271       -0.67030837697995        0.23683525090208
H          -13.17121682592650       -0.80236178141800       -0.12357294710667
H          -11.77669375687924       -0.18318339273301       -0.45758685456549
O           -6.91840790967750       -0.68387866542417        6.02771391958461
H           -7.72426833080019       -0.16389588866473        6.21475077739287
H           -7.26938461279025       -1.48732801674282        5.60572598740261
O           -8.33142921710033       -2.87484787817005        5.11888766470365
H           -8.51290941805274       -3.20075041520258        4.20783564017202
H           -9.18202341948358       -2.62760887946245        5.48374960822159
O           -4.82134542171793       -5.10800462684259       -0.37821520091787
H           -4.72780375420652       -6.07493407937861       -0.49080237315893
H           -4.31754581583269       -4.71958342768457       -1.10545295001946
O           -6.59038284256474       -3.33906012765506       -3.82234000425247
H           -6.04738536195817       -3.73076357677736       -4.52441026143681
H           -7.21056628630563       -4.03910911994913       -3.51476436198206
O            9.66472280938875        2.58441818251630       -4.28154744122140
H            8.79066806616415        2.79741641859126       -4.65824163153332
H            9.73571418901692        3.12120939647882       -3.47772404313521
O           -0.50848846989366       -6.03037678011590       -1.54871609651980
H           -0.25578008654087       -5.76900514744088       -2.44855058160108
H            0.15035740224254       -5.62323810072947       -0.94260950017858
O           -5.22057560179995       -4.00302287771147        2.04811866935688
H           -5.74876482062733       -4.70386492808697        2.48210850441959
H           -4.88630081626513       -4.39581495693456        1.22035391095903
O           11.26189259619846        1.59597339456710        2.00381882606190
H           11.55243522284136        1.73017942033625        1.09345793115906
H           11.21122459769532        0.64105837546096        2.15311391475516
O           -4.57737008983234       -7.72016703346714       -0.93135258011097
H           -3.63236221157836       -7.92991628211248       -0.86168903123835
H           -4.94037668493402       -7.89787910035208       -0.04076214745625
O           -7.38956640306857       -0.24327127542509       -6.20435225274869
H           -6.53061415749857       -0.69088490504203       -6.22462463408252
H           -7.76059905266736       -0.46251887042288       -5.33791330230453
O            1.12078970972200        7.90917385411785       -1.72183678206116
H            0.84336409975595        8.06759093702183       -0.81327327891653
H            0.35262396914058        8.11350663966550       -2.27589964546194
O            3.69650477675817       -4.52951256229791        0.25194404938454
H            4.11419780135474       -3.66510771703013        0.43697985982608
H            4.00730795068946       -5.13245134439756        0.95757573985275
O           -0.46336294235027        2.45917971451941       -2.41323564560274
H           -0.14715765159374        2.73603377499876       -1.53192651434917
H           -0.64876622902175        3.27009920357684       -2.90881649294595
O            3.15490791710095       -2.43871315547491       -7.32429573622856
H            2.69924150686857       -1.62110306158586       -7.05835405570557
H            3.07708986519474       -2.50955460035526       -8.27516173504039
O           -5.99392508415686        4.63929655778285       -5.36751548382172
H           -6.63829878406958        4.03161549592838       -5.75982562665083
H           -5.12089378261081        4.30882753518770       -5.64496548074946
O           -8.14799662282747        2.01256558639025        3.90445230163149
H           -8.77237366624190        2.45674080797494        3.29887607806375
H           -7.79615436527231        2.70277886932706        4.49786225557229
O           11.11650268107763        1.82535257302041       -0.84800509168742
H           10.75278585153276        2.58178192567502       -1.32175616217071
H           11.47791712535340        1.19913420451023       -1.49626397046069
O           -3.55229580605901        5.83365577245895        1.34749815179894
H           -4.16173844948949        5.41334742235837        0.69836059191647
H           -3.29481216957660        6.66511260836664        0.93459092281375
O           10.21628375886561       -3.56865396697776        1.02683168279706
H           10.13917745225695       -3.20854317301898        0.11806174091770
H           10.99882877630359       -4.11904920923713        1.03551145748830
O            1.32669503793006       -6.70165617239514        2.34453325000179
H            1.96817111587861       -7.32771509238435        1.91526157280537
H            1.84339277724460       -5.92245998505671        2.65635439963465
O           10.30838547348604       -1.05136474411166        2.22550860903827
H            9.89586395490006       -0.71124864102530        1.40402288307538
H           10.33829889383529       -2.00915848679088        2.09703562627233
O           -3.70553178806023       -4.70099947649182       -2.84570066783367
H           -2.98852541418942       -4.93085778046651       -3.44026627177935
H           -4.45471717482315       -5.30449564459836       -3.06192792156539
O            6.51035008837555        0.83716239477571       -3.35287227114473
H            5.53400835515006        0.74048481109648       -3.34855243351088
H            6.70146140184170        1.62351235179900       -3.89891320044490
O           -4.56273671240282       -2.06242569402356        5.98857560390294
H           -4.68974672359710       -1.84913149361465        5.03061526856078
H           -5.16798325147115       -1.46789695605931        6.44771257945807
O           10.37145271605518       -2.72744702510511       -1.55801957346321
H           10.88303235525340       -1.91430621565913       -1.67375199459865
H            9.71642618765585       -2.73285620576971       -2.27238743612148
O            8.70518308588518       -2.99034394320000       -3.87323323039636
H            8.96365147136574       -3.63536297632321       -4.52995858708732
H            8.17518970039616       -2.29837065958341       -4.33474881015136
O            3.63048970602451        0.10399088366045        6.63817449000102
H            3.69255428135296       -0.81844834548502        6.31819945715490
H            4.52450523892093        0.47494718601725        6.58822149242790
O            8.23594012860059       -2.36647477221417        4.89178160125387
H            7.85066843247549       -2.26427590049881        3.99433056616254
H            8.81788618877263       -1.59480737373620        4.98354383325006
O           -2.89980822106019       -5.80307753604044        1.94489021280421
H           -3.11854302118063       -5.47160354946080        2.82913929842911
H           -2.27136574931589       -6.54755904305877        2.06064359377304
O           -9.34367182828925        0.42430951225184        5.77614583761658
H           -9.87395000365073       -0.18089156168226        5.24920260694664
H           -9.02956358013081        1.11069554854762        5.15624408548239
O           -6.09854080295254        0.01548275833448        0.90735301559302
H           -5.17518297202596       -0.00016165680428        1.20295938722198
H           -6.08839363216459        0.05407796191999       -0.05256578842460
O          -10.80216490920097       -1.05166428711864       -3.76768442619659
H           -9.84184181560219       -1.01010043379556       -3.93910468963473
H          -10.94135816033897       -1.94084276573343       -3.41650806619228
O            5.50810723266795        5.98908192440564       -4.62484388286894
H            4.85878214230789        6.59833671655152       -4.24805590254212
H            4.98881403549682        5.19909687955383       -4.85580752224098
O            1.97410949221795       -4.51045244059864       -5.84351275402236
H            2.70904720316129       -4.87025356758567       -5.32390848150707
H            2.35891806037311       -3.76810204074002       -6.33635707735387
O          -10.98588451808599        0.58661573827437       -1.65794265225901
H          -11.06651868967349        0.01926749573094       -2.45503647443608
H          -10.02549414392218        0.72714049290635       -1.56214782576071
O           -7.20642870288143        3.98067088763951        5.50599367981226
H           -6.46480728634174        3.62392177502952        6.02982217345453
H           -6.95139286222000        4.86163393145398        5.22833747998344
O           -5.12241693111018       -7.45395751758189        1.66139807020471
H           -5.85100438121266       -7.06026168237079        2.15408080790624
H           -4.36367784273224       -6.85211955998087        1.76786399066236
O           10.30888273138508        2.60653428506552        4.52751430928283
H           10.88132015801122        2.55464694019912        3.75427338068957
H            9.97024735319486        1.69954243831181        4.65511954220962
O           -2.87977403414857        6.20492888841152       -4.66243071992979
H           -2.22011594632726        5.51541812143983       -4.39498157917402
H           -3.25332700741900        5.90973330661100       -5.49390420648554
O          -11.16713147087437        0.85122908179056        2.26671223642752
H          -10.35568392822540        0.75134262738449        1.71574446587760
H          -11.86471011592581        0.47276393848984        1.71713590142167
O           -8.39812013140701        1.33830384113975       -1.86617162029387
H           -7.55873593040868        0.84262254714457       -1.93351853463942
H           -8.24569387370164        1.98645881427713       -1.15981892718437
O           -1.07833366509304        4.78158137996052        1.69297478758622
H           -0.87211513393683        4.82293072751395        2.64434804959340
H           -2.03199041343901        4.97000075644673        1.62054670476437
O            6.91390286278044       -6.44557230788245        0.19949831987966
H            6.16871725001218       -6.34935176096560       -0.42365480239796
H            7.69241806265544       -6.28649673289166       -0.35636943769793
O            0.85767677134959        6.45345291619127       -4.56336417929246
H            1.75062550985266        6.59080557868149       -4.17125389067606
H            0.28684465881226        7.14195430639473       -4.19796135320144
O           -1.19748859852714       -7.82128384933379        2.03418380332356
H           -0.28729172997829       -7.49605145520832        2.00768338813394
H           -1.41764824353703       -8.12717711695112        1.14043496213124
O          -10.48101623500865       -2.54298492242165        1.05602299210921
H          -11.21431491592091       -1.95080048744954        0.81315021706650
H           -9.74158118393710       -2.26231565391745        0.49526494784316
O            2.11510382269437       -5.16281005856339        5.62040893542523
H            1.55540854280145       -5.94578630077801        5.64063649239393
H            1.81241367149563       -4.58840074540252        6.35269482097877
O            4.47406381858583       -6.25072141239005        4.60584422112107
H            5.29349151149544       -5.84243409398068        4.90845052276617
H            3.73900554601884       -5.81882944397498        5.07002443904525
O            0.26687667587119       -2.64913778125737       -3.02651476018389
H            0.10372076087198       -2.48857196386284       -2.06506231587325
H            0.32984254546694       -3.61432418843455       -3.15742321835531
O            9.57556634581063        0.01598105947270       -4.03433577803149
H            9.24950717936252       -0.31207530994729       -4.87434064582628
H            9.60888059270914        1.01211735077628       -4.11706362332035
O           -7.72213016948659        5.29094188604240        0.04949108976947
H           -8.26521278666496        5.32181562865431       -0.74520909079369
H           -6.78437068054643        5.26467779564370       -0.24094375256587
O           -8.76897482753702        4.33293398334755       -2.36134078493959
H           -9.23425735647216        3.93286473697916       -3.10499796940519
H           -7.82972211878159        4.07761323615381       -2.47941036689859
O            6.97304215113925        1.55697538783643        3.38586291573801
H            6.94602850800197        1.12435806628183        2.49925409470592
H            7.51910636827108        2.36701051036680        3.29652842399097
O            9.13214388807714        0.13898619113530        4.36023454469067
H            8.31735558493919        0.54831638126294        4.01430357018306
H            9.58833697555038       -0.25773237596464        3.59314006543787
O           -7.49932728695197       -4.77197253954610       -0.27514599130679
H           -6.54200355003886       -4.96084171680145       -0.29728525034862
H           -7.56216743536319       -3.86369764048569        0.05187906877789
O            1.14898633347849        3.64340376804733        5.85709543242751
H            1.68401930498758        2.90371968270121        5.50802370834503
H            0.36095239403975        3.23013742863236        6.24405879752853
O           -7.58828362663333        2.39999856149395       -5.90676158967468
H           -7.61724292198293        1.52284593553282       -6.33622975865418
H           -8.38802829208015        2.43536016109256       -5.34417446130304
O           -5.70503870439946        2.61963366120617        2.31586391138896
H           -6.17861260881843        3.43080347081433        2.58190040684933
H           -5.86625300856889        1.96953053538263        3.03192635853842
O          -10.32048539172894       -3.35738682542087       -2.15447125132384
H           -9.72772888823777       -2.69989865650760       -1.74064177199315
H          -10.82524654694876       -3.73911895418026       -1.43493509412304
O            4.71651667728148       -6.27161055445685        1.97677339268573
H            5.63180667041143       -6.46509727675830        1.75112766859019
H            4.62969105718522       -6.29562595380879        2.95923672200816
O            6.07379657650773        6.22633121206047       -0.46408073951229
H            6.57375778279983        5.83018566869462        0.26426250120609
H            5.49693425655413        6.89660188126170       -0.02232611093520
O            4.92664110270890       -5.94488745647912       -1.61056697728206
H            4.44505199168839       -5.31439822250666       -1.01956580790763
H            4.31164824539558       -6.68376677745798       -1.70194624478216
O           -9.88408242428658        3.33688466633947        2.34225039321247
H          -10.62352858531687        2.76263672351670        2.57912752342826
H           -9.92581649093690        3.37557614629946        1.36840488623451
O            7.09361028875262        2.82012472178040       -5.07832618708835
H            6.96521284539548        2.20664545770960       -5.84635975055480
H            6.63818126097609        3.64131257577936       -5.27638223934365
O            1.51918012149561       -1.01118555861731        8.19549281542986
H            1.34480658502802       -0.50982535894237        7.37610269639841
H            2.44278226006949       -0.84223693772549        8.39002664614661
O            6.94077632824765        0.19411326378422        1.12019295298042
H            6.31329004650871        0.50959699537543        0.44245124407674
H            7.82847983031319        0.25755932000616        0.71927049132123
O            4.76829690633846       -3.46115520105099        3.36998483239609
H            5.49143739699803       -3.97424626129097        3.78856313755349
H            5.17885073562873       -2.96042925250509        2.65362213360932
O           -5.77551821959340        1.42921880659450       -4.23534218273516
H           -6.48993051656631        1.72214910973791       -4.84640435484062
H           -5.02393559655297        1.20421885328029       -4.80364004255172
O            7.16544655143680        5.27220780365577        1.87646946611770
H            6.37265592153691        5.58831545109373        2.34621800908157
H            7.68081589017244        4.79853322646772        2.55782978345621
O           -4.77919328183703        6.39849768374623       -2.80086609062658
H           -4.07448269611630        6.29014682598268       -3.47975021373652
H           -5.60080546066055        6.47510898008368       -3.28707987574113
O           -3.17991152570943        4.34911102555859        4.84046950899681
H           -3.09871375788590        3.74231462426995        4.05859869486114
H           -3.84319405174231        5.01425250633275        4.55735061269781
O           -5.14977125188227        4.94462559483981       -0.54815326647939
H           -5.09001602017619        3.97553727067570       -0.67046205224594
H           -4.99914107677577        5.37014384538078       -1.41197861386669
O            3.99199410599047        1.17865209429544       -6.01965395270988
H            3.95623763893255        0.90457935579892       -5.07110312372715
H            3.22914471177195        0.76515814671246       -6.43590027578747
O            1.51613259409284        2.76125694161155        2.59919639847867
H            2.04984178867019        2.37121155465376        3.30182456888826
H            1.52496537692642        3.72645123062737        2.76681343318284
O           -2.76191232598204        7.25600525801480       -1.01188644117941
H           -3.61266638791148        7.31011620003939       -1.46262992120539
H           -2.49048848645765        6.30685065438679       -1.11026887100216
O           -1.72308849953833        0.69969970842218       -7.78315281851526
H           -2.54854653096157        0.69525231940952       -7.27021472665620
H           -1.26008834422722        1.50263585830856       -7.50031101573340
O           11.67016646267055       -0.36101505957491       -2.44214430582764
H           12.48361125273709       -0.48015198268652       -2.93140475821942
H           10.94891622218486       -0.26109409649096       -3.10072095866195
O            4.82935574681869       -2.54594517543125       -5.13597273818826
H            4.50901545416361       -2.60690979952845       -6.04469400861803
H            4.06343018745279       -2.20813322807479       -4.62689348594365
O           -3.49854222663193        3.49291192355782       -5.75018182059227
H           -3.75825703796278        2.58513685089843       -5.95462657399656
H           -3.39575660801548        3.51280355480435       -4.75850013104284
O           -6.17776568763918        3.72452565088779       -2.88887166659103
H           -6.16892052976992        4.20254849423083       -3.74994095610609
H           -6.12392544079395        2.78819523276696       -3.14759477856337
O            4.74583078922351        5.58813440477894        2.99151515354548
H            4.46310235081004        5.85802075047944        3.87018544995586
H            4.58809049372121        4.62746177991754        2.93704748809196
O            8.03774342633290       -0.95916630980041       -2.03445115346356
H            8.61255425413325       -0.68612498754864       -2.77430110651495
H            7.19486970454553       -0.51402566074334       -2.18645191115459
O           -8.69520118471227       -1.51896348148452       -0.97066650015380
H           -8.77522667498432       -0.76000730694770       -0.34695235515404
H           -7.78984138380098       -1.86753374042983       -0.86916433763198
O           -8.08359831436350       -1.08679079971602       -3.63988141027405
H           -8.29051181522027       -1.10556927203341       -2.68874264124678
H           -7.56158204544267       -1.89465278009577       -3.80093060110631
O           -8.20510484699797       -5.13273597886871       -2.76455104026594
H           -7.97683464140118       -5.05051918304768       -1.80142452955596
H           -9.07151056912128       -4.70746711018931       -2.83359102761597
O            2.40358096638919       -7.02730570412946       -1.56858056967026
H            1.77519113989469       -7.48957026656772       -2.12082211595195
H            2.24759890933037       -6.06424728577050       -1.72318594244091
O           -1.49952878065704       -1.53135964076366        4.40754015339032
H           -2.03601400958359       -1.94850299080704        3.69783963628218
H           -1.64291148225226       -2.06876746636894        5.19685976303141
O            7.11498517585308       -1.16631812566172       -5.03377370528946
H            6.30185823653059       -1.71443933892511       -5.06343166897588
H            6.92685467344547       -0.47223208990285       -4.36123210214206
O            6.07257693249686        1.37349732472149        6.01118426136707
H            6.54804850076527        0.64688516628839        6.42637291292194
H            6.34599138750249        1.35056205838231        5.07790104708004
O           -0.63260741891656       -4.41397938129142        4.64085768531598
H           -1.13789107752096       -4.13741460706774        5.41663046567151
H           -0.40792257311680       -5.35898494018035        4.74335675335750
 
 Bond Distances (Angstroems)
 ---------------------------
H1-C2=1.0870         C2-H1=1.0870         C2-H3=1.0855         C2-C4=1.5189         C2-O7=1.4249         H3-C2=1.0855         
C4-C2=1.5189         C4-H5=1.0862         C4-H6=1.0868         C4-N9=1.4673         H5-C4=1.0862         H6-C4=1.0868         
O7-C2=1.4249         O7-H8=0.9902         H8-O7=0.9902         N9-C4=1.4673         N9-H10=1.0482        N9-H11=1.0295        
N9-H12=1.0469        H10-N9=1.0482        H11-N9=1.0295        H12-N9=1.0469        O13-H14=0.9642       O13-H15=0.9746       
H14-O13=0.9642       H15-O13=0.9746       O16-H17=0.9794       O16-H18=0.9809       H17-O16=0.9794       H18-O16=0.9809       
O19-H20=0.9717       O19-H21=0.9686       H20-O19=0.9717       H21-O19=0.9686       O22-H23=0.9766       O22-H24=0.9759       
H23-O22=0.9766       H24-O22=0.9759       O25-H26=0.9716       O25-H27=0.9691       H26-O25=0.9716       H27-O25=0.9691       
O28-H29=0.9705       O28-H30=0.9893       H29-O28=0.9705       H30-O28=0.9893       O31-H32=0.9676       O31-H33=0.9672       
H32-O31=0.9676       H33-O31=0.9672       O34-H35=0.9671       O34-H36=0.9776       H35-O34=0.9671       H36-O34=0.9776       
O37-H38=0.9728       O37-H39=0.9751       H38-O37=0.9728       H39-O37=0.9751       O40-H41=0.9637       O40-H42=0.9737       
H41-O40=0.9637       H42-O40=0.9737       O43-H44=0.9745       O43-H45=0.9726       H44-O43=0.9745       H45-O43=0.9726       
O46-H47=0.9767       O46-H48=0.9677       H47-O46=0.9767       H48-O46=0.9677       O49-H50=0.9710       O49-H51=0.9655       
H50-O49=0.9710       H51-O49=0.9655       O52-H53=0.9828       O52-H54=0.9689       H53-O52=0.9828       H54-O52=0.9689       
O55-H56=0.9825       O55-H57=0.9755       H56-O55=0.9825       H57-O55=0.9755       O58-H59=0.9810       O58-H60=0.9778       
H59-O58=0.9810       H60-O58=0.9778       O61-H62=0.9588       O61-H63=0.9715       H62-O61=0.9588       H63-O61=0.9715       
O64-H65=0.9679       O64-H66=0.9732       H65-O64=0.9679       H66-O64=0.9732       O67-H68=0.9701       O67-H69=0.9720       
H68-O67=0.9701       H69-O67=0.9720       O70-H71=0.9730       O70-H72=0.9607       H71-O70=0.9730       H72-O70=0.9607       
O73-H74=0.9836       O73-H75=0.9810       H74-O73=0.9836       H75-O73=0.9810       O76-H77=0.9686       O76-H78=0.9770       
H77-O76=0.9686       H78-O76=0.9770       O79-H80=0.9783       O79-H81=0.9740       H80-O79=0.9783       H81-O79=0.9740       
O82-H83=0.9682       O82-H84=0.9700       H83-O82=0.9682       H84-O82=0.9700       O85-H86=0.9759       O85-H87=0.9689       
H86-O85=0.9759       H87-O85=0.9689       O88-H89=0.9743       O88-H90=0.9648       H89-O88=0.9743       H90-O88=0.9648       
O91-H92=0.9699       O91-H93=0.9755       H92-O91=0.9699       H93-O91=0.9755       O94-H95=0.9763       O94-H96=0.9850       
H95-O94=0.9763       H96-O94=0.9850       O97-H98=0.9580       O97-H99=0.9770       H98-O97=0.9580       H99-O97=0.9770       
O100-H101=0.9756     O100-H102=0.9695     H101-O100=0.9756     H102-O100=0.9695     O103-H104=0.9902     O103-H105=0.9891     
H104-O103=0.9902     H105-O103=0.9891     O106-H107=0.9636     O106-H108=0.9886     H107-O106=0.9636     H108-O106=0.9886     
O109-H110=0.9765     O109-H111=0.9558     H110-O109=0.9765     H111-O109=0.9558     O112-H113=0.9749     O112-H114=0.9695     
H113-O112=0.9749     H114-O112=0.9695     O115-H116=0.9783     O115-H117=0.9704     H116-O115=0.9783     H117-O115=0.9704     
O118-H119=0.9824     O118-H120=0.9728     H119-O118=0.9824     H120-O118=0.9728     O121-H122=0.9808     O121-H123=0.9812     
H122-O121=0.9808     H123-O121=0.9812     O124-H125=0.9665     O124-H126=0.9841     H125-O124=0.9665     H126-O124=0.9841     
O127-H128=0.9730     O127-H129=0.9768     H128-O127=0.9730     H129-O127=0.9768     O130-H131=0.9671     O130-H132=0.9771     
H131-O130=0.9671     H132-O130=0.9771     O133-H134=0.9681     O133-H135=0.9793     H134-O133=0.9681     H135-O133=0.9793     
O136-H137=0.9663     O136-H138=0.9681     H137-O136=0.9663     H138-O136=0.9681     O139-H140=0.9676     O139-H141=0.9691     
H140-O139=0.9676     H141-O139=0.9691     O142-H143=0.9661     O142-H144=0.9756     H143-O142=0.9661     H144-O142=0.9756     
O145-H146=0.9755     O145-H147=0.9678     H146-O145=0.9755     H147-O145=0.9678     O148-H149=0.9806     O148-H150=0.9585     
H149-O148=0.9806     H150-O148=0.9585     O151-H152=0.9752     O151-H153=0.9646     H152-O151=0.9752     H153-O151=0.9646     
O154-H155=0.9737     O154-H156=0.9728     H155-O154=0.9737     H156-O154=0.9728     O157-H158=0.9868     O157-H159=0.9706     
H158-O157=0.9868     H159-O157=0.9706     O160-H161=0.9739     O160-H162=0.9791     H161-O160=0.9739     H162-O160=0.9791     
O163-H164=0.9795     O163-H165=0.9753     H164-O163=0.9795     H165-O163=0.9753     O166-H167=0.9787     O166-H168=0.9764     
H167-O166=0.9787     H168-O166=0.9764     O169-H170=0.9735     O169-H171=0.9659     H170-O169=0.9735     H171-O169=0.9659     
O172-H173=0.9682     O172-H174=0.9719     H173-O172=0.9682     H174-O172=0.9719     O175-H176=0.9797     O175-H177=0.9687     
H176-O175=0.9797     H177-O175=0.9687     O178-H179=0.9772     O178-H180=0.9658     H179-O178=0.9772     H180-O178=0.9658     
O181-H182=0.9669     O181-H183=0.9800     H182-O181=0.9669     H183-O181=0.9800     O184-H185=0.9920     O184-H186=0.9762     
H185-O184=0.9920     H186-O184=0.9762     O187-H188=0.9671     O187-H189=0.9852     H188-O187=0.9671     H189-O187=0.9852     
O190-H191=0.9599     O190-H192=0.9892     H191-O190=0.9599     H192-O190=0.9892     O193-H194=0.9980     O193-H195=0.9836     
H194-O193=0.9980     H195-O193=0.9836     O196-H197=0.9828     O196-H198=0.9565     H197-O196=0.9828     H198-O196=0.9565     
O199-H200=0.9758     O199-H201=0.9711     H200-O199=0.9758     H201-O199=0.9711     O202-H203=0.9752     O202-H204=0.9716     
H203-O202=0.9752     H204-O202=0.9716     O205-H206=0.9780     O205-H207=0.9795     H206-O205=0.9780     H207-O205=0.9795     
O208-H209=0.9639     O208-H210=0.9851     H209-O208=0.9639     H210-O208=0.9851     O211-H212=0.9782     O211-H213=0.9908     
H212-O211=0.9782     H213-O211=0.9908     O214-H215=0.9842     O214-H216=0.9597     H215-O214=0.9842     H216-O214=0.9597     
O217-H218=0.9764     O217-H219=0.9938     H218-O217=0.9764     H219-O217=0.9938     O220-H221=0.9748     O220-H222=0.9721     
H221-O220=0.9748     H222-O220=0.9721     O223-H224=0.9716     O223-H225=0.9835     H224-O223=0.9716     H225-O223=0.9835     
O226-H227=0.9759     O226-H228=0.9816     H227-O226=0.9759     H228-O226=0.9816     O229-H230=0.9852     O229-H231=0.9584     
H230-O229=0.9852     H231-O229=0.9584     O232-H233=0.9572     O232-H234=0.9807     H233-O232=0.9572     H234-O232=0.9807     
O235-H236=0.9602     O235-H237=0.9687     H236-O235=0.9602     H237-O235=0.9687     O238-H239=0.9743     O238-H240=0.9875     
H239-O238=0.9743     H240-O238=0.9875     O241-H242=0.9764     O241-H243=0.9669     H242-O241=0.9764     H243-O241=0.9669     
O244-H245=0.9684     O244-H246=0.9739     H245-O244=0.9684     H246-O244=0.9739     O247-H248=0.9784     O247-H249=0.9780     
H248-O247=0.9784     H249-O247=0.9780     O250-H251=0.9843     O250-H252=0.9620     H251-O250=0.9843     H252-O250=0.9620     
O253-H254=0.9770     O253-H255=0.9780     H254-O253=0.9770     H255-O253=0.9780     O256-H257=0.9750     O256-H258=0.9753     
H257-O256=0.9750     H258-O256=0.9753     O259-H260=0.9830     O259-H261=0.9840     H260-O259=0.9830     H261-O259=0.9840     
O262-H263=0.9782     O262-H264=0.9733     H263-O262=0.9782     H264-O262=0.9733     O265-H266=0.9766     O265-H267=0.9870     
H266-O265=0.9766     H267-O265=0.9870     O268-H269=0.9745     O268-H270=0.9841     H269-O268=0.9745     H270-O268=0.9841     
O271-H272=0.9818     O271-H273=0.9625     H272-O271=0.9818     H273-O271=0.9625     O274-H275=0.9726     O274-H276=0.9714     
H275-O274=0.9726     H276-O274=0.9714     O277-H278=0.9738     O277-H279=0.9701     H278-O277=0.9738     H279-O277=0.9701     
O280-H281=0.9731     O280-H282=0.9831     H281-O280=0.9731     H282-O280=0.9831     O283-H284=0.9708     O283-H285=0.9619     
H284-O283=0.9708     H285-O283=0.9619     O286-H287=0.9675     O286-H288=0.9762     H287-O286=0.9675     H288-O286=0.9762     
O289-H290=0.9758     O289-H291=0.9757     H290-O289=0.9758     H291-O289=0.9757     O292-H293=0.9699     O292-H294=0.9782     
H293-O292=0.9699     H294-O292=0.9782     O295-H296=0.9786     O295-H297=0.9768     H296-O295=0.9786     H297-O295=0.9768     
O298-H299=0.9706     O298-H300=0.9766     H299-O298=0.9706     H300-O298=0.9766     O301-H302=0.9786     O301-H303=0.9747     
H302-O301=0.9786     H303-O301=0.9747     O304-H305=0.9707     O304-H306=0.9618     H305-O304=0.9707     H306-O304=0.9618     
O307-H308=0.9756     O307-H309=0.9687     H308-O307=0.9756     H309-O307=0.9687     O310-H311=0.9711     O310-H312=0.9747     
H311-O310=0.9711     H312-O310=0.9747     O313-H314=0.9715     O313-H315=0.9648     H314-O313=0.9715     H315-O313=0.9648     
O316-H317=0.9725     O316-H318=0.9800     H317-O316=0.9725     H318-O316=0.9800     O319-H320=0.9722     O319-H321=0.9738     
H320-O319=0.9722     H321-O319=0.9738     O322-H323=0.9793     O322-H324=0.9755     H323-O322=0.9793     H324-O322=0.9755     
O325-H326=0.9654     O325-H327=0.9759     H326-O325=0.9654     H327-O325=0.9759     O328-H329=0.9707     O328-H330=0.9800     
H329-O328=0.9707     H330-O328=0.9800     O331-H332=0.9617     O331-H333=0.9906     H332-O331=0.9617     H333-O331=0.9906     
O334-H335=0.9709     O334-H336=0.9678     H335-O334=0.9709     H336-O334=0.9678     O337-H338=0.9597     O337-H339=0.9761     
H338-O337=0.9597     H339-O337=0.9761     O340-H341=0.9560     O340-H342=0.9944     H341-O340=0.9560     H342-O340=0.9944     
O343-H344=0.9771     O343-H345=0.9730     H344-O343=0.9771     H345-O343=0.9730     O346-H347=0.9845     O346-H348=0.9580     
H347-O346=0.9845     H348-O346=0.9580     O349-H350=0.9779     O349-H351=0.9662     H350-O349=0.9779     H351-O349=0.9662     
O352-H353=0.9701     O352-H354=0.9845     H353-O352=0.9701     H354-O352=0.9845     O355-H356=0.9753     O355-H357=0.9692     
H356-O355=0.9753     H357-O355=0.9692     O358-H359=0.9705     O358-H360=0.9835     H359-O358=0.9705     H360-O358=0.9835     
O361-H362=0.9790     O361-H363=0.9753     H362-O361=0.9790     H363-O361=0.9753     O364-H365=0.9650     O364-H366=0.9678     
H365-O364=0.9650     H366-O364=0.9678     O367-H368=0.9705     O367-H369=0.9780     H368-O367=0.9705     H369-O367=0.9780     
O370-H371=0.9688     O370-H372=0.9677     H371-O370=0.9688     H372-O370=0.9677     O373-H374=0.9631     O373-H375=0.9689     
H374-O373=0.9631     H375-O373=0.9689     O376-H377=0.9777     O376-H378=0.9788     H377-O376=0.9777     H378-O376=0.9788     
O379-H380=0.9764     O379-H381=0.9683     H380-O379=0.9764     H381-O379=0.9683     O382-H383=0.9731     O382-H384=0.9567     
H383-O382=0.9731     H384-O382=0.9567     O385-H386=0.9687     O385-H387=0.9738     H386-O385=0.9687     H387-O385=0.9738     
O388-H389=0.9767     O388-H390=0.9759     H389-O388=0.9767     H390-O388=0.9759     O391-H392=0.9638     O391-H393=0.9711     
H392-O391=0.9638     H393-O391=0.9711     O394-H395=0.9846     O394-H396=0.9634     H395-O394=0.9846     H396-O394=0.9634     
O397-H398=0.9806     O397-H399=0.9568     H398-O397=0.9806     H399-O397=0.9568     O400-H401=0.9938     O400-H402=0.9856     
H401-O400=0.9938     H402-O400=0.9856     O403-H404=0.9801     O403-H405=0.9668     H404-O403=0.9801     H405-O403=0.9668     
O406-H407=0.9594     O406-H408=0.9860     H407-O406=0.9594     H408-O406=0.9860     O409-H410=0.9811     O409-H411=0.9762     
H410-O409=0.9811     H411-O409=0.9762     O412-H413=0.9896     O412-H414=0.9647     H413-O412=0.9896     H414-O412=0.9647     
O415-H416=0.9676     O415-H417=0.9692     H416-O415=0.9676     H417-O415=0.9692     O418-H419=0.9561     O418-H420=0.9863     
H419-O418=0.9561     H420-O418=0.9863     O421-H422=0.9783     O421-H423=0.9692     H422-O421=0.9783     H423-O421=0.9692     
O424-H425=0.9820     O424-H426=0.9709     H425-O424=0.9820     H426-O424=0.9709     O427-H428=0.9693     O427-H429=0.9811     
H428-O427=0.9693     H429-O427=0.9811     O430-H431=0.9618     O430-H432=0.9768     H431-O430=0.9618     H432-O430=0.9768     
O433-H434=0.9696     O433-H435=0.9607     H434-O433=0.9696     H435-O433=0.9607     O436-H437=0.9764     O436-H438=0.9661     
H437-O436=0.9764     H438-O436=0.9661     O439-H440=0.9668     O439-H441=0.9732     H440-O439=0.9668     H441-O439=0.9732     
O442-H443=0.9693     O442-H444=0.9706     H443-O442=0.9693     H444-O442=0.9706     O445-H446=0.9817     O445-H447=0.9753     
H446-O445=0.9817     H447-O445=0.9753     O448-H449=0.9755     O448-H450=0.9582     H449-O448=0.9755     H450-O448=0.9582     
O451-H452=0.9636     O451-H453=0.9743     H452-O451=0.9636     H453-O451=0.9743     O454-H455=0.9635     O454-H456=0.9765     
H455-O454=0.9635     H456-O454=0.9765     O457-H458=0.9910     O457-H459=0.9581     H458-O457=0.9910     H459-O457=0.9581     
O460-H461=0.9859     O460-H462=0.9653     H461-O460=0.9859     H462-O460=0.9653     O463-H464=0.9771     O463-H465=0.9707     
H464-O463=0.9771     H465-O463=0.9707     O466-H467=0.9743     O466-H468=0.9748     H467-O466=0.9743     H468-O466=0.9748     
O469-H470=0.9762     O469-H471=0.9697     H470-O469=0.9762     H471-O469=0.9697     O472-H473=0.9849     O472-H474=0.9661     
H473-O472=0.9849     H474-O472=0.9661     O475-H476=0.9669     O475-H477=0.9700     H476-O475=0.9669     H477-O475=0.9700     
O478-H479=0.9733     O478-H480=0.9695     H479-O478=0.9733     H480-O478=0.9695     O481-H482=0.9627     O481-H483=0.9787     
H482-O481=0.9627     H483-O481=0.9787     O484-H485=0.9642     O484-H486=0.9707     H485-O484=0.9642     H486-O484=0.9707     
O487-H488=0.9883     O487-H489=0.9761     H488-O487=0.9883     H489-O487=0.9761     O490-H491=0.9589     O490-H492=1.0001     
H491-O490=0.9589     H492-O490=1.0001     O493-H494=0.9630     O493-H495=0.9821     H494-O493=0.9630     H495-O493=0.9821     
O496-H497=0.9641     O496-H498=0.9805     H497-O496=0.9641     H498-O496=0.9805     O499-H500=0.9869     O499-H501=0.9810     
H500-O499=0.9869     H501-O499=0.9810     O502-H503=0.9752     O502-H504=0.9767     H503-O502=0.9752     H504-O502=0.9767     
O505-H506=0.9760     O505-H507=0.9674     H506-O505=0.9760     H507-O505=0.9674     O508-H509=0.9774     O508-H510=0.9703     
H509-O508=0.9774     H510-O508=0.9703     O511-H512=0.9771     O511-H513=0.9784     H512-O511=0.9771     H513-O511=0.9784     
O514-H515=0.9762     O514-H516=0.9805     H515-O514=0.9762     H516-O514=0.9805     O517-H518=0.9772     O517-H519=0.9582     
H518-O517=0.9772     H519-O517=0.9582     O520-H521=0.9623     O520-H522=0.9866     H521-O520=0.9623     H522-O520=0.9866     
O523-H524=0.9682     O523-H525=0.9885     H524-O523=0.9682     H525-O523=0.9885     O526-H527=0.9893     O526-H528=0.9657     
H527-O526=0.9893     H528-O526=0.9657     O529-H530=0.9657     O529-H531=0.9755     H530-O529=0.9657     H531-O529=0.9755     
O532-H533=0.9913     O532-H534=0.9597     H533-O532=0.9913     H534-O532=0.9597     O535-H536=0.9763     O535-H537=0.9589     
H536-O535=0.9763     H537-O535=0.9589     O538-H539=0.9760     O538-H540=0.9761     H539-O538=0.9760     H540-O538=0.9761     
O541-H542=0.9805     O541-H543=0.9656     H542-O541=0.9805     H543-O541=0.9656     O544-H545=0.9847     O544-H546=0.9687     
H545-O544=0.9847     H546-O544=0.9687     O547-H548=0.9742     O547-H549=0.9768     H548-O547=0.9742     H549-O547=0.9768     
O550-H551=0.9845     O550-H552=0.9578     H551-O550=0.9845     H552-O550=0.9578     O553-H554=0.9930     O553-H555=0.9811     
H554-O553=0.9930     H555-O553=0.9811     O556-H557=0.9786     O556-H558=0.9747     H557-O556=0.9786     H558-O556=0.9747     
O559-H560=0.9880     O559-H561=0.9624     H560-O559=0.9880     H561-O559=0.9624     O562-H563=0.9647     O562-H564=0.9797     
H563-O562=0.9647     H564-O562=0.9797     O565-H566=0.9643     O565-H567=0.9921     H566-O565=0.9643     H567-O565=0.9921     
O568-H569=0.9719     O568-H570=0.9691     H569-O568=0.9719     H570-O568=0.9691     O571-H572=0.9567     O571-H573=0.9818     
H572-O571=0.9567     H573-O571=0.9818     O574-H575=0.9655     O574-H576=0.9798     H575-O574=0.9655     H576-O574=0.9798     
O577-H578=0.9661     O577-H579=0.9972     H578-O577=0.9661     H579-O577=0.9972     O580-H581=0.9849     O580-H582=0.9729     
H581-O580=0.9849     H582-O580=0.9729     O583-H584=0.9617     O583-H585=0.9751     H584-O583=0.9617     H585-O583=0.9751     
O586-H587=0.9759     O586-H588=0.9652     H587-O586=0.9759     H588-O586=0.9652     O589-H590=0.9856     O589-H591=0.9754     
H590-O589=0.9856     H591-O589=0.9754     O592-H593=0.9736     O592-H594=0.9752     H593-O592=0.9736     H594-O592=0.9752     
O595-H596=0.9932     O595-H597=0.9676     H596-O595=0.9932     H597-O595=0.9676     O598-H599=0.9558     O598-H600=0.9878     
H599-O598=0.9558     H600-O598=0.9878     O601-H602=0.9826     O601-H603=0.9656     H602-O601=0.9826     H603-O601=0.9656     
O604-H605=0.9811     O604-H606=0.9846     H605-O604=0.9811     H606-O604=0.9846     O607-H608=0.9625     O607-H609=0.9728     
H608-O607=0.9625     H609-O607=0.9728     O610-H611=0.9662     O610-H612=0.9767     H611-O610=0.9662     H612-O610=0.9767     
 C  H  Rav=1.0864 sigma=0.0006  Rmin=1.0855  Rmax=1.0870     4
 C  C  Rav=1.5189 sigma=0.0000  Rmin=1.5189  Rmax=1.5189     1
 N  H  Rav=1.0415 sigma=0.0085  Rmin=1.0295  Rmax=1.0482     3
 N  C  Rav=1.4673 sigma=0.0000  Rmin=1.4673  Rmax=1.4673     1
 O  H  Rav=0.9740 sigma=0.0085  Rmin=0.9558  Rmax=1.0001   401
 O  C  Rav=1.4249 sigma=0.0000  Rmin=1.4249  Rmax=1.4249     1
 
 selected bond angles (degree)
 --------------------
H3-C2-H1=109.68                C4-C2-H1=110.94                C4-C2-H3=107.60                O7-C2-H1=108.21                
O7-C2-H3=106.93                O7-C2-C4=113.37                H5-C4-C2=110.37                H6-C4-C2=108.05                
H6-C4-H5=107.99                N9-C4-C2=112.65                N9-C4-H5=108.11                N9-C4-H6=109.58                
H8-O7-C2=105.12                H10-N9-C4=110.20               H11-N9-C4=109.33               H11-N9-H10=106.65              
H12-N9-C4=110.53               H12-N9-H10=111.61              H12-N9-H11=108.40              
 
 selected dihedral angles (degree)
 ---------------------------------
H5-C4-C2-H1=183.32            H5-C4-C2-H3= 63.34            H5-C4-C2-O7=305.32            H6-C4-C2-H1= 65.45            
H6-C4-C2-H3=305.47            H6-C4-C2-O7=187.45            N9-C4-C2-H1=304.25            N9-C4-C2-H3=184.28            
N9-C4-C2-O7= 66.25            H8-O7-C2-H1= 48.13            H8-O7-C2-H3=166.21            H8-O7-C2-C4=284.62            
H10-N9-C4-C2=290.19           H10-N9-C4-H5= 52.41           H10-N9-C4-H6=169.87           H11-N9-C4-C2=173.27           
H11-N9-C4-H5=295.49           H11-N9-C4-H6= 52.96           H12-N9-C4-C2= 54.02           H12-N9-C4-H5=176.24           
H12-N9-C4-H6=293.71           
 
 CMA Distance (Angstroems)
 ---------------------------
R(CMA):  3.0427
           -------------------------------------------------
          |                Final Singlepoint                |
           -------------------------------------------------

          ...................................................
          :                      SETUP                      :
          :.................................................:
          :  # basis functions                1224          :
          :  # atomic orbitals                1224          :
          :  # shells                          816          :
          :  # electrons                      1626          :
          :  max. iterations                   250          :
          :  Hamiltonian                  GFN2-xTB          :
          :  restarted?                      false          :
          :  GBSA solvation                  false          :
          :  PC potential                    false          :
          :  electronic temp.          300.0000000     K    :
          :  accuracy                    1.0000000          :
          :  -> integral cutoff          0.2500000E+02      :
          :  -> integral neglect         0.1000000E-07      :
          :  -> SCF convergence          0.1000000E-05 Eh   :
          :  -> wf. convergence          0.1000000E-03 e    :
          :  Broyden damping             0.4000000          :
          ...................................................

 iter      E             dE          RMSdq      gap      omega  full diag
   1  -1039.7921873 -0.103979E+04  0.122E-05    8.13       0.0  T
   2  -1039.7921873 -0.477485E-11  0.743E-06    8.13     544.0  T
   3  -1039.7921873 -0.363798E-11  0.176E-06    8.13    2292.5  T

   *** convergence criteria satisfied after 3 iterations ***

         #    Occupation            Energy/Eh            Energy/eV
      -------------------------------------------------------------
         1        2.0000           -0.7508232             -20.4309
       ...           ...                  ...                  ...
       807        2.0000           -0.4622251             -12.5778
       808        2.0000           -0.4621504             -12.5758
       809        2.0000           -0.4615053             -12.5582
       810        2.0000           -0.4592224             -12.4961
       811        2.0000           -0.4578160             -12.4578
       812        2.0000           -0.4575529             -12.4506
       813        2.0000           -0.4573028             -12.4438 (HOMO)
       814                         -0.1583669              -4.3094 (LUMO)
       815                         -0.1398898              -3.8066
       816                         -0.1330597              -3.6207
       817                         -0.1253537              -3.4110
       818                         -0.1226763              -3.3382
       ...                                ...                  ...
      1224                          0.3702183              10.0742
      -------------------------------------------------------------
                  HL-Gap            0.2989359 Eh            8.1345 eV
             Fermi-level           -0.3078349 Eh           -8.3766 eV

 SCC (total)                   0 d,  0 h,  0 min, 12.252 sec
 SCC setup                      ...        0 min,  0.032 sec (  0.264%)
 Dispersion                     ...        0 min,  0.082 sec (  0.673%)
 classical contributions        ...        0 min,  0.021 sec (  0.169%)
 integral evaluation            ...        0 min,  0.698 sec (  5.697%)
 iterations                     ...        0 min,  1.839 sec ( 15.009%)
 molecular gradient             ...        0 min,  9.509 sec ( 77.610%)
 printout                       ...        0 min,  0.071 sec (  0.578%)

         :::::::::::::::::::::::::::::::::::::::::::::::::::::
         ::                     SUMMARY                     ::
         :::::::::::::::::::::::::::::::::::::::::::::::::::::
         :: total energy           -1033.472512418066 Eh    ::
         :: gradient norm              0.000229722175 Eh/a0 ::
         :: HOMO-LUMO gap              8.134460585364 eV    ::
         ::.................................................::
         :: SCC energy             -1039.792187321421 Eh    ::
         :: -> isotropic ES            5.739838167372 Eh    ::
         :: -> anisotropic ES         -1.310168563117 Eh    ::
         :: -> anisotropic XC         -0.097342465006 Eh    ::
         :: -> dispersion             -0.629544653111 Eh    ::
         :: repulsion energy           6.198919925522 Eh    ::
         :: add. restraining           0.000000000000 Eh    ::
         :: total charge               1.000000000000 e     ::
         :::::::::::::::::::::::::::::::::::::::::::::::::::::

           ------------------------------------------------- 
          |                Numerical Hessian                |
           ------------------------------------------------- 
step length          :   0.00500
SCC accuracy         :   0.30000
Hessian scale factor :   1.00000
frozen atoms in %    :   0.00000    0
RMS gradient         :   0.00023
estimated CPU  time    765.26 min
estimated wall time    767.11 min
