      -----------------------------------------------------------      
     |                   =====================                   |     
     |                           x T B                           |     
     |                   =====================                   |     
     |                         S. Grimme                         |     
     |          Mulliken Center for Theoretical Chemistry        |     
     |                    University of Bonn                     |     
      -----------------------------------------------------------      

   * xtb version 6.5.1 (579679a) compiled by 'ehlert@majestix' on 2022-07-11

   xtb is free software: you can redistribute it and/or modify it under
   the terms of the GNU Lesser General Public License as published by
   the Free Software Foundation, either version 3 of the License, or
   (at your option) any later version.
   
   xtb is distributed in the hope that it will be useful,
   but WITHOUT ANY WARRANTY; without even the implied warranty of
   MERCHANTABILITY or FITNESS FOR A PARTICULAR PURPOSE.  See the
   GNU Lesser General Public License for more details.
   
   Cite this work as:
   * C. Bannwarth, E. Caldeweyher, S. Ehlert, A. Hansen, P. Pracht,
     J. Seibert, S. Spicher, S. Grimme, WIREs Comput. Mol. Sci., 2020, 11,
     e01493. DOI: 10.1002/wcms.1493
   
   for GFN2-xTB:
   * C. Bannwarth, S. Ehlert and S. Grimme., J. Chem. Theory Comput., 2019,
     15, 1652-1671. DOI: 10.1021/acs.jctc.8b01176
   for GFN1-xTB:
   * S. Grimme, C. Bannwarth, P. Shushkov, J. Chem. Theory Comput., 2017,
     13, 1989-2009. DOI: 10.1021/acs.jctc.7b00118
   for GFN0-xTB:
   * P. Pracht, E. Caldeweyher, S. Ehlert, S. Grimme, ChemRxiv, 2019, preprint.
     DOI: 10.26434/chemrxiv.8326202.v1
   for GFN-FF:
   * S. Spicher and S. Grimme, Angew. Chem. Int. Ed., 2020, 59, 15665-15673.
     DOI: 10.1002/anie.202004239
   
   for ALPB and GBSA implicit solvation:
   * S. Ehlert, M. Stahn, S. Spicher, S. Grimme, J. Chem. Theory Comput.,
     2021, 17, 4250-4261. DOI: 10.1021/acs.jctc.1c00471
   
   for DFT-D4:
   * E. Caldeweyher, C. Bannwarth and S. Grimme, J. Chem. Phys., 2017,
     147, 034112. DOI: 10.1063/1.4993215
   * E. Caldeweyher, S. Ehlert, A. Hansen, H. Neugebauer, S. Spicher,
     C. Bannwarth and S. Grimme, J. Chem. Phys., 2019, 150, 154122.
     DOI: 10.1063/1.5090222
   * E. Caldeweyher, J.-M. Mewes, S. Ehlert and S. Grimme, Phys. Chem. Chem. Phys.
     2020, 22, 8499-8512. DOI: 10.1039/D0CP00502A
   
   for sTDA-xTB:
   * S. Grimme and C. Bannwarth, J. Chem. Phys., 2016, 145, 054103.
     DOI: 10.1063/1.4959605
   
   in the mass-spec context:
   * V. Asgeirsson, C. Bauer and S. Grimme, Chem. Sci., 2017, 8, 4879.
     DOI: 10.1039/c7sc00601b
   * J. Koopman and S. Grimme, ACS Omega 2019, 4, 12, 15120-15133.
     DOI: 10.1021/acsomega.9b02011
   
   for metadynamics refer to:
   * S. Grimme, J. Chem. Theory Comput., 2019, 155, 2847-2862
     DOI: 10.1021/acs.jctc.9b00143
   
   for SPH calculations refer to:
   * S. Spicher and S. Grimme, J. Chem. Theory Comput., 2021, 17, 1701-1714
     DOI: 10.1021/acs.jctc.0c01306
   
   with help from (in alphabetical order)
   P. Atkinson, C. Bannwarth, F. Bohle, G. Brandenburg, E. Caldeweyher
   M. Checinski, S. Dohm, S. Ehlert, S. Ehrlich, I. Gerasimov, C. Hölzer
   A. Katbashev, J. Koopman, C. Lavigne, S. Lehtola, F. März, M. Müller,
   F. Musil, H. Neugebauer, J. Pisarek, C. Plett, P. Pracht, F. Pultar,
   J. Seibert, P. Shushkov, S. Spicher, M. Stahn, M. Steiner, T. Strunk,
   J. Stückrath, T. Rose, and J. Unsleber
   
 * started run on 2022/11/24 at 12:04:44.001     

           -------------------------------------------------
          |                Calculation Setup                |
           -------------------------------------------------

          program call               : xtb solvent_cluster.coord --gfn2 --input xcontrol --opt 1
          hostname                   : cn0430
          coordinate file            : solvent_cluster.coord
          omp threads                :                     2

   ID    Z sym.   atoms
    1    8 o      1, 4, 7, 10, 13, 16, 19, 22, 25, 28, 31, 34, 37, 40, 43,
                  46, 49, 52, 55, 58, 61, 64, 67, 70, 73, 76, 79, 82, 85, 88,
                  91, 94, 97, 100, 103, 106, 109, 112, 115, 118, 121, 124,
                  127, 130, 133, 136, 139, 142, 145, 148, 151, 154, 157, 160,
                  163, 166, 169, 172, 175, 178, 181, 184, 187, 190, 193, 196,
                  199, 202, 205, 208, 211, 214, 217, 220, 223, 226, 229, 232,
                  235, 238, 241, 244, 247, 250, 253, 256, 259, 262, 265, 268,
                  271, 274, 277, 280, 283, 286, 289, 292, 295, 298, 301, 304,
                  307, 310, 313, 316, 319, 322, 325, 328, 331, 334, 337, 340,
                  343, 346, 349, 352, 355, 358, 361, 364, 367, 370, 373, 376,
                  379, 382, 385, 388, 391, 394, 397, 400, 403, 406, 409, 412,
                  415, 418, 421, 424, 427, 430, 433, 436, 439, 442, 445, 448,
                  451, 454, 457, 460, 463, 466, 469, 472, 475, 478, 481, 484,
                  487, 490, 493, 496, 499, 502, 505, 508, 511, 514, 517, 520,
                  523, 526, 529, 532, 535, 538, 541, 544, 547, 550, 553, 556,
                  559, 562, 565, 568, 571, 574, 577, 580, 583, 586, 589, 592,
                  595, 598, 601, 604, 607, 610, 613, 616, 619, 622, 625, 628,
                  631, 634, 637, 640, 643, 646, 649, 652, 655, 658, 661, 664,
                  667, 670, 673, 676, 679, 682, 685, 688, 691, 694, 697, 700,
                  703, 706, 709, 712, 715, 718, 721, 724, 727, 730, 733, 736,
                  739, 742, 745, 748, 751, 754
    2    1 h      2, 3, 5, 6, 8, 9, 11, 12, 14, 15, 17, 18, 20, 21, 23, 24,
                  26, 27, 29, 30, 32, 33, 35, 36, 38, 39, 41, 42, 44, 45, 47,
                  48, 50, 51, 53, 54, 56, 57, 59, 60, 62, 63, 65, 66, 68, 69,
                  71, 72, 74, 75, 77, 78, 80, 81, 83, 84, 86, 87, 89, 90, 92,
                  93, 95, 96, 98, 99, 101, 102, 104, 105, 107, 108, 110, 111,
                  113, 114, 116, 117, 119, 120, 122, 123, 125, 126, 128, 129,
                  131, 132, 134, 135, 137, 138, 140, 141, 143, 144, 146, 147,
                  149, 150, 152, 153, 155, 156, 158, 159, 161, 162, 164, 165,
                  167, 168, 170, 171, 173, 174, 176, 177, 179, 180, 182, 183,
                  185, 186, 188, 189, 191, 192, 194, 195, 197, 198, 200, 201,
                  203, 204, 206, 207, 209, 210, 212, 213, 215, 216, 218, 219,
                  221, 222, 224, 225, 227, 228, 230, 231, 233, 234, 236, 237,
                  239, 240, 242, 243, 245, 246, 248, 249, 251, 252, 254, 255,
                  257, 258, 260, 261, 263, 264, 266, 267, 269, 270, 272, 273,
                  275, 276, 278, 279, 281, 282, 284, 285, 287, 288, 290, 291,
                  293, 294, 296, 297, 299, 300, 302, 303, 305, 306, 308, 309,
                  311, 312, 314, 315, 317, 318, 320, 321, 323, 324, 326, 327,
                  329, 330, 332, 333, 335, 336, 338, 339, 341, 342, 344, 345,
                  347, 348, 350, 351, 353, 354, 356, 357, 359, 360, 362, 363,
                  365, 366, 368, 369, 371, 372, 374, 375, 377, 378, 380, 381,
                  383, 384, 386, 387, 389, 390, 392, 393, 395, 396, 398, 399,
                  401, 402, 404, 405, 407, 408, 410, 411, 413, 414, 416, 417,
                  419, 420, 422, 423, 425, 426, 428, 429, 431, 432, 434, 435,
                  437, 438, 440, 441, 443, 444, 446, 447, 449, 450, 452, 453,
                  455, 456, 458, 459, 461, 462, 464, 465, 467, 468, 470, 471,
                  473, 474, 476, 477, 479, 480, 482, 483, 485, 486, 488, 489,
                  491, 492, 494, 495, 497, 498, 500, 501, 503, 504, 506, 507,
                  509, 510, 512, 513, 515, 516, 518, 519, 521, 522, 524, 525,
                  527, 528, 530, 531, 533, 534, 536, 537, 539, 540, 542, 543,
                  545, 546, 548, 549, 551, 552, 554, 555, 557, 558, 560, 561,
                  563, 564, 566, 567, 569, 570, 572, 573, 575, 576, 578, 579,
                  581, 582, 584, 585, 587, 588, 590, 591, 593, 594, 596, 597,
                  599, 600, 602, 603, 605, 606, 608, 609, 611, 612, 614, 615,
                  617, 618, 620, 621, 623, 624, 626, 627, 629, 630, 632, 633,
                  635, 636, 638, 639, 641, 642, 644, 645, 647, 648, 650, 651,
                  653, 654, 656, 657, 659, 660, 662, 663, 665, 666, 668, 669,
                  671, 672, 674, 675, 677, 678, 680, 681, 683, 684, 686, 687,
                  689, 690, 692, 693, 695, 696, 698, 699, 701, 702, 704, 705,
                  707, 708, 710, 711, 713, 714, 716, 717, 719, 720, 722, 723,
                  725, 726, 728, 729, 731, 732, 734, 735, 737, 738, 740, 741,
                  743, 744, 746, 747, 749, 750, 752, 753, 755, 756

molecular fragmentation (1/2 indicates fragments):
111222222222222222222222222222222222222222222222222222222222222222222222
222222222222222222222222222222222222222222222222222222222222222222222222
222222222222222222222222222222222222222222222222222222222222222222222222
222222222222222222222222222222222222222222222222222222222222222222222222
222222222222222222222222222222222222222222222222222222222222222222222222
222222222222222222222222222222222222222222222222222222222222222222222222
222222222222222222222222222222222222222222222222222222222222222222222222
222222222222222222222222222222222222222222222222222222222222222222222222
222222222222222222222222222222222222222222222222222222222222222222222222
222222222222222222222222222222222222222222222222222222222222222222222222
222222222222222222222222222222222222
# atoms in fragment 1/2:     3   753
 fragment masses (1/2) :       18.02     4521.84
CMA distance (Bohr)    :  18.528
constraining FC (au)   :  0.0500

           -------------------------------------------------
          |                 G F N 2 - x T B                 |
           -------------------------------------------------

        Reference                      10.1021/acs.jctc.8b01176
      * Hamiltonian:
        H0-scaling (s, p, d)           1.850000    2.230000    2.230000
        zeta-weighting                 0.500000
      * Dispersion:
        s8                             2.700000
        a1                             0.520000
        a2                             5.000000
        s9                             5.000000
      * Repulsion:
        kExp                           1.500000    1.000000
        rExp                           1.000000
      * Coulomb:
        alpha                          2.000000
        third order                    shell-resolved
        anisotropic                    true
        a3                             3.000000
        a5                             4.000000
        cn-shift                       1.200000
        cn-exp                         4.000000
        max-rad                        5.000000


          ...................................................
          :                      SETUP                      :
          :.................................................:
          :  # basis functions                1512          :
          :  # atomic orbitals                1512          :
          :  # shells                         1008          :
          :  # electrons                      2016          :
          :  max. iterations                   250          :
          :  Hamiltonian                  GFN2-xTB          :
          :  restarted?                      false          :
          :  GBSA solvation                  false          :
          :  PC potential                    false          :
          :  electronic temp.          300.0000000     K    :
          :  accuracy                    1.0000000          :
          :  -> integral cutoff          0.2500000E+02      :
          :  -> integral neglect         0.1000000E-07      :
          :  -> SCF convergence          0.1000000E-05 Eh   :
          :  -> wf. convergence          0.1000000E-03 e    :
          :  Broyden damping             0.4000000          :
          ...................................................

 iter      E             dE          RMSdq      gap      omega  full diag
   1  -1290.9995418 -0.129100E+04  0.407E+00    8.40       0.0  T
   2  -1291.0788022 -0.792604E-01  0.242E+00    7.24       1.0  T
   3  -1291.1110111 -0.322089E-01  0.213E-01    5.58       1.0  T
   4  -1291.1164850 -0.547390E-02  0.461E-02    6.05       1.0  T
   5  -1291.1165730 -0.880116E-04  0.310E-02    5.98       1.0  T
   6  -1291.1166134 -0.404029E-04  0.442E-03    6.02       1.0  T
   7  -1291.1166161 -0.261347E-05  0.747E-04    6.02       4.9  T
   8  -1291.1166161 -0.292525E-07  0.387E-04    6.02       9.4  T
   9  -1291.1166161 -0.144057E-07  0.568E-05    6.02      64.1  T

   *** convergence criteria satisfied after 9 iterations ***

         #    Occupation            Energy/Eh            Energy/eV
      -------------------------------------------------------------
         1        2.0000           -0.6981042             -18.9964
       ...           ...                  ...                  ...
      1002        2.0000           -0.3469760              -9.4417
      1003        2.0000           -0.3432996              -9.3417
      1004        2.0000           -0.3424563              -9.3187
      1005        2.0000           -0.3410340              -9.2800
      1006        2.0000           -0.3375107              -9.1841
      1007        2.0000           -0.3229771              -8.7887
      1008        2.0000           -0.3124042              -8.5010 (HOMO)
      1009                         -0.0912940              -2.4842 (LUMO)
      1010                         -0.0724573              -1.9717
      1011                         -0.0644548              -1.7539
      1012                         -0.0632272              -1.7205
      1013                         -0.0571857              -1.5561
       ...                                ...                  ...
      1512                          0.4778593              13.0032
      -------------------------------------------------------------
                  HL-Gap            0.2211102 Eh            6.0167 eV
             Fermi-level           -0.2018491 Eh           -5.4926 eV

 SCC (total)                   0 d,  0 h,  0 min, 20.091 sec
 SCC setup                      ...        0 min,  0.042 sec (  0.209%)
 Dispersion                     ...        0 min,  0.109 sec (  0.544%)
 classical contributions        ...        0 min,  0.023 sec (  0.116%)
 integral evaluation            ...        0 min,  0.598 sec (  2.974%)
 iterations                     ...        0 min,  6.736 sec ( 33.526%)
 molecular gradient             ...        0 min, 12.518 sec ( 62.305%)
 printout                       ...        0 min,  0.066 sec (  0.327%)

         :::::::::::::::::::::::::::::::::::::::::::::::::::::
         ::                     SUMMARY                     ::
         :::::::::::::::::::::::::::::::::::::::::::::::::::::
         :: total energy           -1283.291640846038 Eh    ::
         :: gradient norm              0.102100931874 Eh/a0 ::
         :: HOMO-LUMO gap              6.016715334813 eV    ::
         ::.................................................::
         :: SCC energy             -1291.116616101299 Eh    ::
         :: -> isotropic ES            7.149532992791 Eh    ::
         :: -> anisotropic ES         -1.605773052356 Eh    ::
         :: -> anisotropic XC         -0.127309435637 Eh    ::
         :: -> dispersion             -0.799539647690 Eh    ::
         :: repulsion energy           7.666422395099 Eh    ::
         :: add. restraining           0.000000000000 Eh    ::
         :: total charge              -0.000000000000 e     ::
         :::::::::::::::::::::::::::::::::::::::::::::::::::::

      ----------------------------------------------------------- 
     |                       L-ANC optimizer                     |
      ----------------------------------------------------------- 
          low memory version by Sebastian Ehlert

          ...................................................
          :                      SETUP                      :
          :.................................................:
          :   energy convergence        0.1000000E-05 Eh    :
          :   grad. convergence         0.8000000E-03 Eh/a0 :
          :   optimization log               true           :
          :   writing optlog all                1     steps :
          :   Hessian reset                    20     steps :
          :   maximium step len.        1.0000000     a0    :
          :   LBFGS images                     20           :
          ...................................................
 * calculating model hessian...
Using Lindh-Hessian (1995)
 Shifting diagonal of input Hessian by   1.000017130810193E-002
 Lowest  eigenvalues of input Hessian
    0.010000    0.010000   -0.000000   -0.000000   -0.000000   -0.000000
   -0.000000   -0.000000   -0.000000   -0.000000   -0.000000   -0.000000
   -0.000000   -0.000000   -0.000000   -0.000000   -0.000000   -0.000000
 Highest eigenvalues
    0.318323    0.320910    1.229764    1.264648    1.419815    1.449649
 

........................................................................
.............................. CYCLE    1 ..............................
........................................................................
   1  -1291.1145720 -0.129111E+04  0.263E-02    6.07       0.0  T
   2  -1291.1145926 -0.206484E-04  0.160E-02    6.06       1.0  T
   3  -1291.1145980 -0.538499E-05  0.259E-03    6.06       1.4  T
   4  -1291.1145986 -0.630976E-06  0.525E-04    6.06       6.9  T
   5  -1291.1145986 -0.489558E-08  0.673E-05    6.06      54.0  T
     SCC iter.                  ...        0 min,  3.706 sec
     gradient                   ...        0 min, 12.728 sec
 * total energy  : -1283.2939020 Eh     change       -0.2261114E-02 Eh
   gradient norm :     0.0120850 Eh/a0  converged?    E=F G=F D=F
   step length   :     0.3672926 a0

........................................................................
.............................. CYCLE    2 ..............................
........................................................................
   1  -1291.1150842 -0.129112E+04  0.185E-02    6.11       0.0  T
   2  -1291.1150928 -0.861607E-05  0.113E-02    6.11       1.0  T
   3  -1291.1150954 -0.257074E-05  0.159E-03    6.11       2.3  T
   4  -1291.1150956 -0.278165E-06  0.405E-04    6.11       9.0  T
   5  -1291.1150956 -0.440832E-08  0.567E-05    6.11      64.2  T
     SCC iter.                  ...        0 min,  3.434 sec
     gradient                   ...        0 min, 12.538 sec
 * total energy  : -1283.2950850 Eh     change       -0.1183015E-02 Eh
   gradient norm :     0.0102190 Eh/a0  converged?    E=F G=F D=F
   step length   :     0.3984699 a0

........................................................................
.............................. CYCLE    3 ..............................
........................................................................
   1  -1291.1132028 -0.129111E+04  0.148E-02    6.17       0.0  T
   2  -1291.1132057 -0.288744E-05  0.901E-03    6.18       1.0  T
   3  -1291.1132065 -0.767420E-06  0.841E-04    6.18       4.3  T
   4  -1291.1132066 -0.988682E-07  0.216E-04    6.18      16.9  T
     SCC iter.                  ...        0 min,  2.688 sec
     gradient                   ...        0 min, 12.578 sec
 * total energy  : -1283.2958768 Eh     change       -0.7918535E-03 Eh
   gradient norm :     0.0189809 Eh/a0  converged?    E=F G=F D=F
   step length   :     0.3556362 a0

........................................................................
.............................. CYCLE    4 ..............................
........................................................................
   1  -1291.1132348 -0.129111E+04  0.275E-02    6.31       0.0  T
   2  -1291.1132517 -0.169673E-04  0.166E-02    6.33       1.0  T
   3  -1291.1132551 -0.333661E-05  0.201E-03    6.35       1.8  T
   4  -1291.1132557 -0.592188E-06  0.429E-04    6.34       8.5  T
   5  -1291.1132557 -0.981254E-08  0.930E-05    6.34      39.1  T
     SCC iter.                  ...        0 min,  3.304 sec
     gradient                   ...        0 min, 12.521 sec
 * total energy  : -1283.2970584 Eh     change       -0.1181545E-02 Eh
   gradient norm :     0.0277359 Eh/a0  converged?    E=F G=F D=F
   step length   :     0.8944578 a0

........................................................................
.............................. CYCLE    5 ..............................
........................................................................
   1  -1291.1213614 -0.129112E+04  0.141E-02    6.36       0.0  T
   2  -1291.1213696 -0.821555E-05  0.807E-03    6.36       1.0  T
   3  -1291.1213711 -0.150299E-05  0.163E-03    6.36       2.2  T
   4  -1291.1213713 -0.196131E-06  0.307E-04    6.36      11.9  T
   5  -1291.1213713 -0.223758E-08  0.485E-05    6.36      75.0  T
     SCC iter.                  ...        0 min,  3.282 sec
     gradient                   ...        0 min, 12.489 sec
 * total energy  : -1283.2972413 Eh     change       -0.1828792E-03 Eh
   gradient norm :     0.0148569 Eh/a0  converged?    E=F G=F D=F
   step length   :     0.1989830 a0

........................................................................
.............................. CYCLE    6 ..............................
........................................................................
   1  -1291.1180212 -0.129112E+04  0.885E-03    6.33       0.0  T
   2  -1291.1180228 -0.159780E-05  0.533E-03    6.33       1.0  T
   3  -1291.1180232 -0.404197E-06  0.724E-04    6.32       5.0  T
   4  -1291.1180232 -0.520870E-07  0.166E-04    6.32      21.9  T
     SCC iter.                  ...        0 min,  2.585 sec
     gradient                   ...        0 min, 12.562 sec
 * total energy  : -1283.2976641 Eh     change       -0.4228646E-03 Eh
   gradient norm :     0.0088170 Eh/a0  converged?    E=F G=F D=F
   step length   :     0.1247137 a0

........................................................................
.............................. CYCLE    7 ..............................
........................................................................
   1  -1291.1153597 -0.129112E+04  0.918E-03    6.30       0.0  T
   2  -1291.1153608 -0.114899E-05  0.563E-03    6.30       1.0  T
   3  -1291.1153613 -0.426166E-06  0.537E-04    6.30       6.8  T
   4  -1291.1153613 -0.339412E-07  0.178E-04    6.30      20.5  T
     SCC iter.                  ...        0 min,  2.528 sec
     gradient                   ...        0 min, 12.664 sec
 * total energy  : -1283.2978697 Eh     change       -0.2056161E-03 Eh
   gradient norm :     0.0133142 Eh/a0  converged?    E=F G=F D=F
   step length   :     0.1924279 a0

........................................................................
.............................. CYCLE    8 ..............................
........................................................................
   1  -1291.1146586 -0.129111E+04  0.845E-03    6.27       0.0  T
   2  -1291.1146596 -0.100174E-05  0.520E-03    6.27       1.0  T
   3  -1291.1146600 -0.325472E-06  0.502E-04    6.27       7.2  T
   4  -1291.1146600 -0.332454E-07  0.141E-04    6.27      25.8  T
     SCC iter.                  ...        0 min,  2.503 sec
     gradient                   ...        0 min, 12.712 sec
 * total energy  : -1283.2980964 Eh     change       -0.2266547E-03 Eh
   gradient norm :     0.0150402 Eh/a0  converged?    E=F G=F D=F
   step length   :     0.2181786 a0

........................................................................
.............................. CYCLE    9 ..............................
........................................................................
   1  -1291.1129469 -0.129111E+04  0.179E-02    6.21       0.0  T
   2  -1291.1129508 -0.382912E-05  0.109E-02    6.21       1.0  T
   3  -1291.1129521 -0.137870E-05  0.104E-03    6.21       3.5  T
   4  -1291.1129523 -0.123413E-06  0.324E-04    6.21      11.2  T
   5  -1291.1129523 -0.343607E-08  0.410E-05    6.21      88.7  T
     SCC iter.                  ...        0 min,  3.122 sec
     gradient                   ...        0 min, 12.723 sec
 * total energy  : -1283.2985223 Eh     change       -0.4258766E-03 Eh
   gradient norm :     0.0190061 Eh/a0  converged?    E=F G=F D=F
   step length   :     0.4803499 a0

........................................................................
.............................. CYCLE   10 ..............................
........................................................................
   1  -1291.1129113 -0.129111E+04  0.168E-02    6.16       0.0  T
   2  -1291.1129129 -0.160434E-05  0.102E-02    6.16       1.0  T
   3  -1291.1129135 -0.591511E-06  0.664E-04    6.16       5.5  T
   4  -1291.1129136 -0.477037E-07  0.206E-04    6.16      17.6  T
     SCC iter.                  ...        0 min,  2.485 sec
     gradient                   ...        0 min, 12.742 sec
 * total energy  : -1283.2990742 Eh     change       -0.5519267E-03 Eh
   gradient norm :     0.0210124 Eh/a0  converged?    E=F G=F D=F
   step length   :     0.4818469 a0

........................................................................
.............................. CYCLE   11 ..............................
........................................................................
   1  -1291.1170351 -0.129112E+04  0.158E-02    6.15       0.0  T
   2  -1291.1170372 -0.213033E-05  0.953E-03    6.15       1.0  T
   3  -1291.1170377 -0.459252E-06  0.699E-04    6.15       5.2  T
   4  -1291.1170378 -0.793807E-07  0.167E-04    6.15      21.8  T
     SCC iter.                  ...        0 min,  2.566 sec
     gradient                   ...        0 min, 13.330 sec
 * total energy  : -1283.2998298 Eh     change       -0.7556054E-03 Eh
   gradient norm :     0.0189929 Eh/a0  converged?    E=F G=F D=F
   step length   :     0.4065281 a0

........................................................................
.............................. CYCLE   12 ..............................
........................................................................
   1  -1291.1000501 -0.129110E+04  0.417E-02    5.99       0.0  T
   2  -1291.1000718 -0.217242E-04  0.252E-02    5.99       1.0  T
   3  -1291.1000801 -0.834950E-05  0.267E-03    5.98       1.4  T
   4  -1291.1000808 -0.651196E-06  0.881E-04    5.98       4.1  T
   5  -1291.1000808 -0.238533E-07  0.997E-05    5.98      36.5  T
     SCC iter.                  ...        0 min,  3.029 sec
     gradient                   ...        0 min, 12.700 sec
 * total energy  : -1283.2974376 Eh     change        0.2392183E-02 Eh
   gradient norm :     0.0630522 Eh/a0  converged?    E=F G=F D=F
   step length   :     2.0174940 a0

........................................................................
.............................. CYCLE   13 ..............................
........................................................................
   1  -1291.1218479 -0.129112E+04  0.335E-02    6.17       0.0  T
   2  -1291.1218622 -0.143289E-04  0.201E-02    6.20       1.0  T
   3  -1291.1218668 -0.457076E-05  0.207E-03    6.21       1.8  T
   4  -1291.1218672 -0.422996E-06  0.667E-04    6.21       5.5  T
   5  -1291.1218672 -0.116941E-07  0.700E-05    6.21      51.9  T
     SCC iter.                  ...        0 min,  2.996 sec
     gradient                   ...        0 min, 12.671 sec
 * total energy  : -1283.3007163 Eh     change       -0.3278687E-02 Eh
   gradient norm :     0.0155297 Eh/a0  converged?    E=F G=F D=F
   step length   :     0.8234787 a0

........................................................................
.............................. CYCLE   14 ..............................
........................................................................
   1  -1291.1171176 -0.129112E+04  0.162E-02    6.21       0.0  T
   2  -1291.1171241 -0.646209E-05  0.975E-03    6.18       1.0  T
   3  -1291.1171260 -0.191470E-05  0.136E-03    6.15       2.7  T
   4  -1291.1171262 -0.195455E-06  0.394E-04    6.16       9.2  T
   5  -1291.1171262 -0.472346E-08  0.526E-05    6.16      69.1  T
     SCC iter.                  ...        0 min,  3.023 sec
     gradient                   ...        0 min, 12.681 sec
 * total energy  : -1283.3007864 Eh     change       -0.7008804E-04 Eh
   gradient norm :     0.0322472 Eh/a0  converged?    E=F G=F D=F
   step length   :     0.2407294 a0

........................................................................
.............................. CYCLE   15 ..............................
........................................................................
   1  -1291.1189188 -0.129112E+04  0.146E-02    6.14       0.0  T
   2  -1291.1189252 -0.642910E-05  0.887E-03    6.14       1.0  T
   3  -1291.1189277 -0.249009E-05  0.144E-03    6.15       2.5  T
   4  -1291.1189279 -0.195436E-06  0.432E-04    6.15       8.4  T
   5  -1291.1189279 -0.593377E-08  0.487E-05    6.15      74.6  T
     SCC iter.                  ...        0 min,  2.987 sec
     gradient                   ...        0 min, 12.656 sec
 * total energy  : -1283.3017731 Eh     change       -0.9866973E-03 Eh
   gradient norm :     0.0176837 Eh/a0  converged?    E=F G=F D=F
   step length   :     0.2779021 a0

........................................................................
.............................. CYCLE   16 ..............................
........................................................................
   1  -1291.1156851 -0.129112E+04  0.268E-02    6.13       0.0  T
   2  -1291.1157064 -0.212413E-04  0.159E-02    6.13       1.0  T
   3  -1291.1157130 -0.661057E-05  0.273E-03    6.13       1.3  T
   4  -1291.1157137 -0.674650E-06  0.815E-04    6.13       4.5  T
   5  -1291.1157137 -0.199427E-07  0.921E-05    6.13      39.5  T
     SCC iter.                  ...        0 min,  2.985 sec
     gradient                   ...        0 min, 12.666 sec
 * total energy  : -1283.3010039 Eh     change        0.7691446E-03 Eh
   gradient norm :     0.0499861 Eh/a0  converged?    E=F G=F D=F
   step length   :     0.4086142 a0

........................................................................
.............................. CYCLE   17 ..............................
........................................................................
   1  -1291.1193274 -0.129112E+04  0.156E-02    6.14       0.0  T
   2  -1291.1193394 -0.119985E-04  0.914E-03    6.14       1.0  T
   3  -1291.1193429 -0.359930E-05  0.206E-03    6.14       1.8  T
   4  -1291.1193433 -0.357029E-06  0.599E-04    6.14       6.1  T
   5  -1291.1193433 -0.109335E-07  0.679E-05    6.14      53.6  T
     SCC iter.                  ...        0 min,  2.989 sec
     gradient                   ...        0 min, 12.676 sec
 * total energy  : -1283.3026652 Eh     change       -0.1661277E-02 Eh
   gradient norm :     0.0091930 Eh/a0  converged?    E=F G=F D=F
   step length   :     0.1971397 a0

........................................................................
.............................. CYCLE   18 ..............................
........................................................................
   1  -1291.1195591 -0.129112E+04  0.719E-03    6.12       0.0  T
   2  -1291.1195598 -0.723688E-06  0.434E-03    6.11       1.0  T
   3  -1291.1195599 -0.163076E-06  0.435E-04    6.10       8.4  T
   4  -1291.1195600 -0.266436E-07  0.103E-04    6.11      35.2  T
     SCC iter.                  ...        0 min,  2.396 sec
     gradient                   ...        0 min, 12.658 sec
 * total energy  : -1283.3029227 Eh     change       -0.2575198E-03 Eh
   gradient norm :     0.0086826 Eh/a0  converged?    E=F G=F D=F
   step length   :     0.1632693 a0

........................................................................
.............................. CYCLE   19 ..............................
........................................................................
   1  -1291.1214042 -0.129112E+04  0.122E-02    6.11       0.0  T
   2  -1291.1214047 -0.566087E-06  0.740E-03    6.11       1.0  T
   3  -1291.1214050 -0.265193E-06  0.395E-04    6.11       9.2  T
   4  -1291.1214050 -0.134385E-07  0.132E-04    6.11      27.7  T
     SCC iter.                  ...        0 min,  2.379 sec
     gradient                   ...        0 min, 12.584 sec
 * total energy  : -1283.3032253 Eh     change       -0.3025286E-03 Eh
   gradient norm :     0.0091367 Eh/a0  converged?    E=F G=F D=F
   step length   :     0.2091386 a0

........................................................................
.............................. CYCLE   20 ..............................
........................................................................
   1  -1291.1211725 -0.129112E+04  0.554E-03    6.11       0.0  T
   2  -1291.1211730 -0.519955E-06  0.338E-03    6.11       1.1  T
   3  -1291.1211733 -0.255919E-06  0.403E-04    6.12       9.0  T
   4  -1291.1211733 -0.145048E-07  0.139E-04    6.12      26.2  T
     SCC iter.                  ...        0 min,  2.344 sec
     gradient                   ...        0 min, 12.424 sec
 * total energy  : -1283.3032806 Eh     change       -0.5533735E-04 Eh
   gradient norm :     0.0051849 Eh/a0  converged?    E=F G=F D=F
   step length   :     0.1018068 a0
 * RMSD in coord.:     0.1262325 a0     energy gain  -0.1163976E-01 Eh
 * calculating model hessian...
Using Lindh-Hessian (1995)
 Shifting diagonal of input Hessian by   1.000000227860952E-002
 Lowest  eigenvalues of input Hessian
    0.010000   -0.000000   -0.000000   -0.000000   -0.000000   -0.000000
   -0.000000   -0.000000   -0.000000   -0.000000   -0.000000   -0.000000
   -0.000000   -0.000000   -0.000000   -0.000000   -0.000000   -0.000000
 Highest eigenvalues
    0.290529    0.312332    1.198537    1.226308    1.361901    1.422722
 

........................................................................
.............................. CYCLE   21 ..............................
........................................................................
   1  -1291.1216133 -0.129112E+04  0.109E-02    6.11       0.0  T
   2  -1291.1216157 -0.241189E-05  0.663E-03    6.10       1.0  T
   3  -1291.1216164 -0.667844E-06  0.838E-04    6.09       4.3  T
   4  -1291.1216164 -0.780867E-07  0.199E-04    6.09      18.3  T
     SCC iter.                  ...        0 min,  2.362 sec
     gradient                   ...        0 min, 12.582 sec
 * total energy  : -1283.3037588 Eh     change       -0.4782289E-03 Eh
   gradient norm :     0.0062897 Eh/a0  converged?    E=F G=F D=F
   step length   :     0.1780518 a0

........................................................................
.............................. CYCLE   22 ..............................
........................................................................
   1  -1291.1219331 -0.129112E+04  0.736E-03    6.09       0.0  T
   2  -1291.1219345 -0.142515E-05  0.443E-03    6.08       1.0  T
   3  -1291.1219348 -0.246485E-06  0.623E-04    6.07       5.8  T
   4  -1291.1219348 -0.485359E-07  0.115E-04    6.07      31.8  T
     SCC iter.                  ...        0 min,  2.360 sec
     gradient                   ...        0 min, 12.568 sec
 * total energy  : -1283.3039305 Eh     change       -0.1717090E-03 Eh
   gradient norm :     0.0062916 Eh/a0  converged?    E=F G=F D=F
   step length   :     0.1496865 a0

........................................................................
.............................. CYCLE   23 ..............................
........................................................................
   1  -1291.1228583 -0.129112E+04  0.406E-03    6.08       0.0  T
   2  -1291.1228587 -0.399579E-06  0.246E-03    6.07       1.5  T
   3  -1291.1228588 -0.908717E-07  0.336E-04    6.07      10.8  T
   4  -1291.1228588 -0.144355E-07  0.796E-05    6.07      45.7  T
     SCC iter.                  ...        0 min,  2.362 sec
     gradient                   ...        0 min, 12.589 sec
 * total energy  : -1283.3039878 Eh     change       -0.5728474E-04 Eh
   gradient norm :     0.0018467 Eh/a0  converged?    E=F G=F D=F
   step length   :     0.0731319 a0

........................................................................
.............................. CYCLE   24 ..............................
........................................................................
   1  -1291.1232834 -0.129112E+04  0.401E-03    6.07       0.0  T
   2  -1291.1232836 -0.160549E-06  0.243E-03    6.07       1.5  T
   3  -1291.1232837 -0.469774E-07  0.203E-04    6.06      17.9  T
   4  -1291.1232837 -0.582895E-08  0.606E-05    6.06      60.0  T
     SCC iter.                  ...        0 min,  2.379 sec
     gradient                   ...        0 min, 12.650 sec
 * total energy  : -1283.3039982 Eh     change       -0.1039236E-04 Eh
   gradient norm :     0.0024175 Eh/a0  converged?    E=F G=F D=F
   step length   :     0.0726525 a0

........................................................................
.............................. CYCLE   25 ..............................
........................................................................
   1  -1291.1232446 -0.129112E+04  0.611E-04    6.07       0.0  T
   2  -1291.1232447 -0.195257E-07  0.362E-04    6.07      10.0  T
   3  -1291.1232447 -0.316300E-08  0.761E-05    6.07      47.8  T
     SCC iter.                  ...        0 min,  1.792 sec
     gradient                   ...        0 min, 12.587 sec
 * total energy  : -1283.3040022 Eh     change       -0.3961065E-05 Eh
   gradient norm :     0.0011621 Eh/a0  converged?    E=F G=F D=F
   step length   :     0.0112078 a0

........................................................................
.............................. CYCLE   26 ..............................
........................................................................
   1  -1291.1230849 -0.129112E+04  0.760E-04    6.07       0.0  T
   2  -1291.1230849 -0.327848E-07  0.449E-04    6.07       8.1  T
   3  -1291.1230849 -0.598493E-08  0.102E-04    6.08      35.7  T
     SCC iter.                  ...        0 min,  1.783 sec
     gradient                   ...        0 min, 12.598 sec
 * total energy  : -1283.3040035 Eh     change       -0.1320699E-05 Eh
   gradient norm :     0.0005119 Eh/a0  converged?    E=F G=T D=F
   step length   :     0.0117592 a0

........................................................................
.............................. CYCLE   27 ..............................
........................................................................
   1  -1291.1231032 -0.129112E+04  0.465E-04    6.07       0.0  T
   2  -1291.1231032 -0.412047E-08  0.282E-04    6.07      12.9  T
   3  -1291.1231032 -0.101363E-08  0.336E-05    6.07     108.4  T
     SCC iter.                  ...        0 min,  1.787 sec
     gradient                   ...        0 min, 12.503 sec
 * total energy  : -1283.3040040 Eh     change       -0.4564197E-06 Eh
   gradient norm :     0.0001465 Eh/a0  converged?    E=T G=T D=F
   step length   :     0.0078403 a0

   *** GEOMETRY OPTIMIZATION CONVERGED AFTER 27 CYCLES ***

------------------------------------------------------------------------
 total energy gain   :        -0.0123631 Eh       -7.7580 kcal/mol
 total RMSD          :         0.1249244 a0        0.0661 Å
 total power (kW/mol):        -1.2021978 (step)   -0.0711 (real)
------------------------------------------------------------------------

 L-ANCopt (total)              0 d,  0 h,  7 min, 36.679 sec
 setup                          ...        0 min,  0.030 sec (  0.007%)
 model hessian                  ...        0 min, 15.313 sec (  3.353%)
 ANC generation                 ...        0 min,  5.052 sec (  1.106%)
 coordinate transformation      ...        0 min,  0.002 sec (  0.000%)
 Rational function              ...        0 min,  0.000 sec (  0.000%)
 singlepoint calculation        ...        7 min, 16.091 sec ( 95.492%)
 optimization log               ...        0 min,  0.184 sec (  0.040%)
 hessian update                 ...        0 min,  0.001 sec (  0.000%)

================
 final structure:
================
$coord
       10.69335539985200      -14.97022315603700       -1.75856318277900      o
        8.89213075784900      -15.19164701465100       -1.41444296189100      h
       10.76861500189900      -15.09357623133700       -3.58890190500600      h
       -2.09810297838600        6.02898559378800        7.85289097267700      o
       -0.46384107548400        5.54479131038200        8.55190490044900      h
       -1.76281856612700        6.44724833754200        6.10133194555600      h
       -2.75658871868400       -3.24428842142600       -4.62341315384600      o
       -1.61682730093100       -4.49419339882400       -5.36512593095900      h
       -4.24968174331600       -4.22559320632900       -4.26079938355600      h
       -8.80645311365000        3.99272060840300       -1.39871582784900      o
       -7.79372716412600        4.15730002646000        0.13868073866200      h
       -9.19352697733100        5.70713094209700       -1.89121704095900      h
       -5.92134185660200        4.47928783844600        2.74202867636500      o
       -5.77288933088300        6.24056122687500        3.26727030825200      h
       -5.91561676743300        3.49771710957500        4.27359243554800      h
       -7.26662273677400       -4.65660976248300        8.25699896250300      o
       -8.38977967685200       -3.20849838313200        8.20727118451800      h
       -8.09947791558500       -6.01485234909800        7.30747779468100      h
       -0.39854373277500       -7.21576683208200       -6.58717283599800      o
       -1.63522289960100       -8.55311509493100       -6.83927692338900      h
        0.80012941863800       -7.90144430866100       -5.34489163555500      h
        0.87164171963900      -11.90492154254700        0.23394179636500      o
        0.62546097559100      -10.83859332315200        1.72410587257700      h
        1.38128540519700      -13.55246921853700        0.88383268264400      h
       -4.32663527170500       -7.16076816301600        3.68631230733500      o
       -2.50706767180400       -7.05752662897900        3.82601499996400      h
       -4.89841825440500       -7.76809744640200        5.32903100560300      h
        1.24878547955700        4.48778471622200      -10.04015762015200      o
       -0.59718850674000        4.54905140443900       -9.83195473989200      h
        1.93251293300100        5.72326339174100       -8.86739746035200      h
       -5.08512861399200       -0.11908187740300       -7.67804223635800      o
       -4.21258121446900       -1.35562210874300       -6.57218598357800      h
       -3.92812327952300        0.01847959131900       -9.11247202629200      h
       -1.76779402463400        8.15707356623800       -5.86851454935900      o
       -0.90498786380200        9.03804132607700       -7.22186190143500      h
       -2.62950205343300        6.74995176928000       -6.64670320300600      h
       -7.75600039030400       -8.58974242487300       -0.12660536773600      o
       -9.50681492398200       -8.73715067102500        0.41856869435400      h
       -6.80901441286400       -7.92462516416500        1.28725742485600      h
       -4.97004956902300        3.76559076933900       -4.52468078125700      o
       -6.46020494493700        3.43655718369300       -3.47746503884200      h
       -4.93034913083800        2.52210658107300       -5.88521921973700      h
       -1.00505832525800        5.07359667269100       -1.83253764986000      o
       -2.47045373340500        4.40428507906800       -2.72431486398300      h
       -0.45795340695500        6.46384693987000       -2.87358518353600      h
        0.94350654844800        0.78750706200000       -6.02125897813500      o
       -0.05467518143200        0.62033226654500       -7.53749801342600      h
        1.26283656746700       -0.90534074593500       -5.35812605723100      h
       -3.44089680270800       -2.15834502922500        6.23006112394200      o
       -4.11716643360700       -0.49152953227800        6.60564304029200      h
       -4.68804620837300       -3.36000628352800        6.87013304426600      h
       -9.42609165008300       -0.40676321371000       14.00497298069800      o
      -10.79025406307100        0.61077048397700       13.32037052348000      h
      -10.05308167966300       -2.12895206267900       14.06767933867800      h
        0.53204105766000       -8.78065971674600        4.22578657877300      o
        0.27859352781000       -9.81942807444100        5.71040225197900      h
        2.32021005040900       -8.25225391147800        4.33075115453800      h
       -5.96737714447500        3.24534562577400       12.75373903066100      o
       -6.87428716116800        2.12931927460400       13.87120941194600      h
       -4.23066571983800        3.46060646937100       13.34985723479500      h
        1.32237357232600       -3.49397755073600        5.20350646435600      o
        1.71641110768800       -4.92427277487300        6.29543509806100      h
       -0.41609745248700       -3.02036034088100        5.61014200496800      h
        4.64828066289200        2.78049797699200        3.86836974721900      o
        6.03758339218900        1.90761053829100        4.68832501853900      h
        4.70250043832200        4.54000141616100        4.41346774840600      h
        0.28706653022100       -5.53611171235900       -0.03562842364000      o
        0.86988951962900       -6.36914904960200        1.46958329256200      h
       -0.91587337483100       -6.71120563022700       -0.86913240508500      h
        1.62595300750500       10.28796199538100       -2.36909381593600      o
        2.52694622894400       11.25639966577600       -1.10362010699400      h
        0.42452526474800       11.43329302302200       -3.18175140934800      h
       -2.68511870597000       -0.56835167558000       16.34529045749200      o
       -2.16773409140800        1.13393881985800       15.94188664966400      h
       -3.79624748822400       -1.12371873897200       14.98943377120900      h
      -10.25457766325800       -0.43896202682600        8.16571391011800      o
      -10.33003845649000        0.39164427284700        6.50997665829400      h
      -10.99085024118400        0.76747672604100        9.34593376045700      h
      -13.07120331266700        0.86987284582100       -0.64574640263300      o
      -11.76494539013300        2.02373639732700       -1.19834045873400      h
      -12.80983151316800        0.68085558154900        1.14603650126600      h
        3.82482923056800        6.51528344812100        0.35698071606500      o
        2.97642676784700        7.66783706087400       -0.76983178094200      h
        5.40655088599200        7.30238575746800        0.83277953345900      h
       -6.67660786123000       -6.51621971473200       -4.78912399618200      o
       -7.35796699030500       -7.97056450328200       -5.69130574564000      h
       -7.97579475297200       -6.08704459125900       -3.54644906793600      h
        2.86015287145900       -3.30306864074200       -3.79332833916600      o
        3.70427951023400       -4.53664793740400       -4.86610818953200      h
        1.99732146388900       -4.21690180281000       -2.44989454667800      h
       -8.84777565630800      -10.29277521165600       -7.38510016227800      o
      -10.44069340148900       -9.81067899856500       -6.55044143809200      h
       -8.97955072691500       -9.42414629305900       -9.01023885285600      h
      -10.70319890087500       -4.95313836633900       -2.18231102183000      o
      -11.39335941703200       -4.72599640997400       -0.50157705170500      h
      -10.60865411525800       -3.29750030188400       -2.97002009799100      h
        2.50069943973000        4.88566193925300        9.68630197960500      o
        4.01988683149400        4.17190141881800        8.97635294986000      h
        3.06877526558900        6.20020717575800       10.83719536379900      h
        4.88578816463100       -2.35654159950100        1.58687464725900      o
        3.63054988795200       -2.93215537511900        2.79354550647200      h
        4.19710851237300       -0.90932138996300        0.70463907954000      h
        4.23765042303600       -1.00972619666200        8.44590588492000      o
        3.27256589691700       -1.73267337904900        7.03884469922200      h
        2.97973557971900       -0.38040940308000        9.59868334837400      h
        4.89018063625800        7.55550167083900        5.47948407174600      o
        3.65955208468300        8.21924692228800        6.67919751786000      h
        6.56984400671300        7.55963915324000        6.19070616016300      h
       -7.38521996504500        8.16553852786500       -5.36799203654400      o
       -6.16255855249700        6.84758579932200       -4.98790282069200      h
       -8.56806154236500        7.35573118826000       -6.52053382490400      h
      -11.81720957529400       10.99038273318800       -4.14438372805400      o
      -12.28282155151600       10.79608002732400       -5.91020153965000      h
      -10.08013287948200       11.59858009809400       -4.04602311803800      h
        5.32232629686300       -5.69644862460600       13.20798625965100      o
        6.22139383011300       -4.08798477772800       12.86255273157400      h
        3.84682654712000       -5.21516839971500       14.16001124575900      h
       -4.79247622469600       -9.66156847915200        8.01990481526000      o
       -5.44968295406300       -8.81106622495500        9.51855575332200      h
       -5.67141610299000      -11.29653964533500        7.91594246415700      h
        2.36297479166100       -6.66632510833900        9.04968566752100      o
        0.80236553815600       -7.08312685205000        9.93612789956200      h
        3.46029140708000       -5.94933301196700       10.34014779735600      h
        0.04232306467600        1.65871315558800        5.33783083536100      o
        1.86225190288800        1.76761685262100        4.99748209154000      h
       -0.58186553084300        3.24371940132100        4.62134264745200      h
       -2.36738294706800       -4.44857838071100      -16.29026647233500      o
       -1.21257565791800       -5.75122081927700      -15.77664442175800      h
       -1.37948229842700       -2.91095966519800      -16.43965865634500      h
        7.70017945366700       -4.89358646533700        7.96983451159600      o
        6.68855955941900       -3.42103863646700        8.43077568393600      h
        7.99893021366800       -5.84631844195300        9.50227059624600      h
      -14.40446690490800        4.16676831313600        6.24760869694200      o
      -12.74601736250000        4.67633822813900        6.84321632206900      h
      -15.65310694888900        5.05872002682100        7.27216855671400      h
      -18.27980392260200       10.58630660111900        5.69469902297000      o
      -16.53932832034400       11.04288990951700        5.32508562990800      h
      -18.95053181744800       10.14329512402000        4.04433409005500      h
      -16.09489547358900       -5.79363767483100        0.90679227316000      o
      -16.65696429340100       -4.04016324945600        0.77999182391200      h
      -17.15983293084100       -6.73133207254600       -0.26785767343800      h
        4.07296470770500      -12.82447792635700        5.36105937167400      o
        5.84876805874100      -12.88076933294500        5.81096744085300      h
        3.14025777109200      -12.65905444651900        6.91147963349700      h
       10.08089636221300       -7.35502344715300       11.94432198295900      o
       11.56120342453900       -6.33600213943400       12.34464860375900      h
        8.80949851756700       -7.00766528535300       13.19834152491700      h
        5.36837720974600        3.07264955376200       -6.45209656514700      o
        4.83625124972300        4.78857530782800       -6.00704670586200      h
        3.76128727375800        2.13518049755200       -6.53149204143800      h
        7.88360121823800       -9.91132609761000       -5.13002655802000      o
        9.15325338337500       -9.54275489672400       -3.85650119999500      h
        7.34324384252600       -8.32668487814500       -5.85226103612200      h
      -17.33678070482500        7.10051560114300       -5.69914961708700      o
      -16.58849641649400        8.30849952849400       -6.84123237362800      h
      -16.03794865637300        6.79114205984600       -4.40726994183400      h
       11.36202388779900        4.48819281255600        2.83956457615000      o
       10.02310003154700        4.07264181665700        1.60801868980500      h
       12.17912379190300        2.84371032723500        3.08610642736200      h
       -2.83422561090400        6.06598404096200      -15.83213927125300      o
       -1.06518108544600        5.57892755898100      -15.75632982868500      h
       -3.80095063344200        4.63240584166400      -15.20563797733900      h
      -14.82961754705800       -2.69365414908400       -3.97313608884100      o
      -16.65575374119400       -2.68891425096400       -3.93508954674300      h
      -14.26412030214600       -1.40183691207700       -2.79406003614000      h
       -5.39942625217900        2.42293670499000        7.68836757365600      o
       -5.81660644355700        2.14355743593400        9.45452530292000      h
       -4.08531886101800        3.76777740751700        7.74926807966000      h
        7.14487784074500      -10.98146406858100        1.29397655636200      o
        8.77800271273900      -11.56180518490200        1.85915481156500      h
        6.35003843816000      -12.36833214412900        0.38254534973800      h
       -4.04227610630900      -11.99491910215500        1.93890135263900      o
       -3.93871703708500      -10.34052721936700        2.74751884104000      h
       -5.80138927379500      -12.50433708375900        2.18966976642200      h
        4.05836279586200        0.10009855903500      -10.75741080654100      o
        2.86008250864700        1.46308219158900      -10.46238043883400      h
        3.12245875625900       -1.46961530811100      -10.76418684449900      h
        0.49941094350900       -0.15918798967300      -15.56624933845400      o
        2.00147380426000       -1.23761735661100      -15.43713701699900      h
        1.07227539331500        1.51270319797900      -15.99215366813000      h
       -0.60454504148600        0.14718651818100       10.18187683253800      o
       -0.52678084126300        0.70954577054200        8.41302358721900      h
       -2.27135435203700       -0.59209738623300       10.43216199029400      h
       -2.66277759743500       -9.14084787921500      -11.90620760253400      o
       -4.14304182383000       -9.20463957672700      -13.02414475690100      h
       -2.89628468842400      -10.34745770708300      -10.54451636754000      h
        2.74095443651500        1.70702886250300       -1.15258620523500      o
        2.97255915229600        3.42367773362000       -0.51779849478000      h
        2.01370580682200        1.87379785197100       -2.82068063204400      h
       -2.80111283107700       -8.74037296066000       -2.08975515123200      o
       -3.28112589891000       -9.98940935613900       -0.84047401602300      h
       -4.34194385337000       -8.08170499824600       -2.83064007644600      h
       10.49194441726400       -7.14948800785600        2.47551380495800      o
       10.97097153777900       -7.84156711212400        4.09479415045200      h
       11.09659481796300       -8.24579963432300        1.13840784579400      h
       -6.10945243622100       -2.54729266522100      -13.44319626565200      o
       -4.82797891787700       -3.15912234607400      -14.61194080013900      h
       -5.66145079495700       -3.33629514182100      -11.81571362193500      h
      -12.63383956502600       -9.39823379560900        1.20797949386600      o
      -13.55185451166200       -7.81242403783600        1.33043951019400      h
      -13.44387513647100      -10.29569670170600       -0.18999139399900      h
       -3.72224325777000        5.14945743152300       -9.64096332616400      o
       -3.90474892420700        6.79354129786300      -10.46101816563300      h
       -4.49653335424900        3.95752397296900      -10.81184456943600      h
      -17.15599584211200        4.61163424804000        1.86551767606200      o
      -15.64375594125100        4.61878190797500        2.90947205176600      h
      -17.53867569120400        6.40115973747600        1.50712927460300      h
        8.87962978001000      -12.81763561627700        7.30823513523600      o
        9.99884304287800      -11.36413159892800        7.17492865094000      h
        7.80340594057300      -12.42591902872000        8.74422538980600      h
        3.71883572302400        1.35564849177400       14.47786961045900      o
        2.94054615933400       -0.27350798634100       14.80174131367600      h
        2.32550656315100        2.52843668981500       14.27619725949700      h
        7.09113614708200       -0.61239625810800       -3.39391797769200      o
        6.74542450312400        0.59718927907100       -4.72418710263600      h
        5.52286103034700       -1.58128199367400       -3.22538974293800      h
        8.55388316761800        9.05183905313700        1.91681530646300      o
        9.29081839627800       10.40248023242700        0.92557428525900      h
        9.80727407636500        7.74400374819600        1.98941540080500      h
       -9.24232401426300       -0.50942217887400       -4.30924098665900      o
      -10.67619151567500        0.52938824525500       -4.83938483052000      h
       -7.96269387577200       -0.40666600186100       -5.59620833650300      h
       11.82313230012900      -13.06267137726200        2.94997722237700      o
       10.98325983319800      -13.78587816642000        4.39865296384800      h
       11.75711764466200      -14.26129765572300        1.57193466117600      h
       -5.79690265602100        2.54129028919300      -13.42331756923900      o
       -5.83240914868500        0.69386073033400      -13.53463379435500      h
       -7.49601413012300        3.14650280664000      -13.78236475278600      h
        8.28361262727000       -1.81524377332500       -8.67733332494300      o
        6.93257694236500       -0.67798685661600       -9.17174499278400      h
        8.70951275154900       -2.71418972670900      -10.23900495988800      h
      -16.56248678202800       -6.54557336401800        5.89091934449300      o
      -16.24720770748900       -6.33243563943000        4.07509752705500      h
      -15.50014378735800       -5.32375075489800        6.76733863356100      h
      -18.07598700802100       -1.16537218266000        0.93807545509400      o
      -17.98717887764100       -0.05190757762300       -0.53135397843800      h
      -19.77194588822700       -1.05254344961800        1.65481904645700      h
      -15.22051534055000      -11.58077646061400       -2.56632973684500      o
      -16.89231857260800      -10.87154578543300       -2.41100742745400      h
      -14.33240398028400      -10.46661048095700       -3.76599160648000      h
      -15.56834013653600       12.82618888026300       -1.21370886780000      o
      -14.80941838619400       14.11009465127100       -0.18859709825800      h
      -14.23208242999700       12.19378494325300       -2.31465134480600      h
      -10.45170405149300       13.94294144933600        0.85386702425600      o
       -9.02123032157500       14.27429262342100        1.96870759790400      h
       -9.82642647834100       14.34312312059700       -0.81600450140300      h
       -3.88870439500700       10.06901547262300       -1.46000275975600      o
       -3.18045157722800        9.39588764471900       -3.01641856813700      h
       -2.57588374243400       10.06730338563700       -0.19139298276000      h
       -0.57439751606100        8.80556989939400       12.23050495820600      o
        0.77170727215300        9.29502040393800       13.34543811141800      h
        0.06434793853400        9.16295905610200       10.52783441015600      h
        4.02292537646100       11.49460630375500        2.18051844574700      o
        4.69187595665000       10.07714194672700        3.14335214801200      h
        5.30607233784000       12.80879645584200        2.26710660110400      h
       -3.76791176684300        9.47416558735000      -12.34156529023900      o
       -3.39330117473300        8.44050885727800      -13.85337538653900      h
       -2.13980818695800       10.07945395896300      -11.72480591664100      h
        2.16784462903800        4.90476181062700      -14.93569144713400      o
        2.98012541241900        6.53550872291800      -15.01352097575000      h
        1.83876638860100        4.67612749402700      -13.10527242024700      h
        7.74915336139000        3.28291969594500       -0.24736347174100      o
        7.69979409924000        1.76772965414300       -1.30045972704900      h
        6.43676556301800        3.07598125248200        1.03045028371000      h
        7.15958323681600        5.07099122078700      -10.86596682083400      o
        6.41204589176800        4.13602798049200       -9.46735771374600      h
        7.19799155447500        3.91705135137500      -12.30300010435100      h
        0.61821009920200       10.49153885108400       -9.98363923404400      o
        1.38555382633000       11.90854867346300       -9.11765036804500      h
        1.98545287395800        9.74873973779600      -10.98158795863600      h
      -11.48734323957900       -3.97569972432300        2.96371511485600      o
      -10.09691533816100       -2.89587317470900        2.44806712556000      h
      -12.74525774709200       -2.87705579827800        3.73960437415600      h
        3.14539975848500      -13.66824539342500       -5.57638524244200      o
        1.43335947277900      -14.23321567294900       -5.32471329455800      h
        3.20246716421600      -11.94846977098000       -4.83375659169500      h
       15.18580762484000       -5.13416281852300        3.63684762946900      o
       14.50950366045600       -4.90059286277700        1.91787767089600      h
       15.44876908391700       -6.94502797342400        3.79774694173400      h
        5.15789588728700       -7.18874167646600        4.11768802234600      o
        6.15352287001100       -6.53551177123500        5.50827131385000      h
        5.98926290464600       -8.69032562718200        3.47830969456200      h
        3.15713670122600       14.09957624407400       -7.21442741303700      o
        3.96462761117100       15.64160458142100       -7.69662479733200      h
        4.20200045406300       13.35200164572500       -5.86629375514000      h
      -10.90363338477500       -5.31466017114900       13.16300808825400      o
      -11.88214662266500       -5.02416389888000       11.60235876745700      h
      -11.73230392534300       -6.65452279827700       14.05079412633900      h
      -14.84112064055800       -2.97400236208200      -12.32808707124000      o
      -15.15073868159000       -4.69204681905600      -12.85352162430400      h
      -13.90890059599300       -3.13944091739700      -10.68980356922400      h
       -7.36869688032300       13.56797110442700       -3.28776513733800      o
       -6.08444975488900       12.46442956090000       -2.56343697554200      h
       -6.81966444476500       13.86961025196000       -4.99530781273600      h
       -5.25475022830700       12.02241120206100       -7.73127101493400      o
       -4.97816573977500       11.54187062346600       -9.45830517244800      h
       -5.98177252080000       10.51842776067100       -6.88010923069500      h
        7.31229565306700        3.08967366360400        9.01547250745400      o
        9.09760235993500        2.89029343494500        8.59536230317200      h
        6.59690365511900        1.40114665584800        8.81835613287700      h
      -12.81940782187100       -8.19395476366500       -5.26892561879900      o
      -14.16708470484900       -7.37672722463500       -6.21336844614200      h
      -12.18232192252600       -6.91413287468200       -4.06214548864000      h
        1.94074696955000       -8.18507540894700      -13.59032203405700      o
        3.06171171508800       -9.21810253222100      -12.56746192268400      h
        0.24357290334100       -8.79352585955800      -13.17515848829200      h
        2.81415294602800       -9.21704214104000       -3.42940449122900      o
        4.24188120271800       -8.26347487267300       -2.73265896894400      h
        1.98442555241300      -10.04114644703400       -1.99101415639100      h
       -8.52138407194600        9.02878852825200        0.20655802991200      o
       -9.25456093389200       10.70228262265100        0.26611287076100      h
       -6.81021892229500        9.21381954394600       -0.44304442673900      h
      -12.23296979541400       -3.25006465262700       -8.17482271932800      o
      -13.23074655815700       -3.03082733846100       -6.61086324552200      h
      -11.28908978571800       -1.67917811434300       -8.41322586424100      h
      -18.57652696924300        9.24930887676500        0.75136096570000      o
      -17.44676568396000       10.55363417902700        0.08367536106900      h
      -19.91314925380600        9.04845431982500       -0.50886766544000      h
       10.69820425220100       14.29489476002800        6.60713556096500      o
        9.91881052220600       13.60919255317200        8.10871660225900      h
       12.05254338177700       13.12619914374200        6.19614670687100      h
      -13.28936440768400        2.27588791891800       -5.79636478124600      o
      -13.00815446831600        3.89746458965400       -4.98601719922700      h
      -13.47286804330900        2.55597857984300       -7.59739899688800      h
        4.68552903974000        8.39939983796700       12.76517444135800      o
        5.70969372474500        9.61209272654700       11.85411676155500      h
        5.86517583465300        7.16476368542400       13.45867974296600      h
        6.55061388597800        1.89248871654100      -14.78129128678000      o
        5.20678558598700        2.87759488588000      -15.52726728223400      h
        5.71330736188500        0.73209675204100      -13.61044991313500      h
       -0.27969963089500      -11.60663301575000        8.56387994166600      o
        0.31533492368900      -11.39726197248200       10.26204995241100      h
       -1.97411347078700      -10.80094074148200        8.52294936010700      h
       12.17341775835200        0.70638713802600       -2.45702410303900      o
       13.49211656128200        1.45850118295000       -1.43408095049300      h
       11.30099574573600       -0.52696122977800       -1.41101839674700      h
      -15.02552021585400       -0.71504567826700        4.86670071877200      o
      -16.18296125196300       -0.73523377497400        3.41802950659700      h
      -14.48435438042100        1.03372794080400        5.10927700275700      h
       20.06624004402600        7.95804043733900        4.87079817469900      o
       20.15449105031500        7.86212020505200        3.03626155080800      h
       18.48111063578200        7.15168876946800        5.31845954756300      h
      -22.38690547171300       -0.85079197602000        3.60222783949600      o
      -21.81407538373800        0.48909751904300        4.71798109389700      h
      -22.21719068861700       -2.42664302260500        4.52643723333800      h
       -9.57582356222200        5.45433224303700        7.86795611814500      o
       -8.20297099595700        4.28145126965600        7.52146295836700      h
       -9.44296916764700        5.88103026139100        9.65415149641900      h
      -12.16406815893800        6.49803879762300        2.26979779176500      o
      -12.98128584153400        7.95008762016700        3.06519333464900      h
      -10.56205802135200        7.19683847280200        1.67658575389300      h
      -13.05392646010500        2.38054953514100       11.39789360771100      o
      -13.27668233684100        4.19847807368000       11.33270533261400      h
      -14.65395302776200        1.63544610779400       10.84692573637800      h
       -1.31453072813400       -7.56861979292200       12.38924526934500      o
       -0.79106017008400       -6.16088767873400       13.42889427315900      h
       -3.12613311463900       -7.73852084422500       12.60354871976200      h
        5.23801448346400      -10.73573834427400       10.36782899136700      o
        5.74241789830500       -9.98543454172600       11.93654076934400      h
        4.25754615778500       -9.43237847333000        9.49940876805600      h
       -8.98518840378700        8.81305951034300      -12.51319640492500      o
       -7.21882573998000        9.25795300822300      -12.65544348334200      h
       -9.37717547878000        7.69487863726400      -13.89746999616000      h
        7.93231481961300        7.67633413745000       -3.02245965803600      o
        9.72631799956800        7.82423487812000       -2.64525870423800      h
        7.45875874201400        6.08764445433700       -2.21779773038600      h
       13.13292304302700       -0.86622130285800       -7.15989465684900      o
       12.91878441129500       -0.39797850686200       -5.39484748154100      h
       11.44836067067600       -0.94929878997400       -7.88403488124200      h
        7.65778357785100       15.05584710707300        2.60065959920500      o
        8.77080261120800       14.97036332627000        4.07565736536000      h
        8.74981601741500       14.56245577483800        1.21025497694300      h
        8.33843759593900       11.01781261235600       10.03080240636200      o
        9.63724543549000       10.53124471901900       11.22817810519700      h
        8.55155140018700        9.80183644607100        8.66615906076500      h
       10.04745707024500        7.31814257362500        6.84853491966000      o
       10.21397094123100        5.97817282586900        5.58085979696100      h
       11.42624913889900        8.47768330559000        6.45894931596300      h
       11.78590943061300       -9.91992259588000       -1.75321886053800      o
       11.52486530505900      -11.74206844923800       -1.65331041228000      h
       13.32391430860000       -9.63662911837900       -2.70083722645200      h
       12.28654821240800       -3.06640020453600        7.31393754013500      o
       13.25161648764000       -4.02588494222100        6.06130943684200      h
       10.65472712603000       -3.94913317174700        7.52011214559700      h
       21.55836595548300        1.91029549758100       -1.44466172318100      o
       23.00639516369200        0.91596348698000       -0.94932303383600      h
       20.22603158382100        0.67779629154900       -1.72690705303500      h
       -5.19551283817400        9.14616014754700        4.65177556439200      o
       -3.50482609456800        9.51784361142000        4.03868937697700      h
       -6.18590299175000       10.56854921505900        4.06316462275800      h
       14.56943142114600       10.45494325965600       -8.67601962204500      o
       15.74773868930000        9.93135384445700       -7.38165627563100      h
       13.92449966519700        8.88791726708000       -9.39209911344300      h
      -18.52845047839000       -1.97805897025900       -8.85251948846000      o
      -17.63139627069400       -2.20934397672300      -10.43279406564100      h
      -18.46395280647500       -0.17148963203700       -8.51536278354100      h
        7.82247808286400        4.42666576205500       13.77129823001100      o
        7.62742692458100        3.88537511645900       11.97433392867300      h
        6.58004495695800        3.43534931451900       14.67120963209900      h
      -14.42641439505500        2.57107489917500      -11.01534591905900      o
      -16.12809362405300        3.05164851244700      -10.54113389944200      h
      -14.54882801313100        0.89727075649500      -11.71884266965700      h
       -4.98799451435200       -2.02316297208200       11.91199987316200      o
       -5.37520478733300       -3.50795963227900       10.91236023936500      h
       -6.63739121934300       -1.37574844656000       12.41119355261000      h
      -13.38660165593700        6.45197074851600       -2.69143588596400      o
      -12.63283896250600        8.08978939722400       -3.10726901964800      h
      -13.25843532165400        6.28422462163200       -0.85517616384300      h
       -4.44043833535100       -4.98934776222200       -9.48525714313600      o
       -3.69168545772400       -6.48214927867500      -10.25884444033000      h
       -5.33270502005300       -5.51931397808000       -7.98769769566400      h
        6.39098838638700       -6.58203686870400       -1.14282295029100      o
        6.92419786481400       -8.02849892794000       -0.13059708933800      h
        5.73730634816000       -5.32299545014500        0.02700472012000      h
      -21.72063161274200        7.54249217814100       -2.86564097614500      o
      -20.26803156677600        7.33328177915300       -3.97162742934200      h
      -21.84652283244400        6.04569484637300       -1.80093952071900      h
       14.35383850583500       -4.52178122374300       11.68859049461000      o
       14.87282774528100       -3.13117691603000       12.73487288796200      h
       13.66398249104700       -3.77162340328100       10.12883454213400      h
       12.26486941011000        2.26701051572000        8.45443937386900      o
       13.49941216975200        3.09977771323700        7.39813816621700      h
       12.51365525608600        0.47210689212200        8.27524349874700      h
       19.44098108958800       -3.05271683027300        1.99751489415900      o
       20.89741975382700       -3.52800745481800        2.96664002360900      h
       17.95177017224800       -3.87789376493600        2.72862248804900      h
       16.87263772502200       -7.81101477395300        8.52336593299600      o
       16.21065792793100       -6.87847793762000        9.96417907394600      h
       18.26955192405700       -6.80548499967700        7.91704949566400      h
       13.07764488065900        5.54355123139600       -9.92841148559600      o
       14.63090931893000        4.57700774821700       -9.90226873694500      h
       12.19944931382700        5.09066129410000       -8.35512069452900      h
        3.42089146423300       16.12526241339200       -0.70550640535800      o
        4.59463117859600       16.58658895565500        0.60134932517700      h
        4.29649280847800       14.86751830435800       -1.71075011840100      h
        0.94059533227100       -3.05158444336800       14.11194569566300      o
       -0.34082252873100       -2.37189285514600       15.28124764526000      h
        0.52234756100400       -2.30087258020100       12.48889547880400      h
       16.03800613749000      -10.21874840502400        3.64512245537500      o
       14.51208071280300      -11.23075830431600        3.37363805958000      h
       16.53649344229200      -10.43666778935300        5.37921962746500      h
       10.02879137928200       -4.63831270432900       -3.96711148963600      o
        9.28231016484000       -2.95435627581600       -4.09653528044600      h
        8.80222743981900       -5.56175822181000       -2.92785885243800      h
        7.61636524422800       -1.46218456458200       12.18446318006900      o
        9.13868548187400       -0.98246943264300       13.13436698111300      h
        6.31600268329700       -0.30488259661800       12.73687995606600      h
        4.51949456161400       14.10295521485600        7.58300878216100      o
        5.89442383692000       13.49028813596400        8.60614986913800      h
        5.23768995855900       14.70217856224600        6.02357870309800      h
       -0.86838394605200       11.28818450626500        2.95024115794400      o
       -1.39811269346700       12.89803636800300        2.21408585452100      h
        0.95069946486400       11.22841126714300        2.61818602560500      h
       -0.57181774383100        6.07025097677100        3.00397526001000      o
       -1.16974907481900        5.70524969610400        1.28822739756400      h
        1.20816375594100        6.42186205733800        2.74790997500500      h
        6.19133527128500       12.53105235833500       -3.48539518572700      o
        6.57872658757100       10.76048534625200       -3.10914086425400      h
        7.77778702130900       13.26412100228900       -3.98827801689700      h
       13.73984395512400        0.12597023897100        3.05297478750300      o
       14.36366934947300       -0.78312066546500        4.49219562155800      h
       12.40050777314200       -0.90629580568100        2.30740417776100      h
        1.18943507493100       10.31676781198000        7.66063886551000      o
        2.28388424891900       11.79978329076300        7.73553831205800      h
        0.14513140228300       10.54701872374500        6.16463876074300      h
      -17.97490016067600        6.74466311118500        8.82932741346400      o
      -18.22273070029500        8.25160563154200        7.74505535460800      h
      -16.94512183913600        7.30067431582400       10.22461058946500      h
       -8.54048216168600        7.52610934207600       12.52605271776000      o
       -7.53956565669500        6.02675733647400       12.91108404809400      h
       -7.37213074556500        8.72624178578600       11.77248461715800      h
      -13.43802392170100       11.05880912607600        4.01337188865600      o
      -12.71356871929800       12.15790755369900        2.74338855887300      h
      -12.27158238356700       11.11384007411800        5.43825353927700      h
       14.26263714204200       -4.74837200449600       -1.27485202444300      o
       15.06753306160600       -6.17045537652200       -2.08421704628800      h
       12.63986495394800       -4.55065765033100       -2.17114232214000      h
      -10.09820503398000       -6.95192895703800      -10.98910700943600      o
      -10.53952447465300       -5.60284856666000       -9.80843126025500      h
      -11.71039986279800       -7.58387325014700      -11.58956612383500      h
      -10.72951287816100       -0.87685800954500      -14.54248916554000      o
       -9.23850244944400       -1.94576097487600      -14.46830742783600      h
      -12.19647142415000       -1.89022329190800      -14.10323649565000      h
      -21.41600224431400       -5.47901021370400        5.64131680620600      o
      -22.28112900580800       -6.54400329333900        6.81671197265700      h
      -19.58993356876300       -5.87415795795900        5.80265435555600      h
      -11.52746950275200      -14.78446348922900       -0.31130572598700      o
      -12.95471062683200      -14.09877215547800       -1.21676294064500      h
      -10.04472104262400      -14.48382912995900       -1.36201334350600      h
       -1.71138976058800       15.37163543762300        0.09967337050700      o
       -2.03558701520900       14.80425867581700       -1.61836313223300      h
        0.01578996686300       15.99198571949200        0.03488640914000      h
[...]
   385   8 o      387   1 h                                       0.9719924
   388   8 o      389   1 h                                       0.9717926
   388   8 o      390   1 h                                       0.9686295
   391   8 o      392   1 h                                       0.9668071
   391   8 o      393   1 h                                       0.9734959
   394   8 o      395   1 h                                       0.9693434
   394   8 o      396   1 h                                       0.9731003
   397   8 o      398   1 h                                       0.9984667
   397   8 o      399   1 h                                       0.9665548
   400   8 o      401   1 h                                       0.9687760
   400   8 o      402   1 h                                       0.9629737
   403   8 o      404   1 h                                       0.9691073
   403   8 o      405   1 h                                       0.9741533
   406   8 o      407   1 h                                       0.9791246
   406   8 o      408   1 h                                       0.9781073
   409   8 o      410   1 h                                       0.9739629
   409   8 o      411   1 h                                       0.9641616
   412   8 o      413   1 h                                       0.9759220
   412   8 o      414   1 h                                       0.9730219
   415   8 o      416   1 h                                       0.9724519
   415   8 o      417   1 h                                       0.9742957
   418   8 o      419   1 h                                       0.9609831
   418   8 o      420   1 h                                       0.9859577
   421   8 o      422   1 h                                       0.9661463
   421   8 o      423   1 h                                       0.9635800
   424   8 o      425   1 h                                       0.9593034
   424   8 o      426   1 h                                       0.9805048
   427   8 o      428   1 h                                       0.9734251
   427   8 o      429   1 h                                       0.9656693
   430   8 o      431   1 h                                       0.9681949
   430   8 o      432   1 h                                       0.9831283
   433   8 o      434   1 h                                       0.9610592
   433   8 o      435   1 h                                       0.9698699
   436   8 o      437   1 h                                       0.9859297
   436   8 o      438   1 h                                       0.9718426
   439   8 o      440   1 h                                       0.9795236
   439   8 o      441   1 h                                       0.9617455
   442   8 o      443   1 h                                       0.9771447
   442   8 o      444   1 h                                       0.9810862
   445   8 o      446   1 h                                       0.9828893
   445   8 o      447   1 h                                       0.9664485
   448   8 o      449   1 h                                       0.9631330
   448   8 o      450   1 h                                       0.9622729
   451   8 o      452   1 h                                       0.9777844
   451   8 o      453   1 h                                       0.9790348
   454   8 o      455   1 h                                       0.9806982
   454   8 o      456   1 h                                       0.9696419
   457   8 o      458   1 h                                       0.9795565
   457   8 o      459   1 h                                       0.9623332
   460   8 o      461   1 h                                       0.9593972
   460   8 o      462   1 h                                       0.9779434
   463   8 o      464   1 h                                       0.9761512
   463   8 o      465   1 h                                       0.9731111
   466   8 o      467   1 h                                       0.9911225
   466   8 o      468   1 h                                       0.9636850
   469   8 o      470   1 h                                       0.9754876
   469   8 o      471   1 h                                       0.9719054
   472   8 o      473   1 h                                       0.9679331
   472   8 o      474   1 h                                       0.9748792
   475   8 o      476   1 h                                       0.9649690
   475   8 o      477   1 h                                       0.9865739
   478   8 o      479   1 h                                       0.9770131
   478   8 o      480   1 h                                       0.9698647
   481   8 o      482   1 h                                       0.9716087
   481   8 o      483   1 h                                       0.9717025
   484   8 o      485   1 h                                       0.9560709
   484   8 o      486   1 h                                       0.9923588
   487   8 o      488   1 h                                       0.9652290
   487   8 o      489   1 h                                       0.9747368
   490   8 o      491   1 h                                       0.9726891
   490   8 o      492   1 h                                       0.9717547
   493   8 o      494   1 h                                       0.9685853
   493   8 o      495   1 h                                       0.9668870
   496   8 o      497   1 h                                       0.9665107
   496   8 o      498   1 h                                       0.9750553
   499   8 o      500   1 h                                       0.9679616
   499   8 o      501   1 h                                       0.9833176
   502   8 o      503   1 h                                       0.9715364
   502   8 o      504   1 h                                       0.9838301
   505   8 o      506   1 h                                       0.9607457
   505   8 o      507   1 h                                       0.9727509
   508   8 o      509   1 h                                       0.9665503
   508   8 o      510   1 h                                       0.9798461
   511   8 o      512   1 h                                       0.9582642
   511   8 o      513   1 h                                       0.9796059
   514   8 o      515   1 h                                       0.9619597
   514   8 o      516   1 h                                       0.9803851
   517   8 o      518   1 h                                       0.9751815
   517   8 o      519   1 h                                       0.9669057
   520   8 o      521   1 h                                       0.9900980
   520   8 o      522   1 h                                       0.9603731
   523   8 o      524   1 h                                       0.9616154
   523   8 o      525   1 h                                       0.9718639
   526   8 o      527   1 h                                       0.9868352
   526   8 o      528   1 h                                       0.9631425
   529   8 o      530   1 h                                       0.9672232
   529   8 o      531   1 h                                       0.9738290
   532   8 o      533   1 h                                       0.9750960
   532   8 o      534   1 h                                       0.9633446
   535   8 o      536   1 h                                       0.9654218
   535   8 o      537   1 h                                       0.9776736
   538   8 o      539   1 h                                       0.9758022
   538   8 o      540   1 h                                       0.9781795
   541   8 o      542   1 h                                       0.9733804
   541   8 o      543   1 h                                       0.9637849
   544   8 o      545   1 h                                       0.9800753
   544   8 o      546   1 h                                       0.9561742
   547   8 o      548   1 h                                       0.9815959
   547   8 o      549   1 h                                       0.9645953
   550   8 o      551   1 h                                       0.9715763
   550   8 o      552   1 h                                       0.9646152
   553   8 o      554   1 h                                       0.9648926
   553   8 o      555   1 h                                       0.9807664
   556   8 o      557   1 h                                       0.9722299
   556   8 o      558   1 h                                       0.9816749
   559   8 o      560   1 h                                       0.9777537
   559   8 o      561   1 h                                       0.9574433
   562   8 o      563   1 h                                       0.9740003
   562   8 o      564   1 h                                       0.9737205
   565   8 o      566   1 h                                       0.9783155
   565   8 o      567   1 h                                       0.9772724
   568   8 o      569   1 h                                       0.9586357
   568   8 o      570   1 h                                       0.9775330
   571   8 o      572   1 h                                       0.9623844
   571   8 o      573   1 h                                       0.9715651
   574   8 o      575   1 h                                       0.9762402
   574   8 o      576   1 h                                       0.9646088
   577   8 o      578   1 h                                       0.9810397
   577   8 o      579   1 h                                       0.9659041
   580   8 o      581   1 h                                       0.9718612
   580   8 o      582   1 h                                       0.9697848
   583   8 o      584   1 h                                       0.9565297
   583   8 o      585   1 h                                       0.9916672
   586   8 o      587   1 h                                       0.9798822
   586   8 o      588   1 h                                       0.9727011
   589   8 o      590   1 h                                       0.9766827
   589   8 o      591   1 h                                       0.9859452
   592   8 o      593   1 h                                       0.9702961
   592   8 o      594   1 h                                       0.9695564
   595   8 o      596   1 h                                       0.9835243
   595   8 o      597   1 h                                       0.9626698
   598   8 o      599   1 h                                       0.9900775
   598   8 o      600   1 h                                       0.9637526
   601   8 o      602   1 h                                       0.9734229
   601   8 o      603   1 h                                       0.9768371
   604   8 o      605   1 h                                       0.9846236
   604   8 o      606   1 h                                       0.9690726
   607   8 o      608   1 h                                       0.9634008
   607   8 o      609   1 h                                       0.9749517
   610   8 o      611   1 h                                       0.9841016
   610   8 o      612   1 h                                       0.9682666
   613   8 o      614   1 h                                       0.9750308
   613   8 o      615   1 h                                       0.9658888
   616   8 o      617   1 h                                       0.9769365
   616   8 o      618   1 h                                       0.9734564
   619   8 o      620   1 h                                       0.9790435
   619   8 o      621   1 h                                       0.9673671
   622   8 o      623   1 h                                       0.9911897
   622   8 o      624   1 h                                       0.9623405
   625   8 o      626   1 h                                       0.9613555
   625   8 o      627   1 h                                       0.9730737
   628   8 o      629   1 h                                       0.9631549
   628   8 o      630   1 h                                       0.9616326
   631   8 o      632   1 h                                       0.9691164
   631   8 o      633   1 h                                       0.9825512
   634   8 o      635   1 h                                       0.9707828
   634   8 o      636   1 h                                       0.9632517
   637   8 o      638   1 h                                       0.9677636
   637   8 o      639   1 h                                       0.9682193
   640   8 o      641   1 h                                       0.9703620
   640   8 o      642   1 h                                       0.9741182
   643   8 o      644   1 h                                       0.9570839
   643   8 o      645   1 h                                       0.9697222
   646   8 o      647   1 h                                       0.9797379
   646   8 o      648   1 h                                       0.9611894
   649   8 o      650   1 h                                       0.9827731
   649   8 o      651   1 h                                       0.9759362
   652   8 o      653   1 h                                       0.9768477
   652   8 o      654   1 h                                       0.9686322
   655   8 o      656   1 h                                       0.9721928
   655   8 o      657   1 h                                       0.9717784
   658   8 o      659   1 h                                       0.9826946
   658   8 o      660   1 h                                       0.9582335
   661   8 o      662   1 h                                       0.9726165
   661   8 o      663   1 h                                       0.9686318
   664   8 o      665   1 h                                       0.9681341
   664   8 o      666   1 h                                       0.9771934
   667   8 o      668   1 h                                       0.9708885
   667   8 o      669   1 h                                       0.9780418
   670   8 o      671   1 h                                       0.9768264
   670   8 o      672   1 h                                       0.9811140
   673   8 o      674   1 h                                       0.9923684
   673   8 o      675   1 h                                       0.9876206
   676   8 o      677   1 h                                       0.9642283
   676   8 o      678   1 h                                       0.9845981
   679   8 o      680   1 h                                       0.9700008
   679   8 o      681   1 h                                       0.9748032
   682   8 o      683   1 h                                       0.9788213
   682   8 o      684   1 h                                       0.9685444
   685   8 o      686   1 h                                       0.9877844
   685   8 o      687   1 h                                       0.9581662
   688   8 o      689   1 h                                       0.9839100
   688   8 o      690   1 h                                       0.9661847
   691   8 o      692   1 h                                       0.9993482 (max)
   691   8 o      693   1 h                                       0.9553648 (min)
   694   8 o      695   1 h                                       0.9611898
   694   8 o      696   1 h                                       0.9853885
   697   8 o      698   1 h                                       0.9561635
   697   8 o      699   1 h                                       0.9954428
   700   8 o      701   1 h                                       0.9850992
   700   8 o      702   1 h                                       0.9611768
   703   8 o      704   1 h                                       0.9770051
   703   8 o      705   1 h                                       0.9843155
   706   8 o      707   1 h                                       0.9817208
   706   8 o      708   1 h                                       0.9735065
   709   8 o      710   1 h                                       0.9811416
   709   8 o      711   1 h                                       0.9716779
   712   8 o      713   1 h                                       0.9808600
   712   8 o      714   1 h                                       0.9694859
   715   8 o      716   1 h                                       0.9787097
   715   8 o      717   1 h                                       0.9592808
   718   8 o      719   1 h                                       0.9669864
   718   8 o      720   1 h                                       0.9972257
   721   8 o      722   1 h                                       0.9769336
   721   8 o      723   1 h                                       0.9808658
   724   8 o      725   1 h                                       0.9760884
   724   8 o      726   1 h                                       0.9753783
   727   8 o      728   1 h                                       0.9559522
   727   8 o      729   1 h                                       0.9986979
   730   8 o      731   1 h                                       0.9836145
   730   8 o      732   1 h                                       0.9766625
   733   8 o      734   1 h                                       0.9566486
   733   8 o      735   1 h                                       0.9766427
   736   8 o      737   1 h                                       0.9713296
   736   8 o      738   1 h                                       0.9630369
   739   8 o      740   1 h                                       0.9693394
   739   8 o      741   1 h                                       0.9709512
   742   8 o      743   1 h                                       0.9624361
   742   8 o      744   1 h                                       0.9835552
   745   8 o      746   1 h                                       0.9692924
   745   8 o      747   1 h                                       0.9741297
   748   8 o      749   1 h                                       0.9795835
   748   8 o      750   1 h                                       0.9877975
   751   8 o      752   1 h                                       0.9595758
   751   8 o      753   1 h                                       0.9939488
   754   8 o      755   1 h                                       0.9624246
   754   8 o      756   1 h                                       0.9660130

 * 1 distinct bonds (by element types)

   Z      Z             #   av. dist./Å        max./Å        min./Å
   1 H    8 O         503     0.9732289     0.9993482     0.9553648


optimized geometry written to: xtbopt.coord


           -------------------------------------------------
          | TOTAL ENERGY            -1283.304003956393 Eh   |
          | GRADIENT NORM               0.005542163462 Eh/α |
          | HOMO-LUMO GAP               6.073762452061 eV   |
           -------------------------------------------------

------------------------------------------------------------------------
 * finished run on 2022/11/24 at 12:12:56.993     
------------------------------------------------------------------------
 total:
 * wall-time:     0 d,  0 h,  8 min, 12.993 sec
 *  cpu-time:     0 d,  0 h, 12 min,  7.895 sec
 * ratio c/w:     1.476 speedup
 SCF:
 * wall-time:     0 d,  0 h,  0 min, 20.100 sec
 *  cpu-time:     0 d,  0 h,  0 min, 31.958 sec
 * ratio c/w:     1.590 speedup
 ANC optimizer:
 * wall-time:     0 d,  0 h,  7 min, 51.817 sec
 *  cpu-time:     0 d,  0 h, 11 min, 34.180 sec
 * ratio c/w:     1.471 speedup

