      -----------------------------------------------------------      
     |                   =====================                   |     
     |                           x T B                           |     
     |                   =====================                   |     
     |                         S. Grimme                         |     
     |          Mulliken Center for Theoretical Chemistry        |     
     |                    University of Bonn                     |     
      -----------------------------------------------------------      

   * xtb version 6.5.1 (579679a) compiled by 'ehlert@majestix' on 2022-07-11

   xtb is free software: you can redistribute it and/or modify it under
   the terms of the GNU Lesser General Public License as published by
   the Free Software Foundation, either version 3 of the License, or
   (at your option) any later version.
   
   xtb is distributed in the hope that it will be useful,
   but WITHOUT ANY WARRANTY; without even the implied warranty of
   MERCHANTABILITY or FITNESS FOR A PARTICULAR PURPOSE.  See the
   GNU Lesser General Public License for more details.
   
   Cite this work as:
   * C. Bannwarth, E. Caldeweyher, S. Ehlert, A. Hansen, P. Pracht,
     J. Seibert, S. Spicher, S. Grimme, WIREs Comput. Mol. Sci., 2020, 11,
     e01493. DOI: 10.1002/wcms.1493
   
   for GFN2-xTB:
   * C. Bannwarth, S. Ehlert and S. Grimme., J. Chem. Theory Comput., 2019,
     15, 1652-1671. DOI: 10.1021/acs.jctc.8b01176
   for GFN1-xTB:
   * S. Grimme, C. Bannwarth, P. Shushkov, J. Chem. Theory Comput., 2017,
     13, 1989-2009. DOI: 10.1021/acs.jctc.7b00118
   for GFN0-xTB:
   * P. Pracht, E. Caldeweyher, S. Ehlert, S. Grimme, ChemRxiv, 2019, preprint.
     DOI: 10.26434/chemrxiv.8326202.v1
   for GFN-FF:
   * S. Spicher and S. Grimme, Angew. Chem. Int. Ed., 2020, 59, 15665-15673.
     DOI: 10.1002/anie.202004239
   
   for ALPB and GBSA implicit solvation:
   * S. Ehlert, M. Stahn, S. Spicher, S. Grimme, J. Chem. Theory Comput.,
     2021, 17, 4250-4261. DOI: 10.1021/acs.jctc.1c00471
   
   for DFT-D4:
   * E. Caldeweyher, C. Bannwarth and S. Grimme, J. Chem. Phys., 2017,
     147, 034112. DOI: 10.1063/1.4993215
   * E. Caldeweyher, S. Ehlert, A. Hansen, H. Neugebauer, S. Spicher,
     C. Bannwarth and S. Grimme, J. Chem. Phys., 2019, 150, 154122.
     DOI: 10.1063/1.5090222
   * E. Caldeweyher, J.-M. Mewes, S. Ehlert and S. Grimme, Phys. Chem. Chem. Phys.
     2020, 22, 8499-8512. DOI: 10.1039/D0CP00502A
   
   for sTDA-xTB:
   * S. Grimme and C. Bannwarth, J. Chem. Phys., 2016, 145, 054103.
     DOI: 10.1063/1.4959605
   
   in the mass-spec context:
   * V. Asgeirsson, C. Bauer and S. Grimme, Chem. Sci., 2017, 8, 4879.
     DOI: 10.1039/c7sc00601b
   * J. Koopman and S. Grimme, ACS Omega 2019, 4, 12, 15120-15133.
     DOI: 10.1021/acsomega.9b02011
   
   for metadynamics refer to:
   * S. Grimme, J. Chem. Theory Comput., 2019, 155, 2847-2862
     DOI: 10.1021/acs.jctc.9b00143
   
   for SPH calculations refer to:
   * S. Spicher and S. Grimme, J. Chem. Theory Comput., 2021, 17, 1701-1714
     DOI: 10.1021/acs.jctc.0c01306
   
   with help from (in alphabetical order)
   P. Atkinson, C. Bannwarth, F. Bohle, G. Brandenburg, E. Caldeweyher
   M. Checinski, S. Dohm, S. Ehlert, S. Ehrlich, I. Gerasimov, C. Hölzer
   A. Katbashev, J. Koopman, C. Lavigne, S. Lehtola, F. März, M. Müller,
   F. Musil, H. Neugebauer, J. Pisarek, C. Plett, P. Pracht, F. Pultar,
   J. Seibert, P. Shushkov, S. Spicher, M. Stahn, M. Steiner, T. Strunk,
   J. Stückrath, T. Rose, and J. Unsleber
   
 * started run on 2022/11/24 at 12:21:40.836     

           -------------------------------------------------
          |                Calculation Setup                |
           -------------------------------------------------

          program call               : xtb solvent_cluster.coord --gfn2 --sp --lmo --chrg 0
          hostname                   : cn0430
          coordinate file            : solvent_cluster.coord
          omp threads                :                     2

   ID    Z sym.   atoms
    1    8 o      1, 4, 7, 10, 13, 16, 19, 22, 25, 28, 31, 34, 37, 40, 43,
                  46, 49, 52, 55, 58, 61, 64, 67, 70, 73, 76, 79, 82, 85, 88,
                  91, 94, 97, 100, 103, 106, 109, 112, 115, 118, 121, 124,
                  127, 130, 133, 136, 139, 142, 145, 148, 151, 154, 157, 160,
                  163, 166, 169, 172, 175, 178, 181, 184, 187, 190, 193, 196,
                  199, 202, 205, 208, 211, 214, 217, 220, 223, 226, 229, 232,
                  235, 238, 241, 244, 247, 250, 253, 256, 259, 262, 265, 268,
                  271, 274, 277, 280, 283, 286, 289, 292, 295, 298, 301, 304,
                  307, 310, 313, 316, 319, 322, 325, 328, 331, 334, 337, 340,
                  343, 346, 349, 352, 355, 358, 361, 364, 367, 370, 373, 376,
                  379, 382, 385, 388, 391, 394, 397, 400, 403, 406, 409, 412,
                  415, 418, 421, 424, 427, 430, 433, 436, 439, 442, 445, 448,
                  451, 454, 457, 460, 463, 466, 469, 472, 475, 478, 481, 484,
                  487, 490, 493, 496, 499, 502, 505, 508, 511, 514, 517, 520,
                  523, 526, 529, 532, 535, 538, 541, 544, 547, 550, 553, 556,
                  559, 562, 565, 568, 571, 574, 577, 580, 583, 586, 589, 592,
                  595, 598, 601, 604, 607, 610, 613, 616, 619, 622, 625, 628,
                  631, 634, 637, 640, 643, 646, 649, 652, 655, 658, 661, 664,
                  667, 670, 673, 676, 679, 682, 685, 688, 691, 694, 697, 700,
                  703, 706, 709, 712, 715, 718, 721, 724, 727, 730, 733, 736,
                  739, 742, 745, 748, 751, 754
    2    1 h      2, 3, 5, 6, 8, 9, 11, 12, 14, 15, 17, 18, 20, 21, 23, 24,
                  26, 27, 29, 30, 32, 33, 35, 36, 38, 39, 41, 42, 44, 45, 47,
                  48, 50, 51, 53, 54, 56, 57, 59, 60, 62, 63, 65, 66, 68, 69,
                  71, 72, 74, 75, 77, 78, 80, 81, 83, 84, 86, 87, 89, 90, 92,
                  93, 95, 96, 98, 99, 101, 102, 104, 105, 107, 108, 110, 111,
                  113, 114, 116, 117, 119, 120, 122, 123, 125, 126, 128, 129,
                  131, 132, 134, 135, 137, 138, 140, 141, 143, 144, 146, 147,
                  149, 150, 152, 153, 155, 156, 158, 159, 161, 162, 164, 165,
                  167, 168, 170, 171, 173, 174, 176, 177, 179, 180, 182, 183,
                  185, 186, 188, 189, 191, 192, 194, 195, 197, 198, 200, 201,
                  203, 204, 206, 207, 209, 210, 212, 213, 215, 216, 218, 219,
                  221, 222, 224, 225, 227, 228, 230, 231, 233, 234, 236, 237,
                  239, 240, 242, 243, 245, 246, 248, 249, 251, 252, 254, 255,
                  257, 258, 260, 261, 263, 264, 266, 267, 269, 270, 272, 273,
                  275, 276, 278, 279, 281, 282, 284, 285, 287, 288, 290, 291,
                  293, 294, 296, 297, 299, 300, 302, 303, 305, 306, 308, 309,
                  311, 312, 314, 315, 317, 318, 320, 321, 323, 324, 326, 327,
                  329, 330, 332, 333, 335, 336, 338, 339, 341, 342, 344, 345,
                  347, 348, 350, 351, 353, 354, 356, 357, 359, 360, 362, 363,
                  365, 366, 368, 369, 371, 372, 374, 375, 377, 378, 380, 381,
                  383, 384, 386, 387, 389, 390, 392, 393, 395, 396, 398, 399,
                  401, 402, 404, 405, 407, 408, 410, 411, 413, 414, 416, 417,
                  419, 420, 422, 423, 425, 426, 428, 429, 431, 432, 434, 435,
                  437, 438, 440, 441, 443, 444, 446, 447, 449, 450, 452, 453,
                  455, 456, 458, 459, 461, 462, 464, 465, 467, 468, 470, 471,
                  473, 474, 476, 477, 479, 480, 482, 483, 485, 486, 488, 489,
                  491, 492, 494, 495, 497, 498, 500, 501, 503, 504, 506, 507,
                  509, 510, 512, 513, 515, 516, 518, 519, 521, 522, 524, 525,
                  527, 528, 530, 531, 533, 534, 536, 537, 539, 540, 542, 543,
                  545, 546, 548, 549, 551, 552, 554, 555, 557, 558, 560, 561,
                  563, 564, 566, 567, 569, 570, 572, 573, 575, 576, 578, 579,
                  581, 582, 584, 585, 587, 588, 590, 591, 593, 594, 596, 597,
                  599, 600, 602, 603, 605, 606, 608, 609, 611, 612, 614, 615,
                  617, 618, 620, 621, 623, 624, 626, 627, 629, 630, 632, 633,
                  635, 636, 638, 639, 641, 642, 644, 645, 647, 648, 650, 651,
                  653, 654, 656, 657, 659, 660, 662, 663, 665, 666, 668, 669,
                  671, 672, 674, 675, 677, 678, 680, 681, 683, 684, 686, 687,
                  689, 690, 692, 693, 695, 696, 698, 699, 701, 702, 704, 705,
                  707, 708, 710, 711, 713, 714, 716, 717, 719, 720, 722, 723,
                  725, 726, 728, 729, 731, 732, 734, 735, 737, 738, 740, 741,
                  743, 744, 746, 747, 749, 750, 752, 753, 755, 756

molecular fragmentation (1/2 indicates fragments):
111222222222222222222222222222222222222222222222222222222222222222222222
222222222222222222222222222222222222222222222222222222222222222222222222
222222222222222222222222222222222222222222222222222222222222222222222222
222222222222222222222222222222222222222222222222222222222222222222222222
222222222222222222222222222222222222222222222222222222222222222222222222
222222222222222222222222222222222222222222222222222222222222222222222222
222222222222222222222222222222222222222222222222222222222222222222222222
222222222222222222222222222222222222222222222222222222222222222222222222
222222222222222222222222222222222222222222222222222222222222222222222222
222222222222222222222222222222222222222222222222222222222222222222222222
222222222222222222222222222222222222
# atoms in fragment 1/2:     3   753
 fragment masses (1/2) :       18.02     4521.84
CMA distance (Bohr)    :  18.527
constraining FC (au)   :  0.0500

           -------------------------------------------------
          |                 G F N 2 - x T B                 |
           -------------------------------------------------

        Reference                      10.1021/acs.jctc.8b01176
      * Hamiltonian:
        H0-scaling (s, p, d)           1.850000    2.230000    2.230000
        zeta-weighting                 0.500000
      * Dispersion:
        s8                             2.700000
        a1                             0.520000
        a2                             5.000000
        s9                             5.000000
      * Repulsion:
        kExp                           1.500000    1.000000
        rExp                           1.000000
      * Coulomb:
        alpha                          2.000000
        third order                    shell-resolved
        anisotropic                    true
        a3                             3.000000
        a5                             4.000000
        cn-shift                       1.200000
        cn-exp                         4.000000
        max-rad                        5.000000


          ...................................................
          :                      SETUP                      :
          :.................................................:
          :  # basis functions                1512          :
          :  # atomic orbitals                1512          :
          :  # shells                         1008          :
          :  # electrons                      2016          :
          :  max. iterations                   250          :
          :  Hamiltonian                  GFN2-xTB          :
          :  restarted?                      false          :
          :  GBSA solvation                  false          :
          :  PC potential                    false          :
          :  electronic temp.          300.0000000     K    :
          :  accuracy                    1.0000000          :
          :  -> integral cutoff          0.2500000E+02      :
          :  -> integral neglect         0.1000000E-07      :
          :  -> SCF convergence          0.1000000E-05 Eh   :
          :  -> wf. convergence          0.1000000E-03 e    :
          :  Broyden damping             0.4000000          :
          ...................................................

 iter      E             dE          RMSdq      gap      omega  full diag
   1  -1291.0077971 -0.129101E+04  0.407E+00    8.40       0.0  T
   2  -1291.0855807 -0.777836E-01  0.242E+00    7.25       1.0  T
   3  -1291.1175921 -0.320115E-01  0.211E-01    5.64       1.0  T
   4  -1291.1229749 -0.538274E-02  0.459E-02    6.11       1.0  T
   5  -1291.1230606 -0.856975E-04  0.309E-02    6.04       1.0  T
   6  -1291.1231007 -0.400806E-04  0.435E-03    6.08       1.0  T
   7  -1291.1231032 -0.252315E-05  0.751E-04    6.07       4.8  T
   8  -1291.1231032 -0.301150E-07  0.385E-04    6.07       9.5  T
   9  -1291.1231032 -0.141972E-07  0.577E-05    6.07      63.0  T

   *** convergence criteria satisfied after 9 iterations ***

         #    Occupation            Energy/Eh            Energy/eV
      -------------------------------------------------------------
         1        2.0000           -0.6984453             -19.0057
       ...           ...                  ...                  ...
      1002        2.0000           -0.3518932              -9.5755
      1003        2.0000           -0.3507837              -9.5453
      1004        2.0000           -0.3472709              -9.4497
      1005        2.0000           -0.3452024              -9.3934
      1006        2.0000           -0.3415806              -9.2949
      1007        2.0000           -0.3211144              -8.7380
      1008        2.0000           -0.3150839              -8.5739 (HOMO)
      1009                         -0.0918806              -2.5002 (LUMO)
      1010                         -0.0725222              -1.9734
      1011                         -0.0650260              -1.7694
      1012                         -0.0629517              -1.7130
      1013                         -0.0581936              -1.5835
       ...                                ...                  ...
      1512                          0.4761949              12.9579
      -------------------------------------------------------------
                  HL-Gap            0.2232033 Eh            6.0737 eV
             Fermi-level           -0.2034823 Eh           -5.5370 eV
 
 localization/xTB-IFF output generation
 averaging CT terms over            2  occ. levels
 averaging CT terms over            1  virt. levels
 dipole moment from electron density (au)
     X       Y       Z   
   7.0958  -0.9057  -1.0563  total (Debye):   18.380
cpu  time for init local    0.78 s
wall time for init local    0.39 s
 doing rotations ...
 initialization of trafo matrix to unity

 converged in     17 iterations, threshold :   0.99997643D-06
 doing transformations ...
 lmo centers(Z=2) and atoms on file <lmocent.coord>
 LMO Fii/eV  ncent    charge center   contributions...
    1 LP   *******   0.00  -7.12918 -12.54719   2.61098  616O : 62.50   34O : 34.29   40O : 33.55  325O : 31.66  229O : 31.61  712O : 28.98  163O : 28.97   88O : 28.92  421O : 28.65  661O : 27.75    4O : 27.68  394O : 27.09
  676O : 25.70  232O : 24.16  349O : 22.96  538O : 21.57  238O : 21.01  379O : 20.78   19O : 20.60  109O : 19.88  100O : 19.87   22O : 19.86  355O : 18.99  118O : 18.88
   61O : 18.64  130O : 18.07   13O : 17.33  664O : 17.30  631O : 17.04  565O : 16.87  715O : 16.78  310O : 16.62  139O : 16.44  700O : 16.16  592O : 15.92  166O : 15.73
  187O : 15.64  403O : 15.35  481O : 15.13  172O : 14.84   82O : 14.71  571O : 14.68  397O : 14.53  748O : 14.46   43O : 14.36  196O : 14.20  295O : 13.98  322O : 13.85
  457O : 13.64  148O : 13.56  448O : 13.23  241O : 13.18   91O : 13.13  628O : 13.12  424O : 13.12  136O : 12.92  112O : 12.84  430O : 12.74  433O : 12.72  283O : 12.58
  514O : 12.33  742O : 12.32  313O : 12.25  613O : 12.07  376O : 12.04   10O : 11.91    1O : 11.71   58O : 11.62    7O : 11.60  160O : 11.59  709O : 11.51  751O : 11.42
  328O : 11.39   76O : 11.37  298O : 11.37  559O : 11.27   52O : 11.24   46O : 11.21  358O : 11.16  280O : 11.15  367O : 10.86  685O : 10.84  265O : 10.78  415O : 10.72
  190O : 10.71  607O : 10.57  562O : 10.18  124O : 10.15   49O : 10.00   79O :  9.95  502O :  9.89  478O :  9.81  253O :  9.79  247O :  9.64   67O :  9.52  646O :  9.40
  175O :  9.28  178O :  9.17   55O :  9.15  115O :  9.14  286O :  9.04  220O :  8.74  754O :  8.69  304O :  8.56  532O :  8.46   64O :  8.39  391O :  8.36  652O :  8.15
   42H :  8.12  724O :  7.57  598O :  7.50  595O :  7.47  673O :  7.42  691O :  7.41  487O :  7.38  340O :  7.30  202O :  7.26  157O :  7.21  634O :  7.20  217O :  6.96
  103O :  6.96  211O :  6.84  655O :  6.82  193O :  6.78  292O :  6.78  169O :  6.69  721O :  6.58  472O :  6.57  568O :  6.57  277O :  6.55  331O :  6.49  205O :  6.47
  547O :  6.44  181O :  6.43  271O :  6.43  697O :  6.28  235O :  6.24  622O :  6.10  469O :  5.98  739O :  5.94   70O :  5.92  679O :  5.89  577O :  5.64  625O :  5.58
  643O :  5.57  319O :  5.46  289O :  5.29  409O :  5.24  526O :  5.24  316O :  5.22  508O :  5.18  658O :  5.13  694O :  5.04  703O :  4.96  460O :  4.92  442O :  4.92
  184O :  4.82   85O :  4.79  517O :  4.72  493O :  4.66  619O :  4.59  346O :  4.46  412O :  4.42  745O :  4.36   28O :  4.32  667O :  4.29  451O :  4.28  733O :  4.16
  484O :  4.09  262O :  4.07  637O :  4.07  208O :  4.07  250O :  4.04  540H :  3.98  496O :  3.95  523O :  3.82  649O :  3.81  520O :  3.75  173H :  3.66  418O :  3.63
  343O :  3.57  405H :  3.54  370O :  3.50  499O :  3.49  454O :  3.44  445O :  3.44  601O :  3.44   24H :  3.42  301O :  3.41  151O :  3.34  188H :  3.33  550O :  3.32
  400O :  3.32  610O :  3.26  168H :  3.19  589O :  3.17  702H :  3.13  312H :  2.98  373O :  2.98  609H :  2.86  334O :  2.79   25O :  2.79  189H :  2.75   45H :  2.74
  640O :  2.71  356H :  2.68  583O :  2.63  529O :  2.60  490O :  2.58  145O :  2.58   37O :  2.54  127O :  2.47  439O :  2.39  385O :  2.39  142O :  2.38  682O :  2.38
  463O :  2.33  274O :  2.33   84H :  2.32  234H :  2.30  541O :  2.28   21H :  2.28  511O :  2.24  509H :  2.21  256O :  2.21   90H :  2.20  494H :  2.14  388O :  2.14
   50H :  2.07  106O :  2.05  350H :  1.90  102H :  1.86  466O :  1.81  141H :  1.80  475O :  1.79  730O :  1.75  226O :  1.73  556O :  1.71  727O :  1.68  670O :  1.66
  198H :  1.64  133O :  1.63  268O :  1.62  154O :  1.60  119H :  1.60   20H :  1.58   16O :  1.56   54H :  1.55  152H :  1.52  138H :  1.52  214O :  1.52  434H :  1.50
  574O :  1.49  137H :  1.47  722H :  1.47  427O :  1.46  161H :  1.41  665H :  1.39   92H :  1.38   73O :  1.36  414H :  1.34  395H :  1.33   69H :  1.33   65H :  1.29
  272H :  1.28  586O :  1.25   94O :  1.25  663H :  1.24  406O :  1.23  600H :  1.22   48H :  1.22  364O :  1.22  686H :  1.21  337O :  1.21  223O :  1.21  177H :  1.17
  688O :  1.16  456H :  1.16  344H :  1.15  264H :  1.15  259O :  1.15  170H :  1.13  561H :  1.13  749H :  1.12  126H :  1.11  212H :  1.11  718O :  1.10  566H :  1.08
  458H :  1.07   31O :  1.05  315H :  1.05  698H :  1.03  236H :  1.03  604O :  1.03   81H :  1.02  593H :  1.01  535O :  0.99  461H :  0.98   97O :  0.98   51H :  0.97
  392H :  0.95  633H :  0.94  174H :  0.92  382O :  0.92    6H :  0.91  179H :  0.91   89H :  0.91  648H :  0.90  488H :  0.90  736O :  0.90   96H :  0.89  164H :  0.89
   38H :  0.86  401H :  0.85  162H :  0.84    5H :  0.84  210H :  0.83  750H :  0.82  650H :  0.82   36H :  0.81  522H :  0.80  752H :  0.78  675H :  0.77  723H :  0.76
   72H :  0.76  110H :  0.75  131H :  0.75  647H :  0.75  361O :  0.74  278H :  0.74  714H :  0.74  149H :  0.73  320H :  0.71  360H :  0.70  255H :  0.70  711H :  0.70
  597H :  0.70  297H :  0.70  549H :  0.68   62H :  0.68   56H :  0.67  590H :  0.67  419H :  0.66  476H :  0.66  352O :  0.66  516H :  0.66  216H :  0.66  505O :  0.66
  248H :  0.66  706O :  0.65  548H :  0.65    9H :  0.64  423H :  0.63  544O :  0.63  213H :  0.63  117H :  0.63  199O :  0.63  539H :  0.62  368H :  0.62  233H :  0.61
  326H :  0.61  121O :  0.61   68H :  0.61  569H :  0.60   63H :  0.59  608H :  0.59  753H :  0.59  527H :  0.58  602H :  0.58   93H :  0.58  159H :  0.57  180H :  0.57
  396H :  0.56  240H :  0.56   26H :  0.55  254H :  0.55  659H :  0.55   83H :  0.53  611H :  0.53  218H :  0.53  681H :  0.53  518H :  0.52  436O :  0.51  717H :  0.51
  553O :  0.51  614H :  0.50  716H :  0.50  306H :  0.47   98H :  0.46  618H :  0.45  294H :  0.45  710H :  0.44  435H :  0.44   41H :  0.44  644H :  0.43   87H :  0.42
  398H :  0.42  510H :  0.42   57H :  0.41  317H :  0.41   12H :  0.41  225H :  0.41  669H :  0.41  231H :  0.40  441H :  0.40  252H :  0.40  107H :  0.39  617H :  0.38
  474H :  0.38  645H :  0.38  399H :  0.38  636H :  0.38  746H :  0.37  695H :  0.36  101H :  0.36  515H :  0.36   11H :  0.36   78H :  0.36  621H :  0.36  244O :  0.34
  305H :  0.34  425H :  0.33  588H :  0.33  666H :  0.33   17H :  0.33  323H :  0.33  215H :  0.33  756H :  0.32  587H :  0.32  450H :  0.31  580O :  0.31  626H :  0.31
  275H :  0.31  452H :  0.31    8H :  0.30  417H :  0.30  329H :  0.30   66H :  0.30  303H :  0.29  732H :  0.29  307O :  0.29  578H :  0.28  491H :  0.28  354H :  0.28
  428H :  0.28   77H :  0.28  302H :  0.27  606H :  0.27  341H :  0.27  473H :  0.27  389H :  0.27  311H :  0.26  267H :  0.26  165H :  0.26  740H :  0.25   53H :  0.25
  677H :  0.25  498H :  0.25   27H :  0.25  485H :  0.25  662H :  0.25  111H :  0.25  411H :  0.24   47H :  0.24  599H :  0.24  671H :  0.24  530H :  0.23  701H :  0.23
  471H :  0.23  555H :  0.23   74H :  0.23  230H :  0.23   39H :  0.23  693H :  0.22  404H :  0.22  416H :  0.22  203H :  0.22  105H :  0.22  258H :  0.21  729H :  0.21
  288H :  0.20  270H :  0.20  269H :  0.19  204H :  0.19  536H :  0.19  734H :  0.19  125H :  0.19  641H :  0.19  381H :  0.19  584H :  0.19  699H :  0.19  332H :  0.19
  195H :  0.18  156H :  0.18  453H :  0.18  183H :  0.18  186H :  0.18  348H :  0.18  132H :  0.18  336H :  0.17  104H :  0.17  140H :  0.17  221H :  0.17  620H :  0.16
  558H :  0.16  378H :  0.16  284H :  0.16  201H :  0.16  279H :  0.16  342H :  0.16  408H :  0.16  407H :  0.15  639H :  0.15  684H :  0.15  546H :  0.15  330H :  0.15
   33H :  0.14  564H :  0.14   95H :  0.14  134H :  0.14  371H :  0.14  228H :  0.14   59H :  0.14  743H :  0.14  380H :  0.14  153H :  0.14  251H :  0.14  674H :  0.14
  726H :  0.13  486H :  0.13  506H :  0.13  642H :  0.13  426H :  0.13  470H :  0.13  402H :  0.13   14H :  0.13  725H :  0.13  146H :  0.13  413H :  0.12  755H :  0.12
  657H :  0.12  573H :  0.12  615H :  0.12  209H :  0.12  366H :  0.12  300H :  0.12  347H :  0.11  557H :  0.11  735H :  0.11  462H :  0.11  477H :  0.11  197H :  0.11
  237H :  0.11  519H :  0.11  293H :  0.11  384H :  0.11   71H :  0.10   75H :  0.10  144H :  0.10  468H :  0.10  447H :  0.10  219H :  0.10  513H :  0.10   35H :  0.10
  689H :  0.10  242H :  0.10  192H :  0.10  579H :  0.09  135H :  0.09  359H :  0.09  672H :  0.09  108H :  0.09  705H :  0.09  554H :  0.09   18H :  0.09  147H :  0.09
  353H :  0.09  393H :  0.09  122H :  0.09  261H :  0.09  524H :  0.09  299H :  0.08    2H :  0.08  741H :  0.08  390H :  0.08  533H :  0.08  171H :  0.08  612H :  0.08
  335H :  0.08  692H :  0.08   80H :  0.08  422H :  0.07  728H :  0.07  707H :  0.07  290H :  0.07  185H :  0.07  678H :  0.07  528H :  0.07  449H :  0.07  123H :  0.07
    2 LP   *******   0.00   3.46274  37.97184 -24.33186  616O : 30.24   40O : 20.31   34O : 17.92  325O : 16.58  229O : 16.55  712O : 15.18  163O : 15.17   88O : 15.15  421O : 15.00  661O : 14.54    4O : 14.50  394O : 14.19
  676O : 13.46  232O : 12.65  349O : 12.02  538O : 11.30  238O : 11.00  379O : 10.88   19O : 10.80  109O : 10.45   22O : 10.41  100O : 10.40  355O :  9.94  118O :  9.89
   61O :  9.76  130O :  9.46   13O :  9.07  664O :  9.06  631O :  8.92  565O :  8.85  715O :  8.79  310O :  8.70  139O :  8.60  700O :  8.46  592O :  8.34  166O :  8.24
  187O :  8.18  403O :  8.04  481O :  7.93  172O :  7.89   82O :  7.70  571O :  7.69  397O :  7.61  748O :  7.58   43O :  7.47  196O :  7.45  295O :  7.31  322O :  7.25
  457O :  7.14  148O :  7.10  448O :  6.93  241O :  6.90   91O :  6.87  628O :  6.87  424O :  6.87  136O :  6.77  112O :  6.72  430O :  6.67  433O :  6.66  283O :  6.59
  514O :  6.45  742O :  6.45  313O :  6.42  613O :  6.32  376O :  6.31    1O :  6.13   10O :  6.10   58O :  6.08    7O :  6.08  160O :  6.07  709O :  6.02  751O :  5.98
  328O :  5.97  298O :  5.96   76O :  5.96   42H :  5.94  559O :  5.90   52O :  5.89   46O :  5.85  358O :  5.84  280O :  5.84  367O :  5.69  685O :  5.68  265O :  5.64
  415O :  5.61  190O :  5.60  607O :  5.53  562O :  5.37  124O :  5.32   49O :  5.24   79O :  5.21  502O :  5.18  478O :  5.14  253O :  5.13  247O :  5.05   67O :  4.98
  646O :  4.92  175O :  4.86  178O :  4.80   55O :  4.79  115O :  4.79  286O :  4.73  220O :  4.55  754O :  4.55  304O :  4.48  532O :  4.43   64O :  4.39  391O :  4.38
  652O :  4.27  724O :  3.96  487O :  3.94  598O :  3.93  595O :  3.91  673O :  3.89  691O :  3.88  340O :  3.82  157O :  3.77  634O :  3.77  202O :  3.77  217O :  3.64
  103O :  3.64  211O :  3.58  655O :  3.57  193O :  3.55  292O :  3.55  169O :  3.50  721O :  3.44  472O :  3.44  277O :  3.43  331O :  3.40  568O :  3.39  205O :  3.39
  547O :  3.38  181O :  3.37  271O :  3.36  697O :  3.29  235O :  3.27  622O :  3.19  469O :  3.13  739O :  3.11   70O :  3.10  679O :  3.08  577O :  2.95  625O :  2.92
  643O :  2.92  319O :  2.86  289O :  2.77  409O :  2.75  526O :  2.74  316O :  2.74  508O :  2.71  658O :  2.69  694O :  2.64  703O :  2.60  460O :  2.58  442O :  2.57
  184O :  2.53   85O :  2.51  517O :  2.47  493O :  2.44  619O :  2.41  346O :  2.34  412O :  2.32  745O :  2.28   28O :  2.26  667O :  2.25  451O :  2.24  733O :  2.18
  484O :  2.14  262O :  2.13  637O :  2.13  208O :  2.13  250O :  2.12  540H :  2.09  496O :  2.07  523O :  2.00  649O :  2.00  520O :  1.97  173H :  1.92  418O :  1.90
  343O :  1.87  405H :  1.85  370O :  1.83  499O :  1.83  601O :  1.81  445O :  1.80  454O :  1.79   24H :  1.79  301O :  1.78  151O :  1.75  188H :  1.75  550O :  1.74
  400O :  1.74  610O :  1.71  168H :  1.67  589O :  1.66  702H :  1.64  373O :  1.56  312H :  1.56  609H :  1.50  334O :  1.46   25O :  1.45  189H :  1.44   45H :  1.43
  640O :  1.42  356H :  1.40  583O :  1.38  529O :  1.36  490O :  1.35  145O :  1.35   37O :  1.33  127O :  1.29  439O :  1.25  385O :  1.25  142O :  1.25  682O :  1.25
  463O :  1.22  274O :  1.22   84H :  1.21  234H :  1.20  541O :  1.20   21H :  1.19  511O :  1.17  256O :  1.16  509H :  1.16   90H :  1.15  388O :  1.12  494H :  1.12
   50H :  1.09  106O :  1.07  350H :  1.00  102H :  0.97  466O :  0.95  141H :  0.94  475O :  0.94  730O :  0.92  226O :  0.91  670O :  0.90  556O :  0.90  727O :  0.88
  198H :  0.86  133O :  0.85  268O :  0.85  154O :  0.84  119H :  0.84   20H :  0.83   16O :  0.82   54H :  0.81  152H :  0.80  138H :  0.80  214O :  0.80  434H :  0.79
  574O :  0.78  137H :  0.77  722H :  0.77  427O :  0.76  161H :  0.74  665H :  0.73   92H :  0.72   73O :  0.71  414H :  0.70  395H :  0.70   69H :  0.70   65H :  0.68
  272H :  0.67   94O :  0.66  663H :  0.65  406O :  0.65  586O :  0.64  600H :  0.64   48H :  0.64  364O :  0.64  686H :  0.64  337O :  0.63  223O :  0.63  177H :  0.61
  688O :  0.61  456H :  0.61  344H :  0.60  264H :  0.60  259O :  0.60  170H :  0.59  561H :  0.59  749H :  0.59  126H :  0.58  212H :  0.58  718O :  0.57  566H :  0.56
  458H :  0.56  315H :  0.55  698H :  0.54  236H :  0.54  604O :  0.54   81H :  0.53  593H :  0.53  535O :  0.52  461H :  0.51   97O :  0.51   51H :  0.51  392H :  0.49
  633H :  0.49  382O :  0.48    6H :  0.48  179H :  0.48  488H :  0.48   89H :  0.47  648H :  0.47  736O :  0.47   96H :  0.47  164H :  0.46   38H :  0.45  401H :  0.44
  162H :  0.44    5H :  0.44  210H :  0.43   36H :  0.43  750H :  0.43  650H :  0.43  110H :  0.43  522H :  0.42  752H :  0.41  675H :  0.40  723H :  0.40   72H :  0.40
  131H :  0.39  647H :  0.39  361O :  0.39  278H :  0.39  714H :  0.39  149H :  0.38   31O :  0.37  320H :  0.37  360H :  0.37  255H :  0.37  711H :  0.37  597H :  0.37
  297H :  0.37  549H :  0.36   62H :  0.36   56H :  0.35  174H :  0.35  590H :  0.35  419H :  0.35  476H :  0.35  352O :  0.34  505O :  0.34  516H :  0.34  216H :  0.34
  706O :  0.34  248H :  0.34  548H :  0.34    9H :  0.33  423H :  0.33  544O :  0.33  213H :  0.33  117H :  0.33  199O :  0.33  539H :  0.33  368H :  0.32  233H :  0.32
  326H :  0.32  121O :  0.32   68H :  0.32   63H :  0.31  569H :  0.31  608H :  0.31  753H :  0.31  527H :  0.31  602H :  0.30   93H :  0.30  159H :  0.30  180H :  0.30
  618H :  0.29  396H :  0.29  240H :  0.29   26H :  0.29  254H :  0.29  659H :  0.29  611H :  0.28   83H :  0.28  218H :  0.28  681H :  0.28  518H :  0.27  436O :  0.27
  717H :  0.27  553O :  0.27  614H :  0.26  716H :  0.26  617H :  0.25  306H :  0.25   98H :  0.24  294H :  0.23  710H :  0.23  435H :  0.23  644H :  0.22   12H :  0.22
  398H :  0.22   87H :  0.22  510H :  0.22   57H :  0.22  669H :  0.22  317H :  0.21  225H :  0.21  231H :  0.21  441H :  0.21  252H :  0.21  107H :  0.20  474H :  0.20
  645H :  0.20  399H :  0.20  636H :  0.20  746H :  0.19   11H :  0.19  695H :  0.19  101H :  0.19  515H :  0.19   78H :  0.19  621H :  0.19   41H :  0.19  587H :  0.18
  244O :  0.18  588H :  0.18  305H :  0.18  425H :  0.17  666H :  0.17   17H :  0.17  323H :  0.17  215H :  0.17  756H :  0.17  450H :  0.16  580O :  0.16  626H :  0.16
  275H :  0.16    8H :  0.16  452H :  0.16  417H :  0.16  329H :  0.16   66H :  0.16  303H :  0.15  732H :  0.15  307O :  0.15  578H :  0.15  491H :  0.15  354H :  0.15
  428H :  0.15   77H :  0.14  302H :  0.14  606H :  0.14  473H :  0.14  341H :  0.14  389H :  0.14  311H :  0.14  267H :  0.14  165H :  0.13  111H :  0.13  740H :  0.13
   53H :  0.13  677H :  0.13  498H :  0.13   27H :  0.13   47H :  0.13  485H :  0.13  662H :  0.13  671H :  0.13  411H :  0.13  599H :  0.12   39H :  0.12  530H :  0.12
  471H :  0.12  555H :  0.12   74H :  0.12  230H :  0.12  203H :  0.12  701H :  0.12  693H :  0.12  404H :  0.12  416H :  0.12  105H :  0.11  258H :  0.11  729H :  0.11
  288H :  0.11  270H :  0.10  269H :  0.10  536H :  0.10  204H :  0.10  734H :  0.10  125H :  0.10  641H :  0.10  381H :  0.10  584H :  0.10  332H :  0.10  699H :  0.10
  195H :  0.10  156H :  0.10  453H :  0.10  183H :  0.10  186H :  0.09  348H :  0.09  132H :  0.09  336H :  0.09  104H :  0.09  140H :  0.09  221H :  0.09  620H :  0.09
  558H :  0.09  378H :  0.08  284H :  0.08  201H :  0.08  279H :  0.08  342H :  0.08  408H :  0.08  407H :  0.08  639H :  0.08  684H :  0.08  546H :  0.08  330H :  0.08
  564H :  0.08   95H :  0.07  134H :  0.07  371H :  0.07  228H :  0.07   59H :  0.07  743H :  0.07  380H :  0.07  153H :  0.07  251H :  0.07  674H :  0.07  726H :  0.07
    3 LP   *******   0.00  58.89114  35.62374  21.04670  616O : 26.79  421O : 16.67   34O : 15.91   40O : 15.57  325O : 14.68  229O : 14.67  712O : 13.45  163O : 13.44   88O : 13.42  661O : 12.88    4O : 12.84  394O : 12.57
  676O : 11.93  232O : 11.21  349O : 10.65  538O : 10.01  238O :  9.74  379O :  9.64   19O :  9.56  109O :  9.22   22O :  9.22  100O :  9.21  355O :  8.81  118O :  8.76
   61O :  8.65  130O :  8.38   13O :  8.04  664O :  8.03  631O :  7.91  565O :  7.83  715O :  7.79  310O :  7.71  139O :  7.62  700O :  7.50  592O :  7.39  166O :  7.30
  187O :  7.26  403O :  7.12  481O :  7.02  172O :  6.99   82O :  6.83  571O :  6.81  397O :  6.74  748O :  6.71   43O :  6.67  196O :  6.59  295O :  6.49  322O :  6.42
  457O :  6.33  148O :  6.29  448O :  6.14  241O :  6.12   91O :  6.09  424O :  6.08  628O :  6.07  136O :  6.00  112O :  5.96  430O :  5.91  433O :  5.90  283O :  5.84
  514O :  5.72  742O :  5.72  313O :  5.68  613O :  5.60  376O :  5.57   10O :  5.53    1O :  5.43   58O :  5.39    7O :  5.38  160O :  5.38  709O :  5.34  751O :  5.30
  298O :  5.30  328O :  5.29   76O :  5.28  559O :  5.23   52O :  5.22   46O :  5.20  358O :  5.18  280O :  5.17  367O :  5.04  685O :  5.03  265O :  5.00  415O :  4.97
  190O :  4.97  607O :  4.90  562O :  4.72  124O :  4.71   49O :  4.64   79O :  4.62  502O :  4.59  478O :  4.55  253O :  4.54  247O :  4.47   67O :  4.42  646O :  4.36
  175O :  4.31  178O :  4.26  115O :  4.24   55O :  4.24  286O :  4.19  220O :  4.05  754O :  4.03  304O :  3.97  532O :  3.93   64O :  3.89  391O :  3.88  652O :  3.78
   42H :  3.77  724O :  3.51  487O :  3.49  598O :  3.48  595O :  3.47  673O :  3.44  691O :  3.44  340O :  3.38  202O :  3.37  634O :  3.34  157O :  3.31  103O :  3.23
  217O :  3.23  211O :  3.17  655O :  3.16  193O :  3.14  292O :  3.14  169O :  3.10  721O :  3.05  472O :  3.05  277O :  3.03  331O :  3.01  568O :  3.00  205O :  3.00
  547O :  2.99  181O :  2.98  271O :  2.98  697O :  2.92  235O :  2.89  622O :  2.83  469O :  2.77  739O :  2.76  679O :  2.75   70O :  2.75  577O :  2.62  625O :  2.59
  643O :  2.59  319O :  2.53  289O :  2.46  526O :  2.43  409O :  2.43  316O :  2.42  508O :  2.41  658O :  2.38  694O :  2.34  703O :  2.30  460O :  2.29  442O :  2.28
  184O :  2.24   85O :  2.22  517O :  2.19  493O :  2.16  619O :  2.13  346O :  2.07  412O :  2.05   28O :  2.00  667O :  1.99  745O :  1.99  451O :  1.99  733O :  1.93
  484O :  1.90  262O :  1.89  637O :  1.89  208O :  1.89  250O :  1.88  540H :  1.85  496O :  1.83  523O :  1.77  649O :  1.77  520O :  1.74  173H :  1.70  418O :  1.68
  343O :  1.66  405H :  1.64  370O :  1.62  499O :  1.62  454O :  1.60  601O :  1.59  445O :  1.59   24H :  1.59  301O :  1.58  151O :  1.55  188H :  1.55  550O :  1.54
  400O :  1.54  610O :  1.52  168H :  1.48  589O :  1.47  702H :  1.45  312H :  1.38  373O :  1.38  609H :  1.33  334O :  1.30   25O :  1.29  189H :  1.28   45H :  1.27
  640O :  1.26  356H :  1.24  583O :  1.22  529O :  1.22  490O :  1.20  145O :  1.20   37O :  1.18  127O :  1.14  439O :  1.11  385O :  1.11  682O :  1.11  142O :  1.11
  463O :  1.08  274O :  1.08   84H :  1.08  234H :  1.07  541O :  1.06   21H :  1.06  511O :  1.04  509H :  1.03  256O :  1.02   90H :  1.02  494H :  0.99  388O :  0.99
   50H :  0.96  106O :  0.95  350H :  0.88  102H :  0.86  466O :  0.84  141H :  0.84  475O :  0.83  730O :  0.81  226O :  0.80  670O :  0.80  556O :  0.79  727O :  0.78
  198H :  0.76  133O :  0.75  268O :  0.75  154O :  0.74  119H :  0.74   20H :  0.73   16O :  0.73   54H :  0.72  152H :  0.71  138H :  0.71  214O :  0.71  434H :  0.70
  137H :  0.68  722H :  0.68  574O :  0.68  427O :  0.68  161H :  0.65  665H :  0.65   92H :  0.64   73O :  0.63  414H :  0.62  395H :  0.62   69H :  0.62   65H :  0.60
  272H :  0.60   94O :  0.58  663H :  0.57  406O :  0.57  586O :  0.57  600H :  0.57   48H :  0.57  364O :  0.56  686H :  0.56  337O :  0.56  223O :  0.56  177H :  0.54
  688O :  0.54  456H :  0.54  344H :  0.54  264H :  0.53  259O :  0.53  170H :  0.53  561H :  0.52  749H :  0.52  126H :  0.51  212H :  0.51  718O :  0.51  566H :  0.50
  458H :  0.50   31O :  0.49  315H :  0.49  698H :  0.48  236H :  0.48  604O :  0.48   81H :  0.47  593H :  0.47  535O :  0.46   97O :  0.45   51H :  0.45  392H :  0.44
  461H :  0.44  633H :  0.43  382O :  0.43    6H :  0.42  179H :  0.42  488H :  0.42   89H :  0.42  648H :  0.42  736O :  0.42   96H :  0.41  164H :  0.41   38H :  0.39
  401H :  0.39  162H :  0.39    5H :  0.39  210H :  0.39  750H :  0.38  650H :  0.38   36H :  0.38  522H :  0.37  752H :  0.36  675H :  0.36  723H :  0.35   72H :  0.35
  110H :  0.35  131H :  0.35  647H :  0.35  361O :  0.35  278H :  0.34  714H :  0.34  149H :  0.34  320H :  0.33  360H :  0.33  255H :  0.33  711H :  0.33  597H :  0.32
  297H :  0.32  549H :  0.32   62H :  0.31   56H :  0.31  174H :  0.31  590H :  0.31  476H :  0.31  419H :  0.31  352O :  0.31  516H :  0.30  216H :  0.30  505O :  0.30
  248H :  0.30  706O :  0.30  548H :  0.30    9H :  0.30  544O :  0.29  213H :  0.29  199O :  0.29  117H :  0.29  539H :  0.29  368H :  0.29  233H :  0.28  326H :  0.28
  121O :  0.28   68H :  0.28   63H :  0.27  569H :  0.27  608H :  0.27  753H :  0.27  527H :  0.27  602H :  0.27   93H :  0.27  180H :  0.26  618H :  0.26  396H :  0.26
  240H :  0.26   26H :  0.26  254H :  0.25  659H :  0.25  159H :  0.25  611H :  0.25   83H :  0.25  218H :  0.25  518H :  0.24  436O :  0.24  717H :  0.24  423H :  0.24
  553O :  0.23  681H :  0.23  614H :  0.23  716H :  0.23  617H :  0.23  306H :  0.22   98H :  0.21  294H :  0.21  710H :  0.20  435H :  0.20   41H :  0.20  644H :  0.20
   87H :  0.19  510H :  0.19   57H :  0.19  669H :  0.19  317H :  0.19   12H :  0.19  398H :  0.19  225H :  0.19  231H :  0.19  441H :  0.19  252H :  0.18  107H :  0.18
  474H :  0.18  645H :  0.18  399H :  0.18  636H :  0.18  695H :  0.17  101H :  0.17  515H :  0.17  746H :  0.17   11H :  0.17   78H :  0.17  621H :  0.17  587H :  0.16
  244O :  0.16  588H :  0.16  305H :  0.16  425H :  0.15  666H :  0.15   17H :  0.15  323H :  0.15  215H :  0.15  756H :  0.15  450H :  0.15  580O :  0.15  626H :  0.14
  275H :  0.14  452H :  0.14    8H :  0.14  417H :  0.14  329H :  0.14   66H :  0.14  303H :  0.14  732H :  0.14  307O :  0.13  578H :  0.13  491H :  0.13  354H :  0.13
  428H :  0.13   77H :  0.13  302H :  0.13  606H :  0.12  473H :  0.12  341H :  0.12  389H :  0.12  311H :  0.12  267H :  0.12  165H :  0.12  740H :  0.12   53H :  0.12
  677H :  0.12  498H :  0.12   27H :  0.12  485H :  0.11  662H :  0.11  111H :  0.11  530H :  0.11  411H :  0.11  671H :  0.11   47H :  0.11  599H :  0.11   39H :  0.11
  471H :  0.11  555H :  0.11   74H :  0.11  230H :  0.11  701H :  0.10  693H :  0.10  404H :  0.10  416H :  0.10  203H :  0.10  105H :  0.10  258H :  0.10  729H :  0.10
  288H :  0.09  270H :  0.09  269H :  0.09  204H :  0.09  734H :  0.09  125H :  0.09  641H :  0.09  381H :  0.09  536H :  0.09  584H :  0.09  332H :  0.09  699H :  0.09
  195H :  0.09  156H :  0.09  453H :  0.08  183H :  0.08  186H :  0.08  348H :  0.08  132H :  0.08  336H :  0.08  104H :  0.08  140H :  0.08  221H :  0.08  620H :  0.08
  284H :  0.08  558H :  0.08  378H :  0.08  201H :  0.07  279H :  0.07  342H :  0.07  408H :  0.07  407H :  0.07  639H :  0.07
    4 LP   *******   0.00  33.40123  55.62226  34.48719  616O : 26.16  325O : 17.69   34O : 15.54   40O : 15.20  229O : 14.32  712O : 13.15  163O : 13.13   88O : 13.10  421O : 12.97  661O : 12.58    4O : 12.52  394O : 12.27
  676O : 11.65  232O : 10.95  349O : 10.40  538O :  9.78  238O :  9.52  379O :  9.42   19O :  9.34  109O :  9.01   22O :  9.00  100O :  9.00  355O :  8.60  118O :  8.56
   61O :  8.45  130O :  8.19   13O :  7.85  664O :  7.84  631O :  7.72  565O :  7.65  715O :  7.61  310O :  7.53  139O :  7.44  700O :  7.32  592O :  7.21  166O :  7.12
  187O :  7.09  403O :  6.95  481O :  6.86  172O :  6.83   82O :  6.67  571O :  6.65  748O :  6.55   43O :  6.51  397O :  6.46  196O :  6.43  295O :  6.34  322O :  6.27
  457O :  6.18  148O :  6.14  448O :  5.99  241O :  5.97   91O :  5.95  628O :  5.95  424O :  5.94  136O :  5.86  112O :  5.82  430O :  5.77  433O :  5.76  283O :  5.70
  514O :  5.59  742O :  5.58  313O :  5.55  613O :  5.47  376O :  5.46   10O :  5.40    1O :  5.30   58O :  5.26    7O :  5.25  160O :  5.25  709O :  5.21  751O :  5.18
  328O :  5.16   76O :  5.15  298O :  5.15  559O :  5.11   52O :  5.10   46O :  5.08  358O :  5.05  280O :  5.05  367O :  4.92  685O :  4.91  265O :  4.88  415O :  4.86
  190O :  4.85  607O :  4.79  562O :  4.61  124O :  4.60   49O :  4.53   79O :  4.51  502O :  4.48  478O :  4.45  253O :  4.44  247O :  4.37   67O :  4.31  646O :  4.26
  175O :  4.21  178O :  4.16   55O :  4.14  115O :  4.14  286O :  4.10  220O :  3.96  754O :  3.94  304O :  3.88  532O :  3.84   64O :  3.80  391O :  3.79  652O :  3.69
   42H :  3.68  724O :  3.43  487O :  3.41  598O :  3.40  595O :  3.38  673O :  3.36  691O :  3.36  340O :  3.31  202O :  3.29  157O :  3.27  634O :  3.26  217O :  3.15
  103O :  3.15  211O :  3.10  655O :  3.09  193O :  3.07  292O :  3.07  169O :  3.03  721O :  2.98  472O :  2.98  277O :  2.97  331O :  2.94  568O :  2.93  205O :  2.93
  547O :  2.92  181O :  2.92  271O :  2.91  697O :  2.85  235O :  2.83  622O :  2.76  469O :  2.71  739O :  2.69   70O :  2.68  679O :  2.67  577O :  2.56  625O :  2.53
  643O :  2.53  319O :  2.47  289O :  2.40  526O :  2.37  409O :  2.37  316O :  2.37  508O :  2.35  658O :  2.33  694O :  2.28  703O :  2.25  460O :  2.23  442O :  2.23
  184O :  2.19   85O :  2.17  517O :  2.14  493O :  2.11  619O :  2.08  346O :  2.02  412O :  2.00  745O :  1.98   28O :  1.96  667O :  1.95  451O :  1.94  733O :  1.88
  250O :  1.86  484O :  1.85  262O :  1.84  637O :  1.84  208O :  1.84  540H :  1.80  496O :  1.79  523O :  1.73  649O :  1.73  520O :  1.70  173H :  1.66  418O :  1.64
  343O :  1.62  405H :  1.60  370O :  1.59  499O :  1.58  454O :  1.56  445O :  1.56  601O :  1.56   24H :  1.55  301O :  1.54  151O :  1.52  188H :  1.51  550O :  1.51
  400O :  1.50  610O :  1.48  168H :  1.44  589O :  1.44  373O :  1.42  702H :  1.42  312H :  1.35  609H :  1.29  334O :  1.27   25O :  1.26  189H :  1.25   45H :  1.24
  640O :  1.23  356H :  1.21  583O :  1.19  529O :  1.18  490O :  1.17  145O :  1.17   37O :  1.15  127O :  1.12  439O :  1.08  385O :  1.08  142O :  1.08  682O :  1.08
  463O :  1.06  274O :  1.06   84H :  1.05  234H :  1.04  541O :  1.03   21H :  1.03  511O :  1.01  509H :  1.00  256O :  1.00   90H :  1.00  494H :  0.97  388O :  0.97
   50H :  0.94  106O :  0.93  350H :  0.86  102H :  0.84  466O :  0.82  141H :  0.82  475O :  0.81  730O :  0.79  226O :  0.78  670O :  0.78  556O :  0.78  727O :  0.76
  198H :  0.74  133O :  0.74  268O :  0.73  154O :  0.73  119H :  0.72   20H :  0.72   16O :  0.71   54H :  0.70  152H :  0.69  138H :  0.69  214O :  0.69  434H :  0.68
  574O :  0.68  137H :  0.67  722H :  0.67  427O :  0.66  161H :  0.64  665H :  0.63   92H :  0.63   73O :  0.62  414H :  0.61  395H :  0.60   69H :  0.60   65H :  0.59
  272H :  0.58   94O :  0.57  663H :  0.56  406O :  0.56  586O :  0.56  600H :  0.55   48H :  0.55  364O :  0.55  686H :  0.55  337O :  0.55  223O :  0.55  177H :  0.53
  688O :  0.53  456H :  0.52  344H :  0.52  264H :  0.52  259O :  0.52  170H :  0.51  561H :  0.51  749H :  0.51  126H :  0.50  212H :  0.50  718O :  0.50  566H :  0.49
  458H :  0.48   31O :  0.48  315H :  0.47  698H :  0.47  236H :  0.47  604O :  0.46   81H :  0.46  593H :  0.46  535O :  0.45  461H :  0.44   51H :  0.44  392H :  0.43
  633H :  0.42    6H :  0.41  382O :  0.41  179H :  0.41  488H :  0.41   89H :  0.41  648H :  0.41  736O :  0.41   96H :  0.40  164H :  0.40   97O :  0.40   38H :  0.39
  401H :  0.38  162H :  0.38    5H :  0.38  210H :  0.38  750H :  0.37  650H :  0.37   36H :  0.37  522H :  0.36  752H :  0.35  675H :  0.35  723H :  0.35   72H :  0.35
  110H :  0.34  131H :  0.34  647H :  0.34  714H :  0.34  361O :  0.34  278H :  0.34  149H :  0.33  320H :  0.32  360H :  0.32  255H :  0.32  711H :  0.32  597H :  0.32
  297H :  0.32  549H :  0.31   62H :  0.31  590H :  0.30   56H :  0.30  174H :  0.30  419H :  0.30  476H :  0.30  352O :  0.30  216H :  0.30  516H :  0.30  505O :  0.30
  248H :  0.30  706O :  0.29  548H :  0.29    9H :  0.29  423H :  0.29  544O :  0.29  213H :  0.29  199O :  0.28  117H :  0.28  539H :  0.28  368H :  0.28  233H :  0.28
  121O :  0.28   68H :  0.27   63H :  0.27  569H :  0.27  608H :  0.27  753H :  0.27  527H :  0.27  602H :  0.26   93H :  0.26  159H :  0.26  180H :  0.26  618H :  0.25
  396H :  0.25  240H :  0.25   26H :  0.25  254H :  0.25  659H :  0.25  611H :  0.24   83H :  0.24  218H :  0.24  681H :  0.24  518H :  0.23  326H :  0.23  436O :  0.23
  717H :  0.23  553O :  0.23  614H :  0.23  716H :  0.22  617H :  0.22  306H :  0.21   98H :  0.21  294H :  0.20  710H :  0.20  435H :  0.20   41H :  0.20  398H :  0.20
  644H :  0.19   87H :  0.19  510H :  0.19   57H :  0.19  669H :  0.19  317H :  0.19   12H :  0.19  225H :  0.18  231H :  0.18  252H :  0.18  441H :  0.18  107H :  0.18
  474H :  0.17  399H :  0.17  645H :  0.17  636H :  0.17  746H :  0.17  695H :  0.16  101H :  0.16  515H :  0.16   11H :  0.16   78H :  0.16  621H :  0.16  587H :  0.16
  244O :  0.16  588H :  0.15  305H :  0.15  425H :  0.15  666H :  0.15   17H :  0.15  323H :  0.15  215H :  0.15  756H :  0.15  450H :  0.14  580O :  0.14  626H :  0.14
  275H :  0.14  452H :  0.14    8H :  0.14  417H :  0.14  329H :  0.13   66H :  0.13  303H :  0.13  732H :  0.13  307O :  0.13  578H :  0.13  491H :  0.13  354H :  0.13
  428H :  0.13   77H :  0.13  302H :  0.12  606H :  0.12  473H :  0.12  341H :  0.12  389H :  0.12  311H :  0.12  267H :  0.12  165H :  0.12  740H :  0.11   53H :  0.11
  677H :  0.11  498H :  0.11   27H :  0.11  485H :  0.11  662H :  0.11  111H :  0.11  411H :  0.11  671H :  0.11   47H :  0.11  599H :  0.11   39H :  0.11  530H :  0.11
  471H :  0.11  555H :  0.11   74H :  0.10  230H :  0.10  701H :  0.10  693H :  0.10  404H :  0.10  416H :  0.10  203H :  0.10  105H :  0.10  258H :  0.10  729H :  0.10
  288H :  0.09  270H :  0.09  251H :  0.09  269H :  0.09  204H :  0.09  734H :  0.09  125H :  0.09  536H :  0.09  641H :  0.08  381H :  0.08  584H :  0.08  332H :  0.08
  699H :  0.08  195H :  0.08  156H :  0.08  183H :  0.08  453H :  0.08  186H :  0.08  348H :  0.08  132H :  0.08  336H :  0.08  104H :  0.08  140H :  0.08  221H :  0.07
  620H :  0.07  558H :  0.07  378H :  0.07  284H :  0.07  201H :  0.07  279H :  0.07  342H :  0.07  408H :  0.07
    5 LP   *******   0.00   1.66613  59.95487  24.37166  616O : 24.04  712O : 15.00   34O : 14.27   40O : 13.97  325O : 13.19  229O : 13.16  163O : 12.06   88O : 12.04  421O : 11.93  661O : 11.56    4O : 11.38  394O : 11.28
  676O : 10.70  232O : 10.06  349O :  9.56  538O :  8.98  238O :  8.74  379O :  8.65   19O :  8.58  109O :  8.28   22O :  8.27  100O :  8.27  355O :  7.91  118O :  7.86
   61O :  7.76  130O :  7.52   13O :  7.21  664O :  7.20  631O :  7.09  565O :  7.03  715O :  7.02  310O :  6.92  139O :  6.84  700O :  6.73  592O :  6.63  166O :  6.56
  187O :  6.51  403O :  6.39  481O :  6.30  172O :  6.27   82O :  6.12  571O :  6.11  397O :  6.05  748O :  6.02   43O :  5.98  196O :  5.91  295O :  5.82  322O :  5.77
  457O :  5.68  148O :  5.65  448O :  5.51  241O :  5.49   91O :  5.47  628O :  5.46  424O :  5.46  136O :  5.38  112O :  5.34  430O :  5.30  433O :  5.30  283O :  5.24
  514O :  5.13  742O :  5.13  313O :  5.10  613O :  5.02  376O :  5.01   10O :  4.96    1O :  4.87   58O :  4.84    7O :  4.83  160O :  4.83  709O :  4.79  751O :  4.76
  328O :  4.74   76O :  4.74  298O :  4.73   52O :  4.68   46O :  4.67  358O :  4.64  280O :  4.64  559O :  4.58  367O :  4.52  685O :  4.51  265O :  4.49  415O :  4.46
  190O :  4.46  607O :  4.40  562O :  4.24  124O :  4.23   49O :  4.16   79O :  4.14  502O :  4.12  478O :  4.09  253O :  4.08  247O :  4.01   67O :  3.96  646O :  3.91
  175O :  3.86  178O :  3.82   55O :  3.81  115O :  3.80  286O :  3.76  220O :  3.64  754O :  3.62  304O :  3.57  532O :  3.52   64O :  3.49  391O :  3.48  652O :  3.39
   42H :  3.38  724O :  3.15  487O :  3.13  598O :  3.12  595O :  3.11  673O :  3.09  691O :  3.09  340O :  3.04  202O :  3.02  157O :  3.00  634O :  3.00  217O :  2.90
  103O :  2.90  211O :  2.85  655O :  2.84  193O :  2.82  292O :  2.82  169O :  2.78  721O :  2.74  472O :  2.74  277O :  2.73  331O :  2.70  568O :  2.69  205O :  2.69
  547O :  2.68  181O :  2.68  271O :  2.67  697O :  2.62  235O :  2.60  622O :  2.54  469O :  2.51  739O :  2.47   70O :  2.46  679O :  2.45  577O :  2.35  625O :  2.32
  643O :  2.32  319O :  2.27  289O :  2.20  526O :  2.18  409O :  2.18  316O :  2.17  508O :  2.16  658O :  2.14  694O :  2.10  703O :  2.06  460O :  2.05  442O :  2.05
  184O :  2.01   85O :  1.99  517O :  1.96  493O :  1.94  619O :  1.91  346O :  1.86  412O :  1.84  745O :  1.82   28O :  1.80  667O :  1.79  451O :  1.78  733O :  1.73
  484O :  1.70  637O :  1.70  262O :  1.69  208O :  1.69  540H :  1.66  250O :  1.65  496O :  1.64  523O :  1.59  649O :  1.59  520O :  1.56  173H :  1.53  418O :  1.51
  343O :  1.49  405H :  1.47  370O :  1.46  499O :  1.45  454O :  1.43  445O :  1.43  601O :  1.43   24H :  1.42  301O :  1.42  151O :  1.39  188H :  1.39  550O :  1.38
  400O :  1.38  610O :  1.36  168H :  1.33  589O :  1.32  702H :  1.31  312H :  1.24  373O :  1.24  609H :  1.19  334O :  1.16   25O :  1.16  189H :  1.15   45H :  1.14
  640O :  1.13  356H :  1.11  583O :  1.10  529O :  1.08  490O :  1.08  145O :  1.07   37O :  1.06  127O :  1.03  439O :  1.00  385O :  0.99  142O :  0.99  682O :  0.99
  463O :  0.98  274O :  0.97   84H :  0.97  234H :  0.96  541O :  0.95   21H :  0.95  511O :  0.93  388O :  0.93  509H :  0.92  256O :  0.92   90H :  0.92  494H :  0.89
   50H :  0.86  106O :  0.85  350H :  0.79  102H :  0.78  466O :  0.75  141H :  0.75  475O :  0.75  730O :  0.73  226O :  0.72  670O :  0.72  556O :  0.71  727O :  0.70
  198H :  0.68  133O :  0.68  268O :  0.68  154O :  0.67  119H :  0.67   20H :  0.66   16O :  0.65   54H :  0.65  152H :  0.63  138H :  0.63  214O :  0.63  434H :  0.63
  574O :  0.62  137H :  0.61  722H :  0.61  427O :  0.61  161H :  0.59  665H :  0.58   92H :  0.58   73O :  0.57  414H :  0.56  395H :  0.56   69H :  0.55   65H :  0.54
  272H :  0.53   94O :  0.52  663H :  0.51  406O :  0.51  586O :  0.51  600H :  0.51   48H :  0.51  364O :  0.51  686H :  0.51  337O :  0.50  223O :  0.50  177H :  0.49
  688O :  0.48  456H :  0.48  344H :  0.48  264H :  0.48  259O :  0.48  561H :  0.47  170H :  0.47  749H :  0.47  126H :  0.46  212H :  0.46  718O :  0.46  566H :  0.45
  458H :  0.45   31O :  0.44  315H :  0.44  698H :  0.43  236H :  0.43  604O :  0.43   81H :  0.42  593H :  0.42  535O :  0.41  461H :  0.41   97O :  0.41   51H :  0.40
  392H :  0.39  633H :  0.39  382O :  0.38  179H :  0.38    6H :  0.38  488H :  0.38   89H :  0.38  648H :  0.38  736O :  0.37   96H :  0.37  164H :  0.37   38H :  0.35
  401H :  0.35  162H :  0.35    5H :  0.35  210H :  0.35  750H :  0.34  650H :  0.34   36H :  0.34  522H :  0.34  752H :  0.33  675H :  0.32  723H :  0.32   72H :  0.32
  110H :  0.31  131H :  0.31  647H :  0.31  361O :  0.31  278H :  0.31  149H :  0.31  320H :  0.30  360H :  0.29  255H :  0.29  711H :  0.29  597H :  0.29  297H :  0.29
  549H :  0.28   62H :  0.28   56H :  0.28  174H :  0.28  590H :  0.28  419H :  0.28  476H :  0.28  352O :  0.27  216H :  0.27  516H :  0.27  505O :  0.27  248H :  0.27
  706O :  0.27  548H :  0.27    9H :  0.27  423H :  0.26  544O :  0.26  213H :  0.26  199O :  0.26  117H :  0.26  539H :  0.26  368H :  0.26  714H :  0.26  717H :  0.26
  233H :  0.26  326H :  0.26  121O :  0.25   68H :  0.25   63H :  0.25  569H :  0.25  608H :  0.24  753H :  0.24  527H :  0.24  602H :  0.24   93H :  0.24  159H :  0.24
  180H :  0.24  618H :  0.23  396H :  0.23  240H :  0.23   26H :  0.23  254H :  0.23  659H :  0.23  611H :  0.22   83H :  0.22  218H :  0.22  681H :  0.22  518H :  0.21
  716H :  0.21  436O :  0.21  553O :  0.21  614H :  0.21  617H :  0.20  306H :  0.20   98H :  0.19  471H :  0.19  294H :  0.19  710H :  0.18   41H :  0.18  435H :  0.18
  644H :  0.18  252H :  0.17  398H :  0.17   87H :  0.17  510H :  0.17   57H :  0.17  669H :  0.17  317H :  0.17   12H :  0.17  225H :  0.17  231H :  0.17  441H :  0.17
  107H :  0.16  474H :  0.16  645H :  0.16  399H :  0.16  636H :  0.16  746H :  0.15  695H :  0.15  101H :  0.15  515H :  0.15   11H :  0.15   78H :  0.15  621H :  0.15
  587H :  0.14  244O :  0.14  588H :  0.14  305H :  0.14  425H :  0.14  666H :  0.14   17H :  0.14  323H :  0.14  215H :  0.14  756H :  0.13  450H :  0.13  580O :  0.13
  626H :  0.13  275H :  0.13  452H :  0.13    8H :  0.13  417H :  0.13  329H :  0.12   66H :  0.12  303H :  0.12  732H :  0.12  307O :  0.12  578H :  0.12  491H :  0.12
  354H :  0.12  428H :  0.12   77H :  0.12  302H :  0.11  389H :  0.11  606H :  0.11  341H :  0.11  473H :  0.11  311H :  0.11  267H :  0.11  165H :  0.11  740H :  0.11
   53H :  0.11  677H :  0.10  498H :  0.10   27H :  0.10  485H :  0.10  662H :  0.10  111H :  0.10  411H :  0.10  671H :  0.10   47H :  0.10  599H :  0.10   39H :  0.10
  530H :  0.10  555H :  0.10   74H :  0.10  230H :  0.10  701H :  0.09  693H :  0.09  404H :  0.09  416H :  0.09  203H :  0.09  105H :  0.09  258H :  0.09  729H :  0.09
  288H :  0.08  270H :  0.08  269H :  0.08  204H :  0.08  536H :  0.08  734H :  0.08  125H :  0.08  641H :  0.08  381H :  0.08  584H :  0.08  332H :  0.08  699H :  0.08
  195H :  0.08  156H :  0.08  453H :  0.08  183H :  0.08  186H :  0.07  132H :  0.07  336H :  0.07  104H :  0.07  348H :  0.07  140H :  0.07
    6 LP   *******   0.00 -41.65916  21.19748 -36.19711  616O : 22.84  394O : 14.15   34O : 13.56   40O : 13.27  325O : 12.52  229O : 12.50  163O : 11.51  712O : 11.46   88O : 11.44  421O : 11.33  661O : 10.98    4O : 10.95
  676O : 10.17  232O :  9.56  349O :  9.08  538O :  8.53  238O :  8.31  379O :  8.22   19O :  8.15  109O :  7.86   22O :  7.86  100O :  7.86  355O :  7.51  118O :  7.47
   61O :  7.37  130O :  7.15   13O :  6.85  664O :  6.84  565O :  6.68  715O :  6.64  631O :  6.63  310O :  6.58  139O :  6.50  700O :  6.39  592O :  6.30  166O :  6.22
  187O :  6.19  403O :  6.07  481O :  5.98  172O :  5.96   82O :  5.82  571O :  5.81  397O :  5.75  748O :  5.72   43O :  5.68  196O :  5.62  295O :  5.53  322O :  5.47
  457O :  5.39  148O :  5.36  448O :  5.23  241O :  5.21   91O :  5.19  628O :  5.19  424O :  5.19  136O :  5.11  112O :  5.08  430O :  5.04  433O :  5.03  283O :  4.98
  514O :  4.88  742O :  4.87  313O :  4.86  613O :  4.77  376O :  4.76   10O :  4.71    1O :  4.63   58O :  4.59    7O :  4.59  160O :  4.59  709O :  4.55  751O :  4.52
  328O :  4.51   76O :  4.50  298O :  4.50  559O :  4.46   52O :  4.45   46O :  4.43  358O :  4.41  280O :  4.41  367O :  4.30  685O :  4.29  265O :  4.26  415O :  4.24
  190O :  4.23  607O :  4.18  562O :  4.03  124O :  4.01   49O :  3.95   79O :  3.94  502O :  3.91  478O :  3.88  253O :  3.87  247O :  3.81   67O :  3.76  646O :  3.72
  175O :  3.67  178O :  3.63   55O :  3.62  115O :  3.62  286O :  3.58  220O :  3.46  754O :  3.44  304O :  3.39  532O :  3.37   64O :  3.32  391O :  3.30  652O :  3.22
   42H :  3.21  724O :  2.99  487O :  2.98  598O :  2.96  673O :  2.93  691O :  2.93  595O :  2.93  340O :  2.89  202O :  2.87  157O :  2.85  634O :  2.85  217O :  2.75
  103O :  2.75  211O :  2.70  655O :  2.70  193O :  2.68  292O :  2.68  169O :  2.64  721O :  2.60  472O :  2.60  277O :  2.59  331O :  2.57  568O :  2.56  205O :  2.56
  547O :  2.55  181O :  2.54  271O :  2.54  697O :  2.49  235O :  2.47  622O :  2.41  469O :  2.36  739O :  2.35   70O :  2.34  679O :  2.33  577O :  2.23  625O :  2.21
  643O :  2.20  319O :  2.16  409O :  2.07  526O :  2.07  316O :  2.07  508O :  2.05  658O :  2.03  289O :  2.00  694O :  1.99  703O :  1.96  460O :  1.95  442O :  1.94
  184O :  1.91   85O :  1.89  517O :  1.87  493O :  1.84  619O :  1.82  346O :  1.77  412O :  1.75  745O :  1.73   28O :  1.71  667O :  1.70  451O :  1.69  733O :  1.65
  484O :  1.62  262O :  1.61  637O :  1.61  208O :  1.61  250O :  1.60  540H :  1.58  496O :  1.56  523O :  1.51  649O :  1.51  520O :  1.48  173H :  1.45  418O :  1.44
  343O :  1.41  405H :  1.40  370O :  1.38  499O :  1.38  454O :  1.36  445O :  1.36  601O :  1.36   24H :  1.35  301O :  1.35  151O :  1.32  188H :  1.32  550O :  1.31
  400O :  1.30  610O :  1.29  168H :  1.26  589O :  1.26  702H :  1.24  312H :  1.18  373O :  1.18  609H :  1.13  334O :  1.10   25O :  1.10  189H :  1.09   45H :  1.08
  640O :  1.07  356H :  1.06  583O :  1.04  529O :  1.03  490O :  1.02  145O :  1.02   37O :  1.01  127O :  0.98  439O :  0.95  385O :  0.94  142O :  0.94  682O :  0.94
  463O :  0.92  274O :  0.92   84H :  0.92  234H :  0.91  541O :  0.90   21H :  0.90  511O :  0.88  509H :  0.87  256O :  0.87   90H :  0.87  494H :  0.84  388O :  0.84
   50H :  0.82  106O :  0.81  350H :  0.75  102H :  0.74  466O :  0.71  141H :  0.71  475O :  0.71  730O :  0.69  226O :  0.68  670O :  0.68  556O :  0.68  727O :  0.67
  198H :  0.65  133O :  0.64  268O :  0.64  154O :  0.63  119H :  0.63   20H :  0.62   16O :  0.62   54H :  0.61  152H :  0.60  138H :  0.60  214O :  0.60  434H :  0.59
  574O :  0.59  137H :  0.58  722H :  0.58  427O :  0.58  161H :  0.56  665H :  0.55   92H :  0.55   73O :  0.54  414H :  0.53   69H :  0.53   65H :  0.51  272H :  0.51
   94O :  0.49  663H :  0.49  406O :  0.49  586O :  0.49  600H :  0.48   48H :  0.48  364O :  0.48  686H :  0.48  337O :  0.48  223O :  0.48  395H :  0.46  177H :  0.46
  688O :  0.46  456H :  0.46  344H :  0.46  264H :  0.46  259O :  0.46  170H :  0.45  561H :  0.45  749H :  0.44  126H :  0.44  212H :  0.44  718O :  0.43  566H :  0.43
  458H :  0.42   31O :  0.41  315H :  0.41  698H :  0.41  236H :  0.41  604O :  0.41   81H :  0.40  593H :  0.40  535O :  0.39  461H :  0.39   97O :  0.39   51H :  0.38
  392H :  0.37  633H :  0.37  382O :  0.36    6H :  0.36  179H :  0.36  488H :  0.36   89H :  0.36  648H :  0.36  164H :  0.36  736O :  0.35   96H :  0.35   38H :  0.34
  162H :  0.33    5H :  0.33  401H :  0.33  210H :  0.33  650H :  0.32  750H :  0.32   36H :  0.32  522H :  0.32  752H :  0.31  675H :  0.30  723H :  0.30   72H :  0.30
  110H :  0.30  131H :  0.30  647H :  0.29  361O :  0.29  278H :  0.29  714H :  0.29  149H :  0.29  320H :  0.28  360H :  0.28  255H :  0.28  711H :  0.28  297H :  0.28
  549H :  0.27   62H :  0.27   56H :  0.27  174H :  0.26  590H :  0.26  419H :  0.26  476H :  0.26  352O :  0.26  516H :  0.26  216H :  0.26  505O :  0.26  248H :  0.26
  706O :  0.26  548H :  0.26    9H :  0.25  423H :  0.25  544O :  0.25  213H :  0.25  117H :  0.25  199O :  0.25  539H :  0.25  368H :  0.24  233H :  0.24  326H :  0.24
  121O :  0.24   68H :  0.24   63H :  0.23  569H :  0.23  608H :  0.23  753H :  0.23  527H :  0.23  602H :  0.23   93H :  0.23  597H :  0.23  159H :  0.23  180H :  0.22
  618H :  0.22  240H :  0.22   26H :  0.22  254H :  0.22  659H :  0.22  611H :  0.21   83H :  0.21  218H :  0.21  681H :  0.21  518H :  0.20  436O :  0.20  717H :  0.20
  553O :  0.20  614H :  0.20  716H :  0.20  617H :  0.19  306H :  0.19   98H :  0.18  294H :  0.18  710H :  0.17  435H :  0.17   41H :  0.17  644H :  0.17  396H :  0.17
  398H :  0.16   87H :  0.16  510H :  0.16   57H :  0.16  669H :  0.16  317H :  0.16   12H :  0.16  225H :  0.16  231H :  0.16  441H :  0.16  252H :  0.16  107H :  0.15
  474H :  0.15  645H :  0.15  399H :  0.15  636H :  0.15  746H :  0.15  695H :  0.14  101H :  0.14  515H :  0.14   11H :  0.14   78H :  0.14  621H :  0.14  587H :  0.14
  244O :  0.14  588H :  0.13  305H :  0.13  425H :  0.13  666H :  0.13   17H :  0.13  323H :  0.13  215H :  0.13  756H :  0.13  450H :  0.12  580O :  0.12  626H :  0.12
  275H :  0.12  452H :  0.12    8H :  0.12  417H :  0.12  329H :  0.12   66H :  0.12  303H :  0.12  732H :  0.12  307O :  0.11  578H :  0.11  491H :  0.11  354H :  0.11
  428H :  0.11   77H :  0.11  302H :  0.11  606H :  0.11  341H :  0.11  473H :  0.11  389H :  0.11  311H :  0.10  267H :  0.10  165H :  0.10  740H :  0.10   53H :  0.10
  677H :  0.10  498H :  0.10   27H :  0.10  485H :  0.10  662H :  0.10  111H :  0.10  411H :  0.09  671H :  0.09   47H :  0.09  599H :  0.09   39H :  0.09  530H :  0.09
  471H :  0.09  555H :  0.09   74H :  0.09  230H :  0.09  701H :  0.09  693H :  0.09  404H :  0.09  416H :  0.09  203H :  0.09  105H :  0.09  258H :  0.08  729H :  0.08
  288H :  0.08  270H :  0.08  269H :  0.08  204H :  0.08  536H :  0.08  734H :  0.08  125H :  0.07  381H :  0.07  641H :  0.07  584H :  0.07  332H :  0.07  699H :  0.07
  195H :  0.07  156H :  0.07  453H :  0.07  183H :  0.07  186H :  0.07
    7 LP   *******   0.00  45.06884  20.87257 -34.27281  616O : 22.50  229O : 14.17   34O : 13.36   40O : 13.07  325O : 12.34  712O : 11.29  163O : 11.29   88O : 11.28  421O : 11.16  661O : 10.82    4O : 10.79  394O : 10.56
  676O : 10.02  232O :  9.42  349O :  8.95  538O :  8.41  238O :  8.18  379O :  8.09   19O :  8.02  109O :  7.75   22O :  7.74  100O :  7.74  355O :  7.40  118O :  7.36
   61O :  7.26  130O :  7.04   13O :  6.75  664O :  6.74  631O :  6.64  565O :  6.58  715O :  6.54  310O :  6.48  139O :  6.40  700O :  6.30  592O :  6.21  166O :  6.13
  187O :  6.10  403O :  5.98  481O :  5.90  172O :  5.87   82O :  5.73  571O :  5.71  397O :  5.66  748O :  5.63   43O :  5.60  196O :  5.53  295O :  5.45  322O :  5.40
  457O :  5.31  148O :  5.30  448O :  5.16  241O :  5.14   91O :  5.12  628O :  5.11  424O :  5.11  136O :  5.04  112O :  5.00  433O :  4.96  430O :  4.95  283O :  4.90
  514O :  4.80  742O :  4.80  313O :  4.77  613O :  4.70  376O :  4.69   10O :  4.64    1O :  4.56   58O :  4.53    7O :  4.52  160O :  4.52  709O :  4.48  751O :  4.45
  328O :  4.44   76O :  4.43  298O :  4.43  559O :  4.39   52O :  4.38   46O :  4.37  358O :  4.35  280O :  4.34  685O :  4.22  265O :  4.19  367O :  4.19  415O :  4.18
  190O :  4.17  607O :  4.12  562O :  3.97  124O :  3.96   49O :  3.90   79O :  3.88  502O :  3.85  478O :  3.82  253O :  3.82  247O :  3.76   67O :  3.71  646O :  3.66
  178O :  3.58   55O :  3.56  115O :  3.56  175O :  3.56  286O :  3.52  220O :  3.41  754O :  3.39  304O :  3.34  532O :  3.30   64O :  3.27  391O :  3.25   42H :  3.17
  652O :  3.16  724O :  2.95  487O :  2.93  598O :  2.92  595O :  2.91  673O :  2.89  691O :  2.89  340O :  2.84  202O :  2.83  157O :  2.81  634O :  2.81  217O :  2.71
  103O :  2.71  211O :  2.66  655O :  2.66  292O :  2.64  193O :  2.64  169O :  2.61  721O :  2.56  472O :  2.56  277O :  2.55  331O :  2.53  568O :  2.52  205O :  2.52
  547O :  2.51  181O :  2.51  271O :  2.50  697O :  2.45  235O :  2.43  622O :  2.38  469O :  2.33  739O :  2.32   70O :  2.31  679O :  2.30  625O :  2.26  577O :  2.20
  643O :  2.17  319O :  2.13  289O :  2.06  526O :  2.04  409O :  2.04  316O :  2.04  508O :  2.02  658O :  2.00  694O :  1.96  442O :  1.94  460O :  1.92  184O :  1.88
   85O :  1.86  517O :  1.84  703O :  1.83  493O :  1.81  619O :  1.79  346O :  1.74  412O :  1.73  745O :  1.70   28O :  1.69  667O :  1.68  451O :  1.67  733O :  1.62
  484O :  1.59  262O :  1.59  637O :  1.59  208O :  1.58  250O :  1.58  540H :  1.55  496O :  1.54  523O :  1.49  649O :  1.49  520O :  1.46  173H :  1.43  418O :  1.41
  343O :  1.39  405H :  1.38  370O :  1.36  499O :  1.35  454O :  1.34  445O :  1.34  601O :  1.34   24H :  1.33  301O :  1.33  151O :  1.31  188H :  1.30  550O :  1.30
  400O :  1.29  610O :  1.27  168H :  1.24  589O :  1.24  702H :  1.22  312H :  1.16  373O :  1.16  609H :  1.12  334O :  1.09   25O :  1.08  189H :  1.07   45H :  1.07
  640O :  1.06  356H :  1.04  583O :  1.02  529O :  1.01  490O :  1.01  145O :  1.01   37O :  0.99  127O :  0.96  439O :  0.93  385O :  0.93  142O :  0.93  682O :  0.93
  463O :  0.91  274O :  0.91   84H :  0.90  234H :  0.90  541O :  0.89   21H :  0.89  511O :  0.87  509H :  0.86  256O :  0.86   90H :  0.86  494H :  0.83  388O :  0.83
   50H :  0.81  106O :  0.80  350H :  0.74  102H :  0.73  466O :  0.70  141H :  0.70  475O :  0.70  730O :  0.68  226O :  0.67  670O :  0.67  556O :  0.67  727O :  0.66
  198H :  0.64  133O :  0.63  268O :  0.63  154O :  0.62  119H :  0.62   20H :  0.62   16O :  0.61   54H :  0.61  214O :  0.60  152H :  0.59  138H :  0.59  434H :  0.59
  574O :  0.58  137H :  0.57  722H :  0.57  427O :  0.57  161H :  0.55  665H :  0.54   92H :  0.54   73O :  0.53  414H :  0.52  395H :  0.52   69H :  0.52   65H :  0.50
  272H :  0.50   94O :  0.49  663H :  0.48  406O :  0.48  586O :  0.48   48H :  0.48  600H :  0.48  364O :  0.47  686H :  0.47  337O :  0.47  223O :  0.47  688O :  0.46
  456H :  0.45  344H :  0.45  177H :  0.45  264H :  0.45  259O :  0.45  170H :  0.44  561H :  0.44  749H :  0.44  126H :  0.43  212H :  0.43  718O :  0.42  566H :  0.42
  458H :  0.42   31O :  0.41  315H :  0.41  698H :  0.40  236H :  0.40  604O :  0.40   81H :  0.40  593H :  0.39  535O :  0.39  461H :  0.38   97O :  0.38   51H :  0.38
  392H :  0.37  633H :  0.36   89H :  0.36  382O :  0.36    6H :  0.36  179H :  0.35  488H :  0.35  648H :  0.35  736O :  0.35   96H :  0.35  164H :  0.34   38H :  0.33
  401H :  0.33  162H :  0.33    5H :  0.33  210H :  0.32  650H :  0.32  750H :  0.32   36H :  0.32  522H :  0.31  752H :  0.30  723H :  0.30  675H :  0.30   72H :  0.30
  110H :  0.29  131H :  0.29  647H :  0.29  278H :  0.29  361O :  0.29  714H :  0.29  149H :  0.29  320H :  0.28  360H :  0.27  255H :  0.27  711H :  0.27  597H :  0.27
  297H :  0.27  549H :  0.26   62H :  0.26   56H :  0.26  174H :  0.26  590H :  0.26  419H :  0.26  476H :  0.26  352O :  0.26  516H :  0.26  505O :  0.26  248H :  0.26
  706O :  0.25  548H :  0.25  216H :  0.25    9H :  0.25  423H :  0.25  544O :  0.25  368H :  0.25  213H :  0.25  199O :  0.24  117H :  0.24  539H :  0.24  233H :  0.24
  326H :  0.24  121O :  0.24   68H :  0.24   63H :  0.23  569H :  0.23  608H :  0.23  753H :  0.23  527H :  0.23  602H :  0.23   93H :  0.22  159H :  0.22  180H :  0.22
  618H :  0.22  396H :  0.22  240H :  0.22   26H :  0.21  254H :  0.21  659H :  0.21  611H :  0.21   83H :  0.21  218H :  0.21  681H :  0.21  231H :  0.20  518H :  0.20
  436O :  0.20  717H :  0.20  553O :  0.20  614H :  0.19  716H :  0.19  617H :  0.19  306H :  0.18   98H :  0.18  294H :  0.17  710H :  0.17  435H :  0.17   41H :  0.17
  644H :  0.17  398H :  0.16   87H :  0.16  510H :  0.16   57H :  0.16  669H :  0.16  317H :  0.16   12H :  0.16  225H :  0.16  441H :  0.16  252H :  0.15  107H :  0.15
  474H :  0.15  645H :  0.15  399H :  0.15  636H :  0.15  746H :  0.14  695H :  0.14  101H :  0.14  515H :  0.14   11H :  0.14   78H :  0.14  621H :  0.14  587H :  0.13
  244O :  0.13  588H :  0.13  305H :  0.13  425H :  0.13  666H :  0.13   17H :  0.13  323H :  0.13  756H :  0.13  450H :  0.12  580O :  0.12  215H :  0.12  275H :  0.12
  452H :  0.12  626H :  0.12    8H :  0.12  417H :  0.12  329H :  0.12   66H :  0.12  303H :  0.11  732H :  0.11  307O :  0.11  578H :  0.11  491H :  0.11  354H :  0.11
  428H :  0.11   77H :  0.11  302H :  0.11  606H :  0.10  473H :  0.10  341H :  0.10  389H :  0.10  311H :  0.10  705H :  0.10  267H :  0.10  165H :  0.10  740H :  0.10
   53H :  0.10  677H :  0.10  498H :  0.10   27H :  0.10  485H :  0.10  662H :  0.10  111H :  0.10  411H :  0.09  671H :  0.09   47H :  0.09  599H :  0.09   39H :  0.09
  530H :  0.09  471H :  0.09  555H :  0.09   74H :  0.09  701H :  0.09  693H :  0.09  404H :  0.09  416H :  0.09  203H :  0.09  105H :  0.08  258H :  0.08  729H :  0.08
  288H :  0.08  270H :  0.08  269H :  0.08  204H :  0.08  536H :  0.07  734H :  0.07  125H :  0.07  641H :  0.07  381H :  0.07  584H :  0.07  332H :  0.07  699H :  0.07
  195H :  0.07  156H :  0.07  453H :  0.07  183H :  0.07
    8 LP   *******   0.00 -15.83409  32.93166   3.93964  616O : 22.12   34O : 13.13   40O : 12.85  325O : 12.13  229O : 12.11  661O : 11.91  163O : 11.11  712O : 11.10   88O : 11.08  421O : 10.98    4O : 10.61  394O : 10.38
  676O :  9.85  232O :  9.25  349O :  8.95  538O :  8.27  238O :  8.04  379O :  7.96   19O :  7.89  109O :  7.62  100O :  7.61   22O :  7.61  355O :  7.27  118O :  7.23
   61O :  7.14  130O :  6.92  664O :  6.63   13O :  6.54  631O :  6.53  565O :  6.46  715O :  6.43  310O :  6.36  139O :  6.29  700O :  6.19  592O :  6.10  166O :  6.03
  187O :  5.99  403O :  5.88  481O :  5.80  172O :  5.77   82O :  5.64  571O :  5.63  397O :  5.57  748O :  5.54   43O :  5.50  196O :  5.44  295O :  5.36  322O :  5.30
  457O :  5.22  148O :  5.19  448O :  5.07  241O :  5.05   91O :  5.03  628O :  5.03  424O :  5.02  136O :  4.95  112O :  4.92  430O :  4.88  433O :  4.87  283O :  4.82
  514O :  4.72  742O :  4.72  313O :  4.69  613O :  4.62  376O :  4.61   10O :  4.54    1O :  4.48   58O :  4.45    7O :  4.44  160O :  4.44   76O :  4.41  709O :  4.41
  328O :  4.37  298O :  4.36  751O :  4.34  559O :  4.32   52O :  4.31   46O :  4.29  358O :  4.27  280O :  4.27  367O :  4.16  685O :  4.15  265O :  4.13  415O :  4.11
  190O :  4.10  607O :  4.05  562O :  3.90  124O :  3.89   49O :  3.83  502O :  3.79  478O :  3.76  253O :  3.75  247O :  3.69   67O :  3.65   79O :  3.65  646O :  3.60
  175O :  3.56  178O :  3.51   55O :  3.50  115O :  3.50  286O :  3.46  220O :  3.35  754O :  3.33  304O :  3.28  532O :  3.24   64O :  3.21  391O :  3.20  652O :  3.12
   42H :  3.11  724O :  2.90  487O :  2.88  598O :  2.87  595O :  2.86  673O :  2.84  691O :  2.84  340O :  2.80  202O :  2.78  157O :  2.76  634O :  2.76  217O :  2.67
  103O :  2.67  211O :  2.62  655O :  2.61  193O :  2.60  292O :  2.60  169O :  2.56  472O :  2.53  721O :  2.52  277O :  2.51  271O :  2.49  331O :  2.49  568O :  2.48
  205O :  2.48  547O :  2.47  181O :  2.46  697O :  2.41  235O :  2.39  622O :  2.34  469O :  2.29  739O :  2.28   70O :  2.27  679O :  2.26  577O :  2.16  625O :  2.14
  643O :  2.13  319O :  2.09  289O :  2.03  526O :  2.01  409O :  2.01  316O :  2.00  508O :  1.98  658O :  1.97  694O :  1.93  703O :  1.90  460O :  1.88  442O :  1.88
  184O :  1.85   85O :  1.83  517O :  1.81  493O :  1.78  619O :  1.76  346O :  1.70  412O :  1.69  745O :  1.67   28O :  1.66  667O :  1.65  451O :  1.64  733O :  1.59
  484O :  1.57  262O :  1.56  208O :  1.56  637O :  1.55  250O :  1.55  540H :  1.53  496O :  1.51  523O :  1.46  649O :  1.46  520O :  1.44  173H :  1.41  418O :  1.39
  343O :  1.37  405H :  1.35  370O :  1.34  499O :  1.34  454O :  1.32  445O :  1.32  601O :  1.32   24H :  1.31  301O :  1.31  151O :  1.28  188H :  1.28  550O :  1.27
  400O :  1.27  610O :  1.25  168H :  1.22  589O :  1.22  702H :  1.20  312H :  1.14  373O :  1.14  609H :  1.09  334O :  1.07   25O :  1.06  189H :  1.05   45H :  1.05
  640O :  1.04  356H :  1.03  583O :  1.01  529O :  0.99  490O :  0.99  145O :  0.99   37O :  0.97  127O :  0.94  439O :  0.92  385O :  0.91  142O :  0.91  682O :  0.91
  463O :  0.89  274O :  0.89   84H :  0.89  234H :  0.88  541O :  0.87   21H :  0.87  511O :  0.86  509H :  0.85  256O :  0.85   90H :  0.84  494H :  0.82  388O :  0.81
   50H :  0.79  106O :  0.78  350H :  0.74  102H :  0.71  466O :  0.69  141H :  0.69  475O :  0.69  730O :  0.67  226O :  0.66  670O :  0.66  556O :  0.66  727O :  0.65
  198H :  0.63  133O :  0.63  268O :  0.62  154O :  0.61  119H :  0.61   20H :  0.60   16O :  0.60   54H :  0.60  152H :  0.58  138H :  0.58  214O :  0.58  434H :  0.58
  574O :  0.57  137H :  0.57  722H :  0.56  427O :  0.56  161H :  0.54  665H :  0.53   92H :  0.53   73O :  0.52  272H :  0.51  414H :  0.51  395H :  0.51   69H :  0.51
   65H :  0.50   94O :  0.48  586O :  0.47  600H :  0.47  406O :  0.47   48H :  0.47  364O :  0.47  686H :  0.47  223O :  0.46  177H :  0.45  688O :  0.44  456H :  0.44
  344H :  0.44  264H :  0.44  259O :  0.44  170H :  0.43  561H :  0.43  749H :  0.43  126H :  0.42  212H :  0.42  337O :  0.42  718O :  0.42  566H :  0.41  458H :  0.41
   31O :  0.40  315H :  0.40  236H :  0.40  698H :  0.40  604O :  0.39  593H :  0.39  535O :  0.38  461H :  0.37   97O :  0.37   51H :  0.37  663H :  0.37  392H :  0.36
  633H :  0.36  382O :  0.35    6H :  0.35  179H :  0.35  488H :  0.35   89H :  0.35  648H :  0.35  736O :  0.34   96H :  0.34  164H :  0.34   38H :  0.33  401H :  0.32
  162H :  0.32    5H :  0.32  210H :  0.32  750H :  0.31  650H :  0.31   36H :  0.31  522H :  0.31   81H :  0.31  752H :  0.31  675H :  0.30  723H :  0.29   72H :  0.29
  110H :  0.29  131H :  0.29  647H :  0.29  361O :  0.29  278H :  0.29  714H :  0.28  149H :  0.28  320H :  0.27  360H :  0.27  255H :  0.27  711H :  0.27  597H :  0.27
  297H :  0.27  549H :  0.26   62H :  0.26   56H :  0.26  174H :  0.26  590H :  0.26  419H :  0.25  476H :  0.25  352O :  0.25  516H :  0.25  216H :  0.25  505O :  0.25
  248H :  0.25  706O :  0.25  548H :  0.25    9H :  0.25  423H :  0.24  544O :  0.24  213H :  0.24  199O :  0.24  117H :  0.24  539H :  0.24  368H :  0.24  233H :  0.23
  326H :  0.23  121O :  0.23   68H :  0.23   63H :  0.23  569H :  0.23  608H :  0.23  753H :  0.22  527H :  0.22  602H :  0.22   93H :  0.22  159H :  0.22  180H :  0.22
  618H :  0.21  396H :  0.21  240H :  0.21   26H :  0.21  254H :  0.21  659H :  0.21  611H :  0.20   83H :  0.20  218H :  0.20  681H :  0.20  518H :  0.20  436O :  0.20
  717H :  0.20  553O :  0.19  614H :  0.19  716H :  0.19  617H :  0.19  306H :  0.18   98H :  0.18  294H :  0.17  710H :  0.17   41H :  0.17  435H :  0.17  644H :  0.16
  398H :  0.16   87H :  0.16  510H :  0.16   57H :  0.16  669H :  0.16   12H :  0.16  317H :  0.16  225H :  0.16  231H :  0.15  441H :  0.15  252H :  0.15  107H :  0.15
  474H :  0.15  399H :  0.15  645H :  0.15  636H :  0.15  746H :  0.14  695H :  0.14  101H :  0.14  515H :  0.14  621H :  0.14   78H :  0.14  587H :  0.13  244O :  0.13
  588H :  0.13   11H :  0.13  305H :  0.13  425H :  0.13  666H :  0.13   17H :  0.13  323H :  0.13  215H :  0.13  756H :  0.12  450H :  0.12  580O :  0.12  626H :  0.12
  275H :  0.12  452H :  0.12    8H :  0.12  417H :  0.12  329H :  0.11   66H :  0.11  303H :  0.11  732H :  0.11  307O :  0.11  578H :  0.11  491H :  0.11  354H :  0.11
  428H :  0.11  302H :  0.10  606H :  0.10  473H :  0.10  341H :  0.10  389H :  0.10  311H :  0.10  267H :  0.10  165H :  0.10  740H :  0.10   53H :  0.10  677H :  0.10
   27H :  0.10  498H :  0.10  485H :  0.09  111H :  0.09  411H :  0.09  599H :  0.09   47H :  0.09  671H :  0.09   39H :  0.09  530H :  0.09  471H :  0.09  555H :  0.09
   74H :  0.09  230H :  0.09  701H :  0.09  693H :  0.09  404H :  0.09  416H :  0.09  203H :  0.08  105H :  0.08  258H :  0.08   77H :  0.08  729H :  0.08  288H :  0.08
  270H :  0.08  269H :  0.07  204H :  0.07  536H :  0.07  734H :  0.07  125H :  0.07  641H :  0.07  381H :  0.07  584H :  0.07  332H :  0.07  699H :  0.07  195H :  0.07
  156H :  0.07
    9 LP   *******   0.00  11.94900  48.65239  18.32503  616O : 21.88   34O : 12.98   40O : 12.72    4O : 12.24  229O : 11.98  325O : 11.96  163O : 10.98   88O : 10.96  712O : 10.90  421O : 10.84  661O : 10.52  394O : 10.26
  676O :  9.74  232O :  9.15  349O :  8.70  538O :  8.17  238O :  7.96  379O :  7.87   19O :  7.81  109O :  7.53  100O :  7.53   22O :  7.53  355O :  7.19  118O :  7.16
   61O :  7.07  130O :  6.85   13O :  6.57  664O :  6.55  631O :  6.46  565O :  6.39  715O :  6.36  310O :  6.30  139O :  6.22  166O :  6.14  700O :  6.12  592O :  6.03
  187O :  5.92  403O :  5.81  481O :  5.73  172O :  5.71   82O :  5.58  571O :  5.56  397O :  5.50  748O :  5.48   43O :  5.42  196O :  5.38  295O :  5.30  322O :  5.25
  457O :  5.17  148O :  5.14  448O :  5.00  241O :  4.99   91O :  4.97  628O :  4.97  424O :  4.97  136O :  4.90  112O :  4.86  430O :  4.83  433O :  4.82  283O :  4.77
  514O :  4.67  742O :  4.67  313O :  4.64  613O :  4.57  376O :  4.56   10O :  4.51    1O :  4.44   58O :  4.41    7O :  4.39  160O :  4.39  709O :  4.36  751O :  4.33
  328O :  4.32   76O :  4.31  298O :  4.30  559O :  4.27   52O :  4.26   46O :  4.25  358O :  4.23  280O :  4.22  367O :  4.12  685O :  4.11  265O :  4.08  415O :  4.06
  190O :  4.05  607O :  4.00  562O :  3.86  124O :  3.83   49O :  3.79   79O :  3.77  502O :  3.75  478O :  3.72  253O :  3.71  247O :  3.65   67O :  3.61  646O :  3.56
  175O :  3.52  178O :  3.48   55O :  3.46  115O :  3.46  286O :  3.42  220O :  3.31  754O :  3.29  304O :  3.24  532O :  3.21   64O :  3.17  391O :  3.17  652O :  3.09
   42H :  3.08  724O :  2.87  487O :  2.85  598O :  2.84  595O :  2.83  673O :  2.81  691O :  2.81  340O :  2.77  202O :  2.75  157O :  2.73  634O :  2.73  217O :  2.64
  103O :  2.63  211O :  2.59  655O :  2.58  193O :  2.57  292O :  2.57  169O :  2.53  721O :  2.49  472O :  2.49  277O :  2.48  331O :  2.46  568O :  2.45  205O :  2.45
  547O :  2.44  271O :  2.43  181O :  2.41  697O :  2.38  235O :  2.36  622O :  2.31  469O :  2.27  739O :  2.25   70O :  2.24  679O :  2.23  577O :  2.14  625O :  2.11
  643O :  2.11  319O :  2.07  289O :  2.00  526O :  1.99  409O :  1.98  316O :  1.98  508O :  1.96  658O :  1.95  694O :  1.91  703O :  1.88  460O :  1.86  442O :  1.86
  184O :  1.83   85O :  1.81  517O :  1.79  493O :  1.76  619O :  1.74  346O :  1.69  412O :  1.68  745O :  1.65   28O :  1.64  667O :  1.63  451O :  1.63  733O :  1.58
  484O :  1.55  262O :  1.54  637O :  1.54  208O :  1.54  540H :  1.51  250O :  1.50  496O :  1.50  523O :  1.45  649O :  1.44  520O :  1.42  173H :  1.39  418O :  1.37
  343O :  1.35  405H :  1.34  370O :  1.33  499O :  1.32  601O :  1.30  445O :  1.30   24H :  1.30  301O :  1.29  151O :  1.27  188H :  1.26  550O :  1.26  400O :  1.26
  610O :  1.24  454O :  1.24  168H :  1.22  589O :  1.21  702H :  1.19  312H :  1.13  373O :  1.13  609H :  1.08  334O :  1.06   25O :  1.05  189H :  1.04   45H :  1.03
  640O :  1.03  356H :  1.01  583O :  1.00  529O :  0.98  490O :  0.98  145O :  0.98   37O :  0.96  127O :  0.93  439O :  0.91  385O :  0.90  142O :  0.90  682O :  0.90
  274O :  0.88   84H :  0.88  463O :  0.87  234H :  0.87  541O :  0.86   21H :  0.86  511O :  0.85  509H :  0.84  256O :  0.84   90H :  0.83  494H :  0.81  388O :  0.80
   50H :  0.79  106O :  0.77  350H :  0.72  102H :  0.71  466O :  0.69  141H :  0.68  475O :  0.68  730O :  0.66  226O :  0.66  670O :  0.65  556O :  0.65  727O :  0.64
  198H :  0.62  133O :  0.62  268O :  0.61  154O :  0.61  119H :  0.61   20H :  0.60   16O :  0.59   54H :  0.59  152H :  0.58  138H :  0.58  214O :  0.58  434H :  0.57
  574O :  0.56  137H :  0.56  722H :  0.56  427O :  0.55  161H :  0.53  665H :  0.53   92H :  0.52   73O :  0.52  414H :  0.51  395H :  0.51   69H :  0.50   65H :  0.49
  272H :  0.49   94O :  0.47  663H :  0.47  406O :  0.47  586O :  0.46  600H :  0.46   48H :  0.46  686H :  0.46  364O :  0.46  337O :  0.46  223O :  0.46  177H :  0.44
  688O :  0.44  344H :  0.44  264H :  0.44  259O :  0.44  456H :  0.43  170H :  0.43  561H :  0.43  749H :  0.43  212H :  0.42  718O :  0.41    6H :  0.41  566H :  0.41
  458H :  0.41   31O :  0.40  315H :  0.40  698H :  0.39  236H :  0.39  604O :  0.39   81H :  0.39  593H :  0.38  126H :  0.38  535O :  0.38  461H :  0.37   51H :  0.37
  392H :  0.36   97O :  0.36  633H :  0.35  382O :  0.35  179H :  0.34  488H :  0.34   89H :  0.34  648H :  0.34  736O :  0.34   96H :  0.34  164H :  0.34   38H :  0.32
  401H :  0.32  162H :  0.32  210H :  0.31  750H :  0.31  650H :  0.31   36H :  0.31  522H :  0.30  752H :  0.30  675H :  0.29   72H :  0.29  723H :  0.29  110H :  0.29
  131H :  0.28  647H :  0.28  361O :  0.28  278H :  0.28  149H :  0.28  320H :  0.27  360H :  0.27  255H :  0.27  711H :  0.27  597H :  0.27  297H :  0.26   62H :  0.26
  549H :  0.26   56H :  0.25  174H :  0.25  714H :  0.25  419H :  0.25  476H :  0.25  590H :  0.25  352O :  0.25  216H :  0.25  516H :  0.25  505O :  0.25  248H :  0.25
  706O :  0.25  548H :  0.25    9H :  0.24    5H :  0.24  423H :  0.24  544O :  0.24  213H :  0.24  199O :  0.24  117H :  0.24  539H :  0.24  368H :  0.23  233H :  0.23
  326H :  0.23  121O :  0.23   68H :  0.23   63H :  0.22  569H :  0.22  608H :  0.22  753H :  0.22  527H :  0.22  602H :  0.22   93H :  0.22  159H :  0.22  180H :  0.22
  618H :  0.21  396H :  0.21  240H :  0.21   26H :  0.21  254H :  0.21  659H :  0.21  611H :  0.20   83H :  0.20  218H :  0.20  681H :  0.20  518H :  0.20  717H :  0.19
  436O :  0.19  553O :  0.19  614H :  0.19  716H :  0.19  617H :  0.18   98H :  0.18  306H :  0.18  294H :  0.17  710H :  0.17   41H :  0.17  435H :  0.16  644H :  0.16
  398H :  0.16   87H :  0.16  510H :  0.16   57H :  0.16  669H :  0.16  317H :  0.16   12H :  0.15  225H :  0.15  231H :  0.15  441H :  0.15  107H :  0.15  474H :  0.15
  399H :  0.14  645H :  0.14  636H :  0.14  746H :  0.14  695H :  0.14  515H :  0.14  101H :  0.14   11H :  0.14   78H :  0.14  621H :  0.14  252H :  0.13  587H :  0.13
  244O :  0.13  588H :  0.13  305H :  0.13  425H :  0.13  666H :  0.13   17H :  0.13  323H :  0.12  215H :  0.12  756H :  0.12  450H :  0.12  580O :  0.12  626H :  0.12
[...]
   369   1 h    0.879 --   367 o    0.824
   370   8 o    1.833 --   372 h    0.851   371 h    0.827
   371   1 h    0.892 --   370 o    0.827
   372   1 h    0.891 --   370 o    0.851
   373   8 o    1.861 --   374 h    0.865   375 h    0.831
   374   1 h    0.896 --   373 o    0.865
   375   1 h    0.875 --   373 o    0.831
   376   8 o    1.845 --   378 h    0.833   377 h    0.798
   377   1 h    0.871 --   376 o    0.798
   378   1 h    0.888 --   376 o    0.833
   379   8 o    1.855 --   381 h    0.849   380 h    0.829
   380   1 h    0.890 --   379 o    0.829
   381   1 h    0.894 --   379 o    0.849
   382   8 o    1.855 --   383 h    0.815   384 h    0.782
   383   1 h    0.880 --   382 o    0.815
   384   1 h    0.873 --   382 o    0.782
   385   8 o    1.804 --   386 h    0.870   387 h    0.843
   386   1 h    0.906 --   385 o    0.870
   387   1 h    0.885 --   385 o    0.843
   388   8 o    1.871 --   390 h    0.853   389 h    0.830
   389   1 h    0.878 --   388 o    0.830
   390   1 h    0.890 --   388 o    0.853
   391   8 o    1.832 --   392 h    0.869   393 h    0.852
   392   1 h    0.904 --   391 o    0.869
   393   1 h    0.896 --   391 o    0.852
   394   8 o    1.815 --   395 h    0.849   396 h    0.833
   395   1 h    0.900 --   394 o    0.849
   396   1 h    0.887 --   394 o    0.833
   397   8 o    1.840 --   399 h    0.858   398 h    0.772
   398   1 h    0.872 --   397 o    0.772
   399   1 h    0.896 --   397 o    0.858
   400   8 o    1.855 --   402 h    0.877   401 h    0.851
   401   1 h    0.890 --   400 o    0.851
   402   1 h    0.895 --   400 o    0.877
   403   8 o    1.833 --   404 h    0.833   405 h    0.832
   404   1 h    0.880 --   403 o    0.833
   405   1 h    0.890 --   403 o    0.832
   406   8 o    1.850 --   407 h    0.815   408 h    0.806
   407   1 h    0.885 --   406 o    0.815
   408   1 h    0.878 --   406 o    0.806
   409   8 o    1.846 --   411 h    0.844   410 h    0.831
   410   1 h    0.892 --   409 o    0.831
   411   1 h    0.884 --   409 o    0.844
   412   8 o    1.887 --   413 h    0.816   414 h    0.810
   413   1 h    0.877 --   412 o    0.816
   414   1 h    0.868 --   412 o    0.810
   415   8 o    1.839 --   416 h    0.849   417 h    0.838
   416   1 h    0.892 --   415 o    0.849
   417   1 h    0.894 --   415 o    0.838
   418   8 o    1.849 --   419 h    0.881   420 h    0.801
   419   1 h    0.900 --   418 o    0.881
   420   1 h    0.877 --   418 o    0.801
   421   8 o    1.832 --   423 h    0.856   422 h    0.845
   422   1 h    0.892 --   421 o    0.845
   423   1 h    0.890 --   421 o    0.856
   424   8 o    1.877 --   425 h    0.882   426 h    0.802
   425   1 h    0.904 --   424 o    0.882
   426   1 h    0.881 --   424 o    0.802
   427   8 o    1.826 --   429 h    0.869   428 h    0.848
   428   1 h    0.891 --   427 o    0.848
   429   1 h    0.899 --   427 o    0.869
   430   8 o    1.851 --   431 h    0.864   432 h    0.806
   431   1 h    0.898 --   430 o    0.864
   432   1 h    0.877 --   430 o    0.806
   433   8 o    1.822 --   434 h    0.891   435 h    0.847
   434   1 h    0.908 --   433 o    0.891
   435   1 h    0.889 --   433 o    0.847
   436   8 o    1.848 --   438 h    0.839   437 h    0.808
   437   1 h    0.892 --   436 o    0.808
   438   1 h    0.878 --   436 o    0.839
   439   8 o    1.873 --   441 h    0.884   440 h    0.815
   440   1 h    0.876 --   439 o    0.815
   441   1 h    0.900 --   439 o    0.884
   442   8 o    1.863 --   443 h    0.804   444 h    0.790
   443   1 h    0.873 --   442 o    0.804
   444   1 h    0.873 --   442 o    0.790
   445   8 o    1.864 --   447 h    0.852   446 h    0.808
   446   1 h    0.889 --   445 o    0.808
   447   1 h    0.890 --   445 o    0.852
   448   8 o    1.855 --   449 h    0.876   450 h    0.876
   449   1 h    0.898 --   448 o    0.876
   450   1 h    0.893 --   448 o    0.876
   451   8 o    1.829 --   452 h    0.820   453 h    0.799
   452   1 h    0.890 --   451 o    0.820
   453   1 h    0.878 --   451 o    0.799
   454   8 o    1.841 --   456 h    0.845   455 h    0.791
   455   1 h    0.867 --   454 o    0.791
   456   1 h    0.887 --   454 o    0.845
   457   8 o    1.867 --   459 h    0.871   458 h    0.804
   458   1 h    0.865 --   457 o    0.804
   459   1 h    0.896 --   457 o    0.871
   460   8 o    1.827 --   461 h    0.859   462 h    0.798
   461   1 h    0.893 --   460 o    0.859
   462   1 h    0.872 --   460 o    0.798
   463   8 o    1.861 --   464 h    0.831   465 h    0.828
   464   1 h    0.893 --   463 o    0.831
   465   1 h    0.879 --   463 o    0.828
   466   8 o    1.852 --   468 h    0.871   467 h    0.802
   467   1 h    0.886 --   466 o    0.802
   468   1 h    0.901 --   466 o    0.871
   469   8 o    1.832 --   471 h    0.844   470 h    0.823
   470   1 h    0.892 --   469 o    0.823
   471   1 h    0.895 --   469 o    0.844
   472   8 o    1.867 --   473 h    0.846   474 h    0.827
   473   1 h    0.889 --   472 o    0.846
   474   1 h    0.887 --   472 o    0.827
   475   8 o    1.859 --   476 h    0.857   477 h    0.778
   476   1 h    0.897 --   475 o    0.857
   477   1 h    0.867 --   475 o    0.778
   478   8 o    1.856 --   480 h    0.860   479 h    0.817
   479   1 h    0.874 --   478 o    0.817
   480   1 h    0.900 --   478 o    0.860
   481   8 o    1.843 --   483 h    0.844   482 h    0.839
   482   1 h    0.890 --   481 o    0.839
   483   1 h    0.898 --   481 o    0.844
   484   8 o    1.853 --   485 h    0.914   486 h    0.784
   485   1 h    0.921 --   484 o    0.914
   486   1 h    0.876 --   484 o    0.784
   487   8 o    1.836 --   488 h    0.872   489 h    0.843
   488   1 h    0.900 --   487 o    0.872
   489   1 h    0.893 --   487 o    0.843
   490   8 o    1.847 --   492 h    0.852   491 h    0.842
   491   1 h    0.886 --   490 o    0.842
   492   1 h    0.893 --   490 o    0.852
   493   8 o    1.848 --   495 h    0.869   494 h    0.862
   494   1 h    0.893 --   493 o    0.862
   495   1 h    0.896 --   493 o    0.869
   496   8 o    1.814 --   497 h    0.855   498 h    0.831
   497   1 h    0.897 --   496 o    0.855
   498   1 h    0.885 --   496 o    0.831
   499   8 o    1.872 --   500 h    0.855   501 h    0.806
   500   1 h    0.899 --   499 o    0.855
   501   1 h    0.874 --   499 o    0.806
   502   8 o    1.846 --   503 h    0.852   504 h    0.814
   503   1 h    0.896 --   502 o    0.852
   504   1 h    0.885 --   502 o    0.814
   505   8 o    1.867 --   506 h    0.895   507 h    0.842
   506   1 h    0.904 --   505 o    0.895
   507   1 h    0.885 --   505 o    0.842
   508   8 o    1.841 --   509 h    0.815   510 h    0.794
   509   1 h    0.869 --   508 o    0.815
   510   1 h    0.873 --   508 o    0.794
   511   8 o    1.848 --   512 h    0.904   513 h    0.814
   512   1 h    0.913 --   511 o    0.904
   513   1 h    0.876 --   511 o    0.814
   514   8 o    1.843 --   515 h    0.880   516 h    0.816
   515   1 h    0.902 --   514 o    0.880
   516   1 h    0.885 --   514 o    0.816
   517   8 o    1.839 --   519 h    0.863   518 h    0.832
   518   1 h    0.891 --   517 o    0.832
   519   1 h    0.892 --   517 o    0.863
   520   8 o    1.853 --   522 h    0.883   521 h    0.781
   521   1 h    0.874 --   520 o    0.781
   522   1 h    0.902 --   520 o    0.883
   523   8 o    1.849 --   524 h    0.879   525 h    0.842
   524   1 h    0.899 --   523 o    0.879
   525   1 h    0.891 --   523 o    0.842
   526   8 o    1.842 --   528 h    0.867   527 h    0.793
   527   1 h    0.880 --   526 o    0.793
   528   1 h    0.898 --   526 o    0.867
   529   8 o    1.833 --   530 h    0.861   531 h    0.842
   530   1 h    0.893 --   529 o    0.861
   531   1 h    0.894 --   529 o    0.842
   532   8 o    1.873 --   534 h    0.868   533 h    0.825
   533   1 h    0.875 --   532 o    0.825
   534   1 h    0.894 --   532 o    0.868
   535   8 o    1.855 --   536 h    0.875   537 h    0.825
   536   1 h    0.903 --   535 o    0.875
   537   1 h    0.891 --   535 o    0.825
   538   8 o    1.818 --   539 h    0.840   540 h    0.820
   539   1 h    0.896 --   538 o    0.840
   540   1 h    0.886 --   538 o    0.820
   541   8 o    1.847 --   543 h    0.877   542 h    0.842
   542   1 h    0.884 --   541 o    0.842
   543   1 h    0.902 --   541 o    0.877
   544   8 o    1.849 --   546 h    0.912   545 h    0.822
   545   1 h    0.879 --   544 o    0.822
   546   1 h    0.920 --   544 o    0.912
   547   8 o    1.862 --   549 h    0.859   548 h    0.801
   548   1 h    0.871 --   547 o    0.801
   549   1 h    0.889 --   547 o    0.859
   550   8 o    1.833 --   552 h    0.875   551 h    0.842
   551   1 h    0.892 --   550 o    0.842
   552   1 h    0.900 --   550 o    0.875
   553   8 o    1.871 --   554 h    0.871   555 h    0.816
   554   1 h    0.900 --   553 o    0.871
   555   1 h    0.882 --   553 o    0.816
   556   8 o    1.831 --   557 h    0.841   558 h    0.797
   557   1 h    0.896 --   556 o    0.841
   558   1 h    0.882 --   556 o    0.797
   559   8 o    1.832 --   561 h    0.905   560 h    0.827
   560   1 h    0.889 --   559 o    0.827
   561   1 h    0.912 --   559 o    0.905
   562   8 o    1.843 --   564 h    0.829   563 h    0.826
   563   1 h    0.891 --   562 o    0.826
   564   1 h    0.882 --   562 o    0.829
   565   8 o    1.853 --   566 h    0.824   567 h    0.799
   566   1 h    0.889 --   565 o    0.824
   567   1 h    0.876 --   565 o    0.799
   568   8 o    1.830 --   569 h    0.898   570 h    0.822
   569   1 h    0.911 --   568 o    0.898
   570   1 h    0.883 --   568 o    0.822
   571   8 o    1.827 --   572 h    0.851   573 h    0.821
   572   1 h    0.886 --   571 o    0.851
   573   1 h    0.880 --   571 o    0.821
   574   8 o    1.845 --   576 h    0.867   575 h    0.831
   575   1 h    0.879 --   574 o    0.831
   576   1 h    0.896 --   574 o    0.867
   577   8 o    1.859 --   579 h    0.863   578 h    0.806
   578   1 h    0.880 --   577 o    0.806
   579   1 h    0.902 --   577 o    0.863
   580   8 o    1.863 --   581 h    0.851   582 h    0.849
   581   1 h    0.893 --   580 o    0.851
   582   1 h    0.889 --   580 o    0.849
   583   8 o    1.845 --   584 h    0.907   585 h    0.782
   584   1 h    0.915 --   583 o    0.907
   585   1 h    0.866 --   583 o    0.782
   586   8 o    1.859 --   588 h    0.850   587 h    0.820
   587   1 h    0.885 --   586 o    0.820
   588   1 h    0.896 --   586 o    0.850
   589   8 o    1.853 --   590 h    0.829   591 h    0.794
   590   1 h    0.887 --   589 o    0.829
   591   1 h    0.872 --   589 o    0.794
   592   8 o    1.841 --   593 h    0.845   594 h    0.841
   593   1 h    0.892 --   592 o    0.845
   594   1 h    0.878 --   592 o    0.841
   595   8 o    1.867 --   597 h    0.866   596 h    0.797
   596   1 h    0.881 --   595 o    0.797
   597   1 h    0.895 --   595 o    0.866
   598   8 o    1.889 --   600 h    0.875   599 h    0.777
   599   1 h    0.870 --   598 o    0.777
   600   1 h    0.898 --   598 o    0.875
   601   8 o    1.880 --   603 h    0.821   602 h    0.812
   602   1 h    0.876 --   601 o    0.812
   603   1 h    0.887 --   601 o    0.821
   604   8 o    1.844 --   606 h    0.857   605 h    0.807
   605   1 h    0.878 --   604 o    0.807
   606   1 h    0.900 --   604 o    0.857
   607   8 o    1.824 --   608 h    0.873   609 h    0.826
   608   1 h    0.902 --   607 o    0.873
   609   1 h    0.886 --   607 o    0.826
   610   8 o    1.837 --   612 h    0.862   611 h    0.811
   611   1 h    0.883 --   610 o    0.811
   612   1 h    0.897 --   610 o    0.862
   613   8 o    1.849 --   615 h    0.866   614 h    0.833
   614   1 h    0.889 --   613 o    0.833
   615   1 h    0.894 --   613 o    0.866
   616   8 o    1.873 --   618 h    0.824   617 h    0.815
   617   1 h    0.875 --   616 o    0.815
   618   1 h    0.888 --   616 o    0.824
   619   8 o    1.864 --   621 h    0.853   620 h    0.820
   620   1 h    0.884 --   619 o    0.820
   621   1 h    0.891 --   619 o    0.853
   622   8 o    1.881 --   624 h    0.873   623 h    0.776
   623   1 h    0.879 --   622 o    0.776
   624   1 h    0.900 --   622 o    0.873
   625   8 o    1.838 --   626 h    0.876   627 h    0.834
   626   1 h    0.901 --   625 o    0.876
   627   1 h    0.890 --   625 o    0.834
   628   8 o    1.811 --   629 h    0.847   630 h    0.837
   629   1 h    0.882 --   628 o    0.847
   630   1 h    0.892 --   628 o    0.837
   631   8 o    1.823 --   632 h    0.855   633 h    0.809
   632   1 h    0.900 --   631 o    0.855
   633   1 h    0.884 --   631 o    0.809
   634   8 o    1.837 --   636 h    0.886   635 h    0.854
   635   1 h    0.897 --   634 o    0.854
   636   1 h    0.902 --   634 o    0.886
   637   8 o    1.835 --   639 h    0.865   638 h    0.859
   638   1 h    0.896 --   637 o    0.859
   639   1 h    0.892 --   637 o    0.865
   640   8 o    1.860 --   641 h    0.837   642 h    0.818
   641   1 h    0.882 --   640 o    0.837
   642   1 h    0.875 --   640 o    0.818
   643   8 o    1.854 --   644 h    0.905   645 h    0.832
   644   1 h    0.912 --   643 o    0.905
   645   1 h    0.877 --   643 o    0.832
   646   8 o    1.854 --   648 h    0.893   647 h    0.819
   647   1 h    0.874 --   646 o    0.819
   648   1 h    0.909 --   646 o    0.893
   649   8 o    1.835 --   651 h    0.845   650 h    0.807
   650   1 h    0.883 --   649 o    0.807
   651   1 h    0.895 --   649 o    0.845
   652   8 o    1.848 --   654 h    0.842   653 h    0.802
   653   1 h    0.874 --   652 o    0.802
   654   1 h    0.894 --   652 o    0.842
   655   8 o    1.851 --   657 h    0.837   656 h    0.818
   656   1 h    0.879 --   655 o    0.818
   657   1 h    0.891 --   655 o    0.837
   658   8 o    1.857 --   660 h    0.909   659 h    0.812
   659   1 h    0.880 --   658 o    0.812
   660   1 h    0.913 --   658 o    0.909
   661   8 o    1.845 --   662 h    0.822   663 h    0.803
   662   1 h    0.880 --   661 o    0.822
   663   1 h    0.871 --   661 o    0.803
   664   8 o    1.850 --   665 h    0.866   666 h    0.818
   665   1 h    0.896 --   664 o    0.866
   666   1 h    0.875 --   664 o    0.818
   667   8 o    1.865 --   668 h    0.848   669 h    0.833
   668   1 h    0.892 --   667 o    0.848
   669   1 h    0.887 --   667 o    0.833
   670   8 o    1.880 --   672 h    0.822   671 h    0.816
   671   1 h    0.877 --   670 o    0.816
   672   1 h    0.892 --   670 o    0.822
   673   8 o    1.872 --   675 h    0.798   674 h    0.770
   674   1 h    0.875 --   673 o    0.770
   675   1 h    0.885 --   673 o    0.798
   676   8 o    1.838 --   677 h    0.882   678 h    0.802
   677   1 h    0.900 --   676 o    0.882
   678   1 h    0.878 --   676 o    0.802
   679   8 o    1.834 --   680 h    0.838   681 h    0.838
   680   1 h    0.888 --   679 o    0.838
   681   1 h    0.893 --   679 o    0.838
   682   8 o    1.903 --   684 h    0.841   683 h    0.825
   683   1 h    0.883 --   682 o    0.825
   684   1 h    0.877 --   682 o    0.841
   685   8 o    1.863 --   687 h    0.899   686 h    0.794
   686   1 h    0.879 --   685 o    0.794
   687   1 h    0.908 --   685 o    0.899
   688   8 o    1.880 --   690 h    0.865   689 h    0.809
   689   1 h    0.880 --   688 o    0.809
   690   1 h    0.899 --   688 o    0.865
   691   8 o    1.837 --   693 h    0.917   692 h    0.778
   692   1 h    0.879 --   691 o    0.778
   693   1 h    0.925 --   691 o    0.917
   694   8 o    1.830 --   695 h    0.885   696 h    0.797
   695   1 h    0.907 --   694 o    0.885
   696   1 h    0.875 --   694 o    0.797
   697   8 o    1.843 --   698 h    0.913   699 h    0.773
   698   1 h    0.919 --   697 o    0.913
   699   1 h    0.871 --   697 o    0.773
   700   8 o    1.838 --   702 h    0.884   701 h    0.796
   701   1 h    0.870 --   700 o    0.796
   702   1 h    0.906 --   700 o    0.884
   703   8 o    1.833 --   704 h    0.812   705 h    0.798
   704   1 h    0.884 --   703 o    0.812
   705   1 h    0.877 --   703 o    0.798
   706   8 o    1.888 --   708 h    0.821   707 h    0.808
   707   1 h    0.873 --   706 o    0.808
   708   1 h    0.877 --   706 o    0.821
   709   8 o    1.850 --   711 h    0.840   710 h    0.825
   710   1 h    0.891 --   709 o    0.825
   711   1 h    0.891 --   709 o    0.840
   712   8 o    1.870 --   714 h    0.846   713 h    0.813
   713   1 h    0.870 --   712 o    0.813
   714   1 h    0.886 --   712 o    0.846
   715   8 o    1.841 --   717 h    0.878   716 h    0.812
   716   1 h    0.872 --   715 o    0.812
   717   1 h    0.900 --   715 o    0.878
   718   8 o    1.870 --   719 h    0.858   720 h    0.769
   719   1 h    0.900 --   718 o    0.858
   720   1 h    0.869 --   718 o    0.769
   721   8 o    1.882 --   722 h    0.824   723 h    0.816
   722   1 h    0.878 --   721 o    0.824
   723   1 h    0.880 --   721 o    0.816
   724   8 o    1.848 --   726 h    0.831   725 h    0.822
   725   1 h    0.880 --   724 o    0.822
   726   1 h    0.887 --   724 o    0.831
   727   8 o    1.853 --   728 h    0.916   729 h    0.777
   728   1 h    0.923 --   727 o    0.916
   729   1 h    0.877 --   727 o    0.777
   730   8 o    1.861 --   732 h    0.836   731 h    0.822
   731   1 h    0.890 --   730 o    0.822
   732   1 h    0.894 --   730 o    0.836
   733   8 o    1.855 --   734 h    0.916   735 h    0.827
   734   1 h    0.919 --   733 o    0.916
   735   1 h    0.880 --   733 o    0.827
   736   8 o    1.857 --   738 h    0.882   737 h    0.843
   737   1 h    0.891 --   736 o    0.843
   738   1 h    0.899 --   736 o    0.882
   739   8 o    1.847 --   740 h    0.836   741 h    0.835
   740   1 h    0.882 --   739 o    0.836
   741   1 h    0.889 --   739 o    0.835
   742   8 o    1.862 --   743 h    0.882   744 h    0.807
   743   1 h    0.906 --   742 o    0.882
   744   1 h    0.880 --   742 o    0.807
   745   8 o    1.852 --   746 h    0.831   747 h    0.822
   746   1 h    0.876 --   745 o    0.831
   747   1 h    0.877 --   745 o    0.822
   748   8 o    1.860 --   749 h    0.816   750 h    0.775
   749   1 h    0.890 --   748 o    0.816
   750   1 h    0.868 --   748 o    0.775
   751   8 o    1.845 --   752 h    0.888   753 h    0.773
   752   1 h    0.897 --   751 o    0.888
   753   1 h    0.862 --   751 o    0.773
   754   8 o    1.851 --   755 h    0.868   756 h    0.841
   755   1 h    0.891 --   754 o    0.868
   756   1 h    0.886 --   754 o    0.841
 ---------------------------------------------------------------------------

Topologies differ in total number of bonds
Writing topology from bond orders to xtbtopo.mol

molecular dipole:
                 x           y           z       tot (Debye)
 q only:        4.555      -0.962      -1.381
   full:        7.096      -0.906      -1.056      18.379
molecular quadrupole (traceless):
                xx          xy          yy          xz          yz          zz
 q only:       83.730     -56.753     -48.426      32.213       7.317     -35.304
  q+dip:      128.499     -49.458     -86.850      46.986       3.455     -41.649
   full:      131.098     -47.364     -88.034      46.998       3.297     -43.064


           -------------------------------------------------
          | TOTAL ENERGY            -1283.304003956074 Eh   |
          | GRADIENT NORM               0.098494285985 Eh/α |
          | HOMO-LUMO GAP               6.073670623936 eV   |
           -------------------------------------------------

------------------------------------------------------------------------
 * finished run on 2022/11/24 at 12:22:34.835     
------------------------------------------------------------------------
 total:
 * wall-time:     0 d,  0 h,  0 min, 54.000 sec
 *  cpu-time:     0 d,  0 h,  1 min,  8.929 sec
 * ratio c/w:     1.276 speedup
 SCF:
 * wall-time:     0 d,  0 h,  0 min, 52.966 sec
 *  cpu-time:     0 d,  0 h,  1 min,  7.185 sec
 * ratio c/w:     1.268 speedup

