      -----------------------------------------------------------      
     |                   =====================                   |     
     |                           x T B                           |     
     |                   =====================                   |     
     |                         S. Grimme                         |     
     |          Mulliken Center for Theoretical Chemistry        |     
     |                    University of Bonn                     |     
      -----------------------------------------------------------      

   * xtb version 6.5.1 (579679a) compiled by 'ehlert@majestix' on 2022-07-11

   xtb is free software: you can redistribute it and/or modify it under
   the terms of the GNU Lesser General Public License as published by
   the Free Software Foundation, either version 3 of the License, or
   (at your option) any later version.
   
   xtb is distributed in the hope that it will be useful,
   but WITHOUT ANY WARRANTY; without even the implied warranty of
   MERCHANTABILITY or FITNESS FOR A PARTICULAR PURPOSE.  See the
   GNU Lesser General Public License for more details.
   
   Cite this work as:
   * C. Bannwarth, E. Caldeweyher, S. Ehlert, A. Hansen, P. Pracht,
     J. Seibert, S. Spicher, S. Grimme, WIREs Comput. Mol. Sci., 2020, 11,
     e01493. DOI: 10.1002/wcms.1493
   
   for GFN2-xTB:
   * C. Bannwarth, S. Ehlert and S. Grimme., J. Chem. Theory Comput., 2019,
     15, 1652-1671. DOI: 10.1021/acs.jctc.8b01176
   for GFN1-xTB:
   * S. Grimme, C. Bannwarth, P. Shushkov, J. Chem. Theory Comput., 2017,
     13, 1989-2009. DOI: 10.1021/acs.jctc.7b00118
   for GFN0-xTB:
   * P. Pracht, E. Caldeweyher, S. Ehlert, S. Grimme, ChemRxiv, 2019, preprint.
     DOI: 10.26434/chemrxiv.8326202.v1
   for GFN-FF:
   * S. Spicher and S. Grimme, Angew. Chem. Int. Ed., 2020, 59, 15665-15673.
     DOI: 10.1002/anie.202004239
   
   for ALPB and GBSA implicit solvation:
   * S. Ehlert, M. Stahn, S. Spicher, S. Grimme, J. Chem. Theory Comput.,
     2021, 17, 4250-4261. DOI: 10.1021/acs.jctc.1c00471
   
   for DFT-D4:
   * E. Caldeweyher, C. Bannwarth and S. Grimme, J. Chem. Phys., 2017,
     147, 034112. DOI: 10.1063/1.4993215
   * E. Caldeweyher, S. Ehlert, A. Hansen, H. Neugebauer, S. Spicher,
     C. Bannwarth and S. Grimme, J. Chem. Phys., 2019, 150, 154122.
     DOI: 10.1063/1.5090222
   * E. Caldeweyher, J.-M. Mewes, S. Ehlert and S. Grimme, Phys. Chem. Chem. Phys.
     2020, 22, 8499-8512. DOI: 10.1039/D0CP00502A
   
   for sTDA-xTB:
   * S. Grimme and C. Bannwarth, J. Chem. Phys., 2016, 145, 054103.
     DOI: 10.1063/1.4959605
   
   in the mass-spec context:
   * V. Asgeirsson, C. Bauer and S. Grimme, Chem. Sci., 2017, 8, 4879.
     DOI: 10.1039/c7sc00601b
   * J. Koopman and S. Grimme, ACS Omega 2019, 4, 12, 15120-15133.
     DOI: 10.1021/acsomega.9b02011
   
   for metadynamics refer to:
   * S. Grimme, J. Chem. Theory Comput., 2019, 155, 2847-2862
     DOI: 10.1021/acs.jctc.9b00143
   
   for SPH calculations refer to:
   * S. Spicher and S. Grimme, J. Chem. Theory Comput., 2021, 17, 1701-1714
     DOI: 10.1021/acs.jctc.0c01306
   
   with help from (in alphabetical order)
   P. Atkinson, C. Bannwarth, F. Bohle, G. Brandenburg, E. Caldeweyher
   M. Checinski, S. Dohm, S. Ehlert, S. Ehrlich, I. Gerasimov, C. Hölzer
   A. Katbashev, J. Koopman, C. Lavigne, S. Lehtola, F. März, M. Müller,
   F. Musil, H. Neugebauer, J. Pisarek, C. Plett, P. Pracht, F. Pultar,
   J. Seibert, P. Shushkov, S. Spicher, M. Stahn, M. Steiner, T. Strunk,
   J. Stückrath, T. Rose, and J. Unsleber
   
 * started run on 2022/11/24 at 12:21:16.684     

           -------------------------------------------------
          |                Calculation Setup                |
           -------------------------------------------------

          program call               : xtb xtbopt.coord --gfn2 --sp --gbsa water
          hostname                   : cn0430
          coordinate file            : xtbopt.coord
          omp threads                :                     2

   ID    Z sym.   atoms
    1    8 o      1, 4, 7, 10, 13, 16, 19, 22, 25, 28, 31, 34, 37, 40, 43,
                  46, 49, 52, 55, 58, 61, 64, 67, 70, 73, 76, 79, 82, 85, 88,
                  91, 94, 97, 100, 103, 106, 109, 112, 115, 118, 121, 124,
                  127, 130, 133, 136, 139, 142, 145, 148, 151, 154, 157, 160,
                  163, 166, 169, 172, 175, 178, 181, 184, 187, 190, 193, 196,
                  199, 202, 205, 208, 211, 214, 217, 220, 223, 226, 229, 232,
                  235, 238, 241, 244, 247, 250, 253, 256, 259, 262, 265, 268,
                  271, 274, 277, 280, 283, 286, 289, 292, 295, 298, 301, 304,
                  307, 310, 313, 316, 319, 322, 325, 328, 331, 334, 337, 340,
                  343, 346, 349, 352, 355, 358, 361, 364, 367, 370, 373, 376,
                  379, 382, 385, 388, 391, 394, 397, 400, 403, 406, 409, 412,
                  415, 418, 421, 424, 427, 430, 433, 436, 439, 442, 445, 448,
                  451, 454, 457, 460, 463, 466, 469, 472, 475, 478, 481, 484,
                  487, 490, 493, 496, 499, 502, 505, 508, 511, 514, 517, 520,
                  523, 526, 529, 532, 535, 538, 541, 544, 547, 550, 553, 556,
                  559, 562, 565, 568, 571, 574, 577, 580, 583, 586, 589, 592,
                  595, 598, 601, 604, 607, 610, 613, 616, 619, 622, 625, 628,
                  631, 634, 637, 640, 643, 646, 649, 652, 655, 658, 661, 664,
                  667, 670, 673, 676, 679, 682, 685, 688, 691, 694, 697, 700,
                  703, 706, 709, 712, 715, 718, 721, 724, 727, 730, 733, 736,
                  739, 742, 745, 748, 751, 754
    2    1 h      2, 3, 5, 6, 8, 9, 11, 12, 14, 15, 17, 18, 20, 21, 23, 24,
                  26, 27, 29, 30, 32, 33, 35, 36, 38, 39, 41, 42, 44, 45, 47,
                  48, 50, 51, 53, 54, 56, 57, 59, 60, 62, 63, 65, 66, 68, 69,
                  71, 72, 74, 75, 77, 78, 80, 81, 83, 84, 86, 87, 89, 90, 92,
                  93, 95, 96, 98, 99, 101, 102, 104, 105, 107, 108, 110, 111,
                  113, 114, 116, 117, 119, 120, 122, 123, 125, 126, 128, 129,
                  131, 132, 134, 135, 137, 138, 140, 141, 143, 144, 146, 147,
                  149, 150, 152, 153, 155, 156, 158, 159, 161, 162, 164, 165,
                  167, 168, 170, 171, 173, 174, 176, 177, 179, 180, 182, 183,
                  185, 186, 188, 189, 191, 192, 194, 195, 197, 198, 200, 201,
                  203, 204, 206, 207, 209, 210, 212, 213, 215, 216, 218, 219,
                  221, 222, 224, 225, 227, 228, 230, 231, 233, 234, 236, 237,
                  239, 240, 242, 243, 245, 246, 248, 249, 251, 252, 254, 255,
                  257, 258, 260, 261, 263, 264, 266, 267, 269, 270, 272, 273,
                  275, 276, 278, 279, 281, 282, 284, 285, 287, 288, 290, 291,
                  293, 294, 296, 297, 299, 300, 302, 303, 305, 306, 308, 309,
                  311, 312, 314, 315, 317, 318, 320, 321, 323, 324, 326, 327,
                  329, 330, 332, 333, 335, 336, 338, 339, 341, 342, 344, 345,
                  347, 348, 350, 351, 353, 354, 356, 357, 359, 360, 362, 363,
                  365, 366, 368, 369, 371, 372, 374, 375, 377, 378, 380, 381,
                  383, 384, 386, 387, 389, 390, 392, 393, 395, 396, 398, 399,
                  401, 402, 404, 405, 407, 408, 410, 411, 413, 414, 416, 417,
                  419, 420, 422, 423, 425, 426, 428, 429, 431, 432, 434, 435,
                  437, 438, 440, 441, 443, 444, 446, 447, 449, 450, 452, 453,
                  455, 456, 458, 459, 461, 462, 464, 465, 467, 468, 470, 471,
                  473, 474, 476, 477, 479, 480, 482, 483, 485, 486, 488, 489,
                  491, 492, 494, 495, 497, 498, 500, 501, 503, 504, 506, 507,
                  509, 510, 512, 513, 515, 516, 518, 519, 521, 522, 524, 525,
                  527, 528, 530, 531, 533, 534, 536, 537, 539, 540, 542, 543,
                  545, 546, 548, 549, 551, 552, 554, 555, 557, 558, 560, 561,
                  563, 564, 566, 567, 569, 570, 572, 573, 575, 576, 578, 579,
                  581, 582, 584, 585, 587, 588, 590, 591, 593, 594, 596, 597,
                  599, 600, 602, 603, 605, 606, 608, 609, 611, 612, 614, 615,
                  617, 618, 620, 621, 623, 624, 626, 627, 629, 630, 632, 633,
                  635, 636, 638, 639, 641, 642, 644, 645, 647, 648, 650, 651,
                  653, 654, 656, 657, 659, 660, 662, 663, 665, 666, 668, 669,
                  671, 672, 674, 675, 677, 678, 680, 681, 683, 684, 686, 687,
                  689, 690, 692, 693, 695, 696, 698, 699, 701, 702, 704, 705,
                  707, 708, 710, 711, 713, 714, 716, 717, 719, 720, 722, 723,
                  725, 726, 728, 729, 731, 732, 734, 735, 737, 738, 740, 741,
                  743, 744, 746, 747, 749, 750, 752, 753, 755, 756

molecular fragmentation (1/2 indicates fragments):
111222222222222222222222222222222222222222222222222222222222222222222222
222222222222222222222222222222222222222222222222222222222222222222222222
222222222222222222222222222222222222222222222222222222222222222222222222
222222222222222222222222222222222222222222222222222222222222222222222222
222222222222222222222222222222222222222222222222222222222222222222222222
222222222222222222222222222222222222222222222222222222222222222222222222
222222222222222222222222222222222222222222222222222222222222222222222222
222222222222222222222222222222222222222222222222222222222222222222222222
222222222222222222222222222222222222222222222222222222222222222222222222
222222222222222222222222222222222222222222222222222222222222222222222222
222222222222222222222222222222222222
# atoms in fragment 1/2:     3   753
 fragment masses (1/2) :       18.02     4521.84
CMA distance (Bohr)    :  18.527
constraining FC (au)   :  0.0500

           -------------------------------------------------
          |                 G F N 2 - x T B                 |
           -------------------------------------------------

        Reference                      10.1021/acs.jctc.8b01176
      * Hamiltonian:
        H0-scaling (s, p, d)           1.850000    2.230000    2.230000
        zeta-weighting                 0.500000
      * Dispersion:
        s8                             2.700000
        a1                             0.520000
        a2                             5.000000
        s9                             5.000000
      * Repulsion:
        kExp                           1.500000    1.000000
        rExp                           1.000000
      * Coulomb:
        alpha                          2.000000
        third order                    shell-resolved
        anisotropic                    true
        a3                             3.000000
        a5                             4.000000
        cn-shift                       1.200000
        cn-exp                         4.000000
        max-rad                        5.000000

      * Solvation model:               GBSA
        Solvent                        water
        Parameter file                 internal GFN2-xTB/GBSA
        Dielectric constant                8.0200E+01
        Reference state                gsolv [1 M gas/solution]
        Free energy shift                  1.8574E-03 Eh       1.1656E+00 kcal/mol
        Temperature                        2.9815E+02 K
        Density                            1.0000E+00 kg/L
        Solvent mass                       1.8000E+01 g/mol
        Interaction kernel             Still
        Born radius scaling (c1)           1.5524E+00
        Born radii integrator          GBOBC
        Born offset                        2.4628E-02 a0       4.6540E-02 AA
        H-bond correction              true
        Ion screening                  false
        Surface tension                    1.0000E-05 Eh       1.5569E+01 dyn/cm
        Grid points                               230 per atom

          ...................................................
          :                      SETUP                      :
          :.................................................:
          :  # basis functions                1512          :
          :  # atomic orbitals                1512          :
          :  # shells                         1008          :
          :  # electrons                      2016          :
          :  max. iterations                   250          :
          :  Hamiltonian                  GFN2-xTB          :
          :  restarted?                      false          :
          :  GBSA solvation                   true          :
          :  PC potential                    false          :
          :  electronic temp.          300.0000000     K    :
          :  accuracy                    1.0000000          :
          :  -> integral cutoff          0.2500000E+02      :
          :  -> integral neglect         0.1000000E-07      :
          :  -> SCF convergence          0.1000000E-05 Eh   :
          :  -> wf. convergence          0.1000000E-03 e    :
          :  Broyden damping             0.4000000          :
          ...................................................

 iter      E             dE          RMSdq      gap      omega  full diag
   1  -1291.2375567 -0.129124E+04  0.408E+00    8.30       0.0  T
   2  -1291.3213976 -0.838409E-01  0.242E+00    7.78       1.0  T
   3  -1291.3573975 -0.359999E-01  0.224E-01    6.62       1.0  T
   4  -1291.3628226 -0.542502E-02  0.483E-02    6.90       1.0  T
   5  -1291.3629883 -0.165751E-03  0.311E-02    6.83       1.0  T
   6  -1291.3630362 -0.478526E-04  0.372E-03    6.84       1.0  T
   7  -1291.3630378 -0.164429E-05  0.938E-04    6.84       3.9  T
   8  -1291.3630379 -0.948082E-07  0.472E-04    6.84       7.7  T
   9  -1291.3630379 -0.354444E-07  0.139E-04    6.84      26.3  T

   *** convergence criteria satisfied after 9 iterations ***

         #    Occupation            Energy/Eh            Energy/eV
      -------------------------------------------------------------
         1        2.0000           -0.6564332             -17.8625
       ...           ...                  ...                  ...
      1002        2.0000           -0.3352536              -9.1227
      1003        2.0000           -0.3342606              -9.0957
      1004        2.0000           -0.3325798              -9.0500
      1005        2.0000           -0.3315882              -9.0230
      1006        2.0000           -0.3255095              -8.8576
      1007        2.0000           -0.3148717              -8.5681
      1008        2.0000           -0.3047369              -8.2923 (HOMO)
      1009                         -0.0534421              -1.4542 (LUMO)
      1010                         -0.0453956              -1.2353
      1011                         -0.0342418              -0.9318
      1012                         -0.0322524              -0.8776
      1013                         -0.0283103              -0.7704
       ...                                ...                  ...
      1512                          0.5131193              13.9627
      -------------------------------------------------------------
                  HL-Gap            0.2512948 Eh            6.8381 eV
             Fermi-level           -0.1790895 Eh           -4.8733 eV

 SCC (total)                   0 d,  0 h,  0 min, 22.163 sec
 SCC setup                      ...        0 min,  0.117 sec (  0.528%)
 Dispersion                     ...        0 min,  0.110 sec (  0.495%)
 classical contributions        ...        0 min,  0.023 sec (  0.106%)
 integral evaluation            ...        0 min,  0.605 sec (  2.729%)
 iterations                     ...        0 min,  8.808 sec ( 39.740%)
 molecular gradient             ...        0 min, 12.431 sec ( 56.088%)
 printout                       ...        0 min,  0.070 sec (  0.316%)

         :::::::::::::::::::::::::::::::::::::::::::::::::::::
         ::                     SUMMARY                     ::
         :::::::::::::::::::::::::::::::::::::::::::::::::::::
         :: total energy           -1283.543938680652 Eh    ::
         :: total w/o Gsasa/hb     -1283.315741384087 Eh    ::
         :: gradient norm              0.120000507249 Eh/a0 ::
         :: HOMO-LUMO gap              6.838078859415 eV    ::
         ::.................................................::
         :: SCC energy             -1291.363037943517 Eh    ::
         :: -> isotropic ES            7.331747585100 Eh    ::
         :: -> anisotropic ES         -1.628426945044 Eh    ::
         :: -> anisotropic XC         -0.120035014951 Eh    ::
         :: -> dispersion             -0.800281093518 Eh    ::
         :: -> Gsolv                  -0.255415594265 Eh    ::
         ::    -> Gelec               -0.027218297700 Eh    ::
         ::    -> Gsasa                0.005525993084 Eh    ::
         ::    -> Ghb                 -0.235580732775 Eh    ::
         ::    -> Gshift               0.001857443127 Eh    ::
         :: repulsion energy           7.660617408757 Eh    ::
         :: add. restraining           0.000000000000 Eh    ::
         :: total charge               0.000000000000 e     ::
         :::::::::::::::::::::::::::::::::::::::::::::::::::::

           -------------------------------------------------
          |                Property Printout                |
           -------------------------------------------------

    * Orbital Energies and Occupations

         #    Occupation            Energy/Eh            Energy/eV
      -------------------------------------------------------------
         1        2.0000           -0.6564332             -17.8625
       ...           ...                  ...                  ...
       996        2.0000           -0.3410886              -9.2815
       997        2.0000           -0.3407964              -9.2735
       998        2.0000           -0.3397478              -9.2450
       999        2.0000           -0.3388425              -9.2204
      1000        2.0000           -0.3380303              -9.1983
      1001        2.0000           -0.3369717              -9.1695
      1002        2.0000           -0.3352536              -9.1227
      1003        2.0000           -0.3342606              -9.0957
      1004        2.0000           -0.3325798              -9.0500
      1005        2.0000           -0.3315882              -9.0230
      1006        2.0000           -0.3255095              -8.8576
      1007        2.0000           -0.3148717              -8.5681
      1008        2.0000           -0.3047369              -8.2923 (HOMO)
      1009                         -0.0534421              -1.4542 (LUMO)
      1010                         -0.0453956              -1.2353
      1011                         -0.0342418              -0.9318
      1012                         -0.0322524              -0.8776
      1013                         -0.0283103              -0.7704
      1014                         -0.0194792              -0.5301
      1015                         -0.0162313              -0.4417
      1016                         -0.0096627              -0.2629
      1017                         -0.0076514              -0.2082
      1018                         -0.0035862              -0.0976
      1019                         -0.0010780              -0.0293
       ...                                ...                  ...
      1512                          0.5131193              13.9627
      -------------------------------------------------------------
                  HL-Gap            0.2512948 Eh            6.8381 eV
             Fermi-level           -0.1790895 Eh           -4.8733 eV

     #   Z          covCN         q      C6AA      α(0)
     1   8 o        1.607    -0.683    27.253     7.046
     2   1 h        0.803     0.345     0.601     1.218
     3   1 h        0.804     0.331     0.635     1.252
     4   8 o        1.610    -0.685    27.323     7.055
     5   1 h        0.804     0.350     0.589     1.205
     6   1 h        0.804     0.351     0.587     1.203
     7   8 o        1.609    -0.675    27.061     7.021
     8   1 h        0.803     0.348     0.594     1.211
     9   1 h        0.805     0.330     0.637     1.254
    10   8 o        1.608    -0.669    26.902     7.000
    11   1 h        0.803     0.354     0.580     1.196
    12   1 h        0.805     0.335     0.623     1.240
    13   8 o        1.609    -0.678    27.126     7.029
    14   1 h        0.804     0.339     0.614     1.231
    15   1 h        0.805     0.331     0.634     1.251
    16   8 o        1.607    -0.690    27.455     7.072
    17   1 h        0.804     0.340     0.611     1.228
    18   1 h        0.803     0.341     0.610     1.227
    19   8 o        1.608    -0.685    27.324     7.055
    20   1 h        0.804     0.337     0.619     1.236
    21   1 h        0.803     0.357     0.572     1.188
    22   8 o        1.607    -0.686    27.340     7.057
    23   1 h        0.803     0.353     0.582     1.199
    24   1 h        0.804     0.323     0.655     1.272
    25   8 o        1.608    -0.671    26.959     7.008
    26   1 h        0.805     0.341     0.610     1.227
    27   1 h        0.804     0.337     0.621     1.238
    28   8 o        1.607    -0.684    27.298     7.052
    29   1 h        0.802     0.345     0.599     1.216
    30   1 h        0.804     0.350     0.588     1.205
    31   8 o        1.604    -0.710    27.983     7.139
    32   1 h        0.802     0.360     0.566     1.182
    33   1 h        0.804     0.343     0.604     1.221
    34   8 o        1.609    -0.669    26.891     6.999
    35   1 h        0.804     0.331     0.636     1.252
    36   1 h        0.805     0.343     0.605     1.222
    37   8 o        1.609    -0.677    27.101     7.026
    38   1 h        0.804     0.336     0.623     1.240
    39   1 h        0.805     0.341     0.609     1.225
    40   8 o        1.607    -0.698    27.662     7.098
    41   1 h        0.803     0.344     0.602     1.219
    42   1 h        0.804     0.340     0.613     1.230
    43   8 o        1.609    -0.673    27.004     7.014
    44   1 h        0.804     0.337     0.621     1.238
    45   1 h        0.805     0.327     0.646     1.263
    46   8 o        1.608    -0.675    27.045     7.019
    47   1 h        0.805     0.332     0.633     1.250
    48   1 h        0.803     0.354     0.579     1.195
    49   8 o        1.607    -0.691    27.477     7.075
    50   1 h        0.804     0.334     0.628     1.245
    51   1 h        0.803     0.326     0.648     1.264
    52   8 o        1.608    -0.676    27.091     7.025
    53   1 h        0.804     0.339     0.615     1.232
    54   1 h        0.804     0.334     0.628     1.245
    55   8 o        1.606    -0.693    27.535     7.082
    56   1 h        0.804     0.328     0.642     1.259
    57   1 h        0.803     0.359     0.568     1.184
    58   8 o        1.608    -0.654    26.526     6.951
    59   1 h        0.805     0.324     0.654     1.270
    60   1 h        0.803     0.340     0.612     1.229
    61   8 o        1.607    -0.686    27.335     7.056
    62   1 h        0.804     0.339     0.615     1.232
    63   1 h        0.803     0.352     0.583     1.199
    64   8 o        1.608    -0.687    27.360     7.060
    65   1 h        0.804     0.354     0.578     1.194
    66   1 h        0.804     0.344     0.602     1.219
    67   8 o        1.606    -0.694    27.549     7.084
    68   1 h        0.805     0.327     0.644     1.261
    69   1 h        0.803     0.349     0.591     1.207
    70   8 o        1.608    -0.682    27.226     7.042
    71   1 h        0.804     0.338     0.618     1.235
    72   1 h        0.803     0.343     0.606     1.223
    73   8 o        1.609    -0.684    27.277     7.049
    74   1 h        0.805     0.340     0.612     1.229
    75   1 h        0.804     0.354     0.580     1.196
    76   8 o        1.607    -0.692    27.494     7.077
    77   1 h        0.803     0.363     0.558     1.174
    78   1 h        0.804     0.333     0.629     1.246
    79   8 o        1.610    -0.681    27.213     7.041
    80   1 h        0.805     0.342     0.606     1.223
    81   1 h        0.805     0.329     0.641     1.257
    82   8 o        1.609    -0.667    26.857     6.994
    83   1 h        0.805     0.341     0.611     1.228
    84   1 h        0.804     0.346     0.596     1.213
    85   8 o        1.607    -0.695    27.570     7.087
    86   1 h        0.804     0.329     0.641     1.257
    87   1 h        0.803     0.354     0.579     1.196
    88   8 o        1.608    -0.685    27.321     7.055
    89   1 h        0.804     0.341     0.611     1.227
    90   1 h        0.804     0.351     0.587     1.203
    91   8 o        1.605    -0.705    27.848     7.122
    92   1 h        0.802     0.350     0.588     1.205
    93   1 h        0.803     0.337     0.619     1.236
    94   8 o        1.609    -0.666    26.822     6.990
    95   1 h        0.804     0.347     0.596     1.213
    96   1 h        0.804     0.356     0.574     1.190
    97   8 o        1.609    -0.679    27.157     7.033
    98   1 h        0.805     0.347     0.596     1.212
    99   1 h        0.804     0.321     0.660     1.276
   100   8 o        1.609    -0.676    27.081     7.023
   101   1 h        0.804     0.343     0.605     1.221
   102   1 h        0.804     0.352     0.583     1.200
   103   8 o        1.608    -0.685    27.326     7.055
   104   1 h        0.803     0.356     0.574     1.191
   105   1 h        0.805     0.325     0.651     1.267
   106   8 o        1.609    -0.663    26.747     6.980
   107   1 h        0.804     0.342     0.606     1.223
   108   1 h        0.805     0.335     0.625     1.242
   109   8 o        1.608    -0.690    27.453     7.072
   110   1 h        0.804     0.350     0.588     1.204
   111   1 h        0.804     0.330     0.636     1.253
   112   8 o        1.608    -0.664    26.767     6.983
   113   1 h        0.804     0.331     0.636     1.253
   114   1 h        0.804     0.347     0.595     1.211
   115   8 o        1.606    -0.698    27.672     7.100
   116   1 h        0.802     0.350     0.588     1.205
   117   1 h        0.805     0.316     0.674     1.289
   118   8 o        1.607    -0.667    26.851     6.994
   119   1 h        0.804     0.339     0.614     1.231
   120   1 h        0.802     0.335     0.624     1.241
   121   8 o        1.607    -0.665    26.791     6.986
   122   1 h        0.804     0.334     0.626     1.243
   123   1 h        0.804     0.337     0.620     1.237
   124   8 o        1.606    -0.702    27.777     7.113
   125   1 h        0.803     0.346     0.597     1.214
   126   1 h        0.803     0.340     0.613     1.230
   127   8 o        1.610    -0.661    26.685     6.972
   128   1 h        0.805     0.328     0.642     1.258
   129   1 h        0.804     0.345     0.599     1.216
   130   8 o        1.608    -0.657    26.588     6.959
   131   1 h        0.803     0.363     0.559     1.174
   132   1 h        0.805     0.328     0.643     1.260
   133   8 o        1.608    -0.678    27.122     7.029
   134   1 h        0.804     0.342     0.606     1.223
   135   1 h        0.803     0.321     0.661     1.278
   136   8 o        1.609    -0.684    27.295     7.051
   137   1 h        0.804     0.342     0.606     1.223
   138   1 h        0.804     0.338     0.616     1.233
   139   8 o        1.607    -0.681    27.200     7.039
   140   1 h        0.803     0.354     0.580     1.196
   141   1 h        0.804     0.326     0.649     1.265
   142   8 o        1.610    -0.645    26.284     6.919
   143   1 h        0.804     0.334     0.628     1.245
   144   1 h        0.805     0.322     0.659     1.275
   145   8 o        1.609    -0.663    26.753     6.981
   146   1 h        0.804     0.339     0.615     1.232
   147   1 h        0.805     0.324     0.653     1.270
   148   8 o        1.605    -0.710    27.982     7.139
   149   1 h        0.803     0.348     0.594     1.211
   150   1 h        0.802     0.357     0.571     1.188
   151   8 o        1.610    -0.685    27.307     7.053
   152   1 h        0.804     0.344     0.602     1.218
   153   1 h        0.805     0.346     0.597     1.214
   154   8 o        1.607    -0.675    27.058     7.020
   155   1 h        0.805     0.324     0.653     1.269
   156   1 h        0.803     0.362     0.561     1.177
   157   8 o        1.604    -0.739    28.771     7.239
   158   1 h        0.803     0.355     0.576     1.192
   159   1 h        0.803     0.350     0.589     1.206
   160   8 o        1.608    -0.690    27.443     7.070
   161   1 h        0.804     0.331     0.635     1.252
   162   1 h        0.804     0.345     0.601     1.218
   163   8 o        1.609    -0.679    27.163     7.034
   164   1 h        0.805     0.325     0.650     1.267
   165   1 h        0.804     0.353     0.581     1.197
   166   8 o        1.604    -0.696    27.602     7.091
   167   1 h        0.804     0.332     0.633     1.250
   168   1 h        0.803     0.356     0.576     1.192
   169   8 o        1.609    -0.658    26.622     6.964
   170   1 h        0.805     0.328     0.644     1.260
   171   1 h        0.804     0.333     0.629     1.246
   172   8 o        1.607    -0.692    27.500     7.078
   173   1 h        0.803     0.353     0.582     1.198
   174   1 h        0.803     0.331     0.635     1.252
   175   8 o        1.608    -0.678    27.133     7.030
   176   1 h        0.804     0.352     0.583     1.200
   177   1 h        0.805     0.342     0.608     1.225
   178   8 o        1.608    -0.665    26.807     6.988
   179   1 h        0.803     0.351     0.587     1.203
   180   1 h        0.805     0.323     0.655     1.271
   181   8 o        1.606    -0.698    27.646     7.096
   182   1 h        0.802     0.369     0.547     1.162
   183   1 h        0.804     0.338     0.616     1.233
   184   8 o        1.607    -0.672    26.972     7.009
   185   1 h        0.803     0.335     0.625     1.242
   186   1 h        0.804     0.341     0.610     1.227
   187   8 o        1.608    -0.690    27.458     7.072
   188   1 h        0.803     0.341     0.610     1.227
   189   1 h        0.805     0.327     0.646     1.262
   190   8 o        1.611    -0.668    26.881     6.998
   191   1 h        0.804     0.334     0.628     1.245
   192   1 h        0.804     0.339     0.615     1.232
   193   8 o        1.610    -0.665    26.800     6.987
   194   1 h        0.805     0.329     0.639     1.256
   195   1 h        0.804     0.339     0.615     1.232
   196   8 o        1.606    -0.694    27.547     7.084
   197   1 h        0.804     0.321     0.661     1.278
   198   1 h        0.803     0.362     0.560     1.176
   199   8 o        1.607    -0.675    27.056     7.020
   200   1 h        0.804     0.351     0.587     1.203
   201   1 h        0.803     0.330     0.637     1.254
   202   8 o        1.607    -0.676    27.078     7.023
   203   1 h        0.803     0.327     0.645     1.262
   204   1 h        0.804     0.338     0.618     1.235
   205   8 o        1.606    -0.687    27.369     7.061
   206   1 h        0.804     0.354     0.579     1.195
   207   1 h        0.802     0.337     0.621     1.238
   208   8 o        1.608    -0.696    27.609     7.092
   209   1 h        0.804     0.346     0.597     1.214
   210   1 h        0.804     0.330     0.638     1.254
   211   8 o        1.608    -0.680    27.181     7.036
   212   1 h        0.804     0.328     0.643     1.259
   213   1 h        0.804     0.335     0.626     1.243
   214   8 o        1.607    -0.686    27.351     7.058
   215   1 h        0.804     0.338     0.617     1.233
   216   1 h        0.803     0.358     0.570     1.186
   217   8 o        1.610    -0.668    26.880     6.998
   218   1 h        0.804     0.320     0.663     1.279
   219   1 h        0.805     0.331     0.634     1.250
   220   8 o        1.608    -0.688    27.394     7.064
   221   1 h        0.803     0.345     0.601     1.218
   222   1 h        0.805     0.330     0.638     1.255
   223   8 o        1.609    -0.641    26.178     6.905
   224   1 h        0.805     0.336     0.621     1.238
   225   1 h        0.805     0.337     0.620     1.237
   226   8 o        1.607    -0.678    27.139     7.031
   227   1 h        0.803     0.345     0.601     1.218
   228   1 h        0.804     0.327     0.644     1.261
   229   8 o        1.607    -0.666    26.826     6.990
   230   1 h        0.804     0.343     0.604     1.221
   231   1 h        0.803     0.334     0.627     1.244
   232   8 o        1.607    -0.691    27.483     7.075
   233   1 h        0.803     0.352     0.583     1.200
   234   1 h        0.804     0.343     0.604     1.221
   235   8 o        1.607    -0.679    27.153     7.033
   236   1 h        0.803     0.354     0.580     1.196
   237   1 h        0.803     0.330     0.638     1.255
   238   8 o        1.607    -0.693    27.517     7.080
   239   1 h        0.805     0.326     0.648     1.264
   240   1 h        0.803     0.352     0.584     1.201
   241   8 o        1.609    -0.667    26.860     6.995
   242   1 h        0.806     0.315     0.678     1.293
   243   1 h        0.804     0.351     0.587     1.203
   244   8 o        1.608    -0.676    27.091     7.025
   245   1 h        0.804     0.340     0.613     1.230
   246   1 h        0.805     0.335     0.625     1.242
   247   8 o        1.609    -0.676    27.070     7.022
   248   1 h        0.804     0.356     0.575     1.191
   249   1 h        0.805     0.342     0.607     1.224
   250   8 o        1.608    -0.672    26.964     7.008
   251   1 h        0.805     0.317     0.673     1.289
   252   1 h        0.803     0.364     0.556     1.172
   253   8 o        1.608    -0.687    27.360     7.060
   254   1 h        0.804     0.355     0.576     1.192
   255   1 h        0.804     0.325     0.651     1.268
   256   8 o        1.605    -0.701    27.735     7.108
   257   1 h        0.802     0.338     0.617     1.234
   258   1 h        0.804     0.343     0.606     1.223
   259   8 o        1.606    -0.692    27.504     7.078
   260   1 h        0.805     0.319     0.666     1.282
   261   1 h        0.801     0.368     0.549     1.165
   262   8 o        1.609    -0.699    27.694     7.103
   263   1 h        0.803     0.354     0.580     1.196
   264   1 h        0.804     0.355     0.576     1.193
   265   8 o        1.608    -0.689    27.431     7.069
   266   1 h        0.804     0.358     0.570     1.186
   267   1 h        0.804     0.328     0.643     1.260
   268   8 o        1.608    -0.673    26.990     7.012
   269   1 h        0.804     0.328     0.643     1.259
   270   1 h        0.803     0.338     0.618     1.235
   271   8 o        1.608    -0.691    27.465     7.073
   272   1 h        0.804     0.352     0.584     1.201
   273   1 h        0.804     0.338     0.617     1.234
   274   8 o        1.606    -0.689    27.417     7.067
   275   1 h        0.805     0.317     0.671     1.287
   276   1 h        0.802     0.370     0.544     1.159
   277   8 o        1.606    -0.680    27.186     7.037
   278   1 h        0.802     0.365     0.555     1.171
   279   1 h        0.804     0.329     0.640     1.257
   280   8 o        1.610    -0.672    26.971     7.009
   281   1 h        0.804     0.339     0.615     1.232
   282   1 h        0.804     0.339     0.614     1.230
   283   8 o        1.608    -0.669    26.894     6.999
   284   1 h        0.806     0.311     0.688     1.303
   285   1 h        0.802     0.357     0.573     1.189
   286   8 o        1.607    -0.664    26.785     6.985
   287   1 h        0.802     0.353     0.581     1.198
   288   1 h        0.806     0.310     0.690     1.305
   289   8 o        1.604    -0.702    27.769     7.112
   290   1 h        0.805     0.317     0.671     1.287
   291   1 h        0.801     0.366     0.553     1.168
   292   8 o        1.609    -0.674    27.040     7.018
   293   1 h        0.804     0.359     0.568     1.184
   294   1 h        0.805     0.324     0.653     1.269
   295   8 o        1.606    -0.695    27.568     7.086
   296   1 h        0.805     0.314     0.679     1.295
   297   1 h        0.801     0.362     0.561     1.177
   298   8 o        1.608    -0.689    27.412     7.066
   299   1 h        0.804     0.350     0.588     1.205
   300   1 h        0.803     0.355     0.577     1.194
   301   8 o        1.606    -0.693    27.534     7.082
   302   1 h        0.804     0.339     0.616     1.233
   303   1 h        0.802     0.370     0.545     1.160
   304   8 o        1.607    -0.685    27.306     7.053
   305   1 h        0.804     0.338     0.617     1.234
   306   1 h        0.803     0.342     0.608     1.225
   307   8 o        1.607    -0.697    27.629     7.094
   308   1 h        0.803     0.363     0.558     1.173
   309   1 h        0.803     0.351     0.585     1.202
   310   8 o        1.609    -0.681    27.204     7.039
   311   1 h        0.805     0.318     0.669     1.285
   312   1 h        0.804     0.350     0.589     1.205
   313   8 o        1.607    -0.699    27.687     7.102
   314   1 h        0.802     0.362     0.562     1.178
   315   1 h        0.803     0.347     0.595     1.212
   316   8 o        1.607    -0.670    26.933     7.004
   317   1 h        0.803     0.339     0.615     1.232
   318   1 h        0.803     0.328     0.643     1.260
   319   8 o        1.609    -0.682    27.231     7.043
   320   1 h        0.805     0.327     0.645     1.262
   321   1 h        0.804     0.339     0.615     1.232
   322   8 o        1.609    -0.659    26.638     6.966
   323   1 h        0.804     0.344     0.604     1.220
   324   1 h        0.804     0.333     0.629     1.246
   325   8 o        1.608    -0.681    27.223     7.042
   326   1 h        0.804     0.326     0.648     1.264
   327   1 h        0.804     0.329     0.639     1.256
   328   8 o        1.608    -0.686    27.346     7.058
   329   1 h        0.805     0.322     0.658     1.274
   330   1 h        0.803     0.359     0.567     1.183
   331   8 o        1.606    -0.678    27.141     7.031
   332   1 h        0.805     0.314     0.682     1.297
   333   1 h        0.802     0.354     0.579     1.195
   334   8 o        1.608    -0.695    27.565     7.086
   335   1 h        0.804     0.339     0.615     1.232
   336   1 h        0.804     0.365     0.555     1.170
   337   8 o        1.606    -0.693    27.529     7.081
   338   1 h        0.803     0.346     0.597     1.214
   339   1 h        0.803     0.354     0.578     1.194
   340   8 o        1.608    -0.702    27.753     7.110
   341   1 h        0.804     0.327     0.646     1.263
   342   1 h        0.804     0.341     0.610     1.227
   343   8 o        1.608    -0.667    26.847     6.993
   344   1 h        0.804     0.341     0.609     1.226
   345   1 h        0.804     0.333     0.630     1.247
   346   8 o        1.608    -0.681    27.199     7.039
   347   1 h        0.804     0.350     0.588     1.205
   348   1 h        0.804     0.327     0.644     1.261
   349   8 o        1.607    -0.685    27.308     7.053
   350   1 h        0.803     0.327     0.645     1.262
   351   1 h        0.804     0.356     0.575     1.191
   352   8 o        1.607    -0.672    26.987     7.011
   353   1 h        0.804     0.330     0.637     1.254
   354   1 h        0.803     0.337     0.620     1.237
   355   8 o        1.609    -0.667    26.857     6.994
   356   1 h        0.805     0.322     0.658     1.274
   357   1 h        0.804     0.330     0.638     1.255
   358   8 o        1.609    -0.675    27.062     7.021
   359   1 h        0.806     0.306     0.703     1.317
   360   1 h        0.803     0.355     0.577     1.193
   361   8 o        1.610    -0.653    26.489     6.946
   362   1 h        0.805     0.334     0.627     1.244
   363   1 h        0.805     0.329     0.640     1.257
   364   8 o        1.607    -0.685    27.326     7.055
   365   1 h        0.804     0.336     0.622     1.239
   366   1 h        0.804     0.361     0.563     1.179
   367   8 o        1.610    -0.688    27.390     7.064
   368   1 h        0.804     0.352     0.584     1.201
   369   1 h        0.804     0.345     0.601     1.218
   370   8 o        1.607    -0.684    27.279     7.049
   371   1 h        0.803     0.332     0.632     1.249
   372   1 h        0.804     0.337     0.620     1.236
   373   8 o        1.608    -0.673    26.994     7.012
   374   1 h        0.804     0.329     0.639     1.255
   375   1 h        0.804     0.364     0.557     1.173
   376   8 o        1.606    -0.687    27.363     7.060
   377   1 h        0.803     0.362     0.561     1.177
   378   1 h        0.804     0.334     0.628     1.245
   379   8 o        1.608    -0.658    26.624     6.964
   380   1 h        0.804     0.329     0.640     1.257
   381   1 h        0.805     0.328     0.643     1.259
   382   8 o        1.605    -0.706    27.866     7.124
   383   1 h        0.803     0.350     0.587     1.204
   384   1 h        0.802     0.355     0.578     1.194
   385   8 o        1.609    -0.679    27.154     7.033
   386   1 h        0.805     0.307     0.700     1.314
   387   1 h        0.804     0.348     0.592     1.208
   388   8 o        1.608    -0.656    26.567     6.957
   389   1 h        0.804     0.350     0.588     1.205
   390   1 h        0.804     0.330     0.637     1.254
   391   8 o        1.608    -0.689    27.427     7.068
   392   1 h        0.805     0.330     0.638     1.255
   393   1 h        0.804     0.336     0.622     1.239
   394   8 o        1.608    -0.684    27.286     7.050
   395   1 h        0.804     0.326     0.647     1.264
   396   1 h        0.804     0.338     0.618     1.235
   397   8 o        1.604    -0.706    27.878     7.126
   398   1 h        0.800     0.368     0.549     1.164
   399   1 h        0.805     0.323     0.656     1.273
   400   8 o        1.609    -0.646    26.316     6.924
   401   1 h        0.804     0.335     0.625     1.242
   402   1 h        0.805     0.330     0.638     1.255
   403   8 o        1.608    -0.673    26.992     7.012
   404   1 h        0.804     0.343     0.605     1.222
   405   1 h        0.804     0.331     0.635     1.251
   406   8 o        1.606    -0.689    27.411     7.066
   407   1 h        0.803     0.336     0.623     1.240
   408   1 h        0.803     0.350     0.588     1.205
   409   8 o        1.609    -0.667    26.855     6.994
   410   1 h        0.804     0.329     0.639     1.256
   411   1 h        0.805     0.339     0.616     1.233
   412   8 o        1.608    -0.678    27.120     7.029
   413   1 h        0.803     0.351     0.585     1.202
   414   1 h        0.804     0.358     0.569     1.185
   415   8 o        1.608    -0.705    27.852     7.123
   416   1 h        0.804     0.343     0.605     1.222
   417   1 h        0.804     0.341     0.610     1.227
   418   8 o        1.607    -0.680    27.192     7.038
   419   1 h        0.805     0.317     0.671     1.286
   420   1 h        0.802     0.361     0.562     1.178
   421   8 o        1.610    -0.668    26.873     6.997
   422   1 h        0.805     0.335     0.625     1.242
   423   1 h        0.805     0.333     0.631     1.247
   424   8 o        1.610    -0.653    26.499     6.948
   425   1 h        0.805     0.308     0.698     1.312
   426   1 h        0.803     0.352     0.584     1.200
   427   8 o        1.609    -0.671    26.947     7.006
   428   1 h        0.804     0.335     0.624     1.241
   429   1 h        0.805     0.329     0.639     1.256
   430   8 o        1.607    -0.695    27.571     7.087
   431   1 h        0.804     0.325     0.651     1.267
   432   1 h        0.803     0.362     0.561     1.177
   433   8 o        1.610    -0.670    26.913     7.002
   434   1 h        0.805     0.315     0.676     1.292
   435   1 h        0.804     0.345     0.600     1.217
   436   8 o        1.606    -0.692    27.513     7.079
   437   1 h        0.802     0.327     0.645     1.262
   438   1 h        0.804     0.358     0.571     1.187
   439   8 o        1.608    -0.653    26.484     6.946
   440   1 h        0.803     0.354     0.580     1.196
   441   1 h        0.805     0.325     0.650     1.267
   442   8 o        1.606    -0.701    27.746     7.109
   443   1 h        0.803     0.355     0.576     1.192
   444   1 h        0.803     0.356     0.575     1.191
   445   8 o        1.609    -0.663    26.736     6.979
   446   1 h        0.803     0.330     0.638     1.255
   447   1 h        0.805     0.333     0.629     1.246
   448   8 o        1.610    -0.649    26.380     6.932
   449   1 h        0.805     0.333     0.630     1.247
   450   1 h        0.805     0.336     0.621     1.238
   451   8 o        1.606    -0.696    27.601     7.091
   452   1 h        0.803     0.328     0.644     1.260
   453   1 h        0.804     0.352     0.584     1.200
   454   8 o        1.607    -0.689    27.409     7.066
   455   1 h        0.803     0.352     0.583     1.199
   456   1 h        0.804     0.341     0.609     1.225
   457   8 o        1.608    -0.661    26.686     6.972
   458   1 h        0.803     0.372     0.539     1.153
   459   1 h        0.805     0.320     0.663     1.279
   460   8 o        1.609    -0.686    27.338     7.057
   461   1 h        0.805     0.327     0.645     1.262
   462   1 h        0.803     0.358     0.569     1.185
   463   8 o        1.607    -0.670    26.930     7.004
   464   1 h        0.804     0.327     0.646     1.262
   465   1 h        0.804     0.348     0.592     1.209
   466   8 o        1.606    -0.676    27.078     7.023
   467   1 h        0.802     0.340     0.613     1.230
   468   1 h        0.805     0.324     0.652     1.268
   469   8 o        1.608    -0.701    27.739     7.108
   470   1 h        0.804     0.337     0.620     1.237
   471   1 h        0.804     0.334     0.627     1.244
   472   8 o        1.608    -0.667    26.842     6.992
   473   1 h        0.804     0.334     0.628     1.244
   474   1 h        0.804     0.340     0.613     1.230
   475   8 o        1.607    -0.679    27.157     7.033
   476   1 h        0.805     0.320     0.665     1.281
   477   1 h        0.802     0.364     0.557     1.173
   478   8 o        1.608    -0.670    26.938     7.005
   479   1 h        0.803     0.360     0.565     1.181
   480   1 h        0.804     0.319     0.667     1.283
   481   8 o        1.608    -0.685    27.311     7.053
   482   1 h        0.804     0.338     0.617     1.234
   483   1 h        0.804     0.328     0.643     1.260
   484   8 o        1.606    -0.673    27.006     7.014
   485   1 h        0.806     0.313     0.683     1.298
   486   1 h        0.801     0.354     0.580     1.196
   487   8 o        1.608    -0.681    27.197     7.039
   488   1 h        0.805     0.330     0.638     1.255
   489   1 h        0.804     0.339     0.614     1.231
   490   8 o        1.608    -0.676    27.072     7.022
   491   1 h        0.804     0.344     0.602     1.219
   492   1 h        0.804     0.333     0.629     1.246
   493   8 o        1.609    -0.668    26.863     6.995
   494   1 h        0.804     0.339     0.615     1.232
   495   1 h        0.805     0.334     0.627     1.244
   496   8 o        1.608    -0.686    27.338     7.057
   497   1 h        0.805     0.321     0.660     1.276
   498   1 h        0.804     0.350     0.588     1.204
   499   8 o        1.607    -0.668    26.870     6.996
   500   1 h        0.804     0.316     0.676     1.291
   501   1 h        0.802     0.359     0.568     1.184
   502   8 o        1.606    -0.695    27.572     7.087
   503   1 h        0.804     0.327     0.646     1.263
   504   1 h        0.803     0.352     0.584     1.201
   505   8 o        1.609    -0.664    26.776     6.984
   506   1 h        0.805     0.328     0.644     1.260
   507   1 h        0.804     0.351     0.585     1.202
   508   8 o        1.608    -0.697    27.619     7.093
   509   1 h        0.805     0.355     0.577     1.193
   510   1 h        0.804     0.357     0.572     1.189
   511   8 o        1.608    -0.668    26.870     6.996
   512   1 h        0.806     0.312     0.685     1.300
   513   1 h        0.803     0.359     0.568     1.184
   514   8 o        1.608    -0.663    26.739     6.979
   515   1 h        0.805     0.323     0.654     1.271
   516   1 h        0.803     0.338     0.617     1.234
   517   8 o        1.608    -0.669    26.903     7.000
   518   1 h        0.804     0.336     0.622     1.239
   519   1 h        0.805     0.333     0.631     1.247
   520   8 o        1.607    -0.684    27.286     7.050
   521   1 h        0.802     0.364     0.556     1.172
   522   1 h        0.805     0.317     0.672     1.288
   523   8 o        1.609    -0.669    26.901     7.000
   524   1 h        0.805     0.330     0.636     1.253
   525   1 h        0.804     0.341     0.610     1.226
   526   8 o        1.607    -0.676    27.090     7.025
   527   1 h        0.802     0.343     0.606     1.223
   528   1 h        0.805     0.325     0.651     1.268
   529   8 o        1.608    -0.687    27.367     7.060
   530   1 h        0.805     0.343     0.604     1.220
   531   1 h        0.804     0.332     0.632     1.249
   532   8 o        1.609    -0.655    26.549     6.954
   533   1 h        0.804     0.356     0.575     1.191
   534   1 h        0.805     0.332     0.631     1.248
   535   8 o        1.609    -0.678    27.137     7.031
   536   1 h        0.805     0.325     0.650     1.267
   537   1 h        0.803     0.339     0.616     1.233
   538   8 o        1.607    -0.699    27.681     7.101
   539   1 h        0.803     0.322     0.660     1.276
   540   1 h        0.803     0.349     0.590     1.207
   541   8 o        1.609    -0.667    26.839     6.992
   542   1 h        0.804     0.350     0.589     1.206
   543   1 h        0.805     0.326     0.649     1.265
   544   8 o        1.609    -0.666    26.834     6.991
   545   1 h        0.803     0.354     0.580     1.196
   546   1 h        0.806     0.318     0.670     1.286
   547   8 o        1.608    -0.681    27.198     7.039
   548   1 h        0.803     0.368     0.547     1.162
   549   1 h        0.805     0.328     0.641     1.258
   550   8 o        1.609    -0.675    27.052     7.020
   551   1 h        0.804     0.335     0.624     1.241
   552   1 h        0.805     0.334     0.628     1.245
   553   8 o        1.609    -0.681    27.203     7.039
   554   1 h        0.805     0.330     0.638     1.255
   555   1 h        0.803     0.353     0.582     1.198
   556   8 o        1.607    -0.693    27.518     7.080
   557   1 h        0.804     0.323     0.657     1.273
   558   1 h        0.803     0.351     0.587     1.204
   559   8 o        1.609    -0.677    27.094     7.025
   560   1 h        0.803     0.343     0.604     1.221
   561   1 h        0.806     0.321     0.661     1.277
   562   8 o        1.608    -0.675    27.066     7.022
   563   1 h        0.804     0.329     0.639     1.256
   564   1 h        0.804     0.344     0.603     1.220
   565   8 o        1.607    -0.687    27.370     7.061
   566   1 h        0.803     0.330     0.639     1.256
   567   1 h        0.803     0.355     0.576     1.192
   568   8 o        1.609    -0.679    27.163     7.034
   569   1 h        0.805     0.313     0.683     1.298
   570   1 h        0.803     0.355     0.577     1.193
   571   8 o        1.609    -0.686    27.349     7.058
   572   1 h        0.805     0.337     0.619     1.236
   573   1 h        0.804     0.352     0.584     1.201
   574   8 o        1.608    -0.683    27.273     7.048
   575   1 h        0.803     0.361     0.563     1.178
   576   1 h        0.805     0.324     0.652     1.268
   577   8 o        1.607    -0.668    26.874     6.997
   578   1 h        0.803     0.345     0.601     1.218
   579   1 h        0.805     0.321     0.660     1.276
   580   8 o        1.609    -0.671    26.958     7.008
   581   1 h        0.804     0.337     0.619     1.236
   582   1 h        0.804     0.342     0.608     1.225
   583   8 o        1.607    -0.682    27.231     7.043
   584   1 h        0.806     0.308     0.696     1.311
   585   1 h        0.802     0.371     0.542     1.157
   586   8 o        1.607    -0.686    27.348     7.058
   587   1 h        0.803     0.347     0.595     1.212
   588   1 h        0.804     0.332     0.633     1.250
   589   8 o        1.605    -0.707    27.910     7.130
   590   1 h        0.803     0.337     0.619     1.236
   591   1 h        0.802     0.366     0.553     1.168
   592   8 o        1.609    -0.682    27.245     7.045
   593   1 h        0.804     0.331     0.634     1.251
   594   1 h        0.804     0.359     0.567     1.183
   595   8 o        1.608    -0.659    26.647     6.967
   596   1 h        0.803     0.341     0.610     1.226
   597   1 h        0.805     0.329     0.640     1.256
   598   8 o        1.606    -0.671    26.952     7.007
   599   1 h        0.802     0.364     0.557     1.172
   600   1 h        0.805     0.326     0.649     1.265
   601   8 o        1.607    -0.674    27.040     7.018
   602   1 h        0.804     0.351     0.586     1.203
   603   1 h        0.803     0.337     0.620     1.237
   604   8 o        1.607    -0.681    27.212     7.040
   605   1 h        0.802     0.347     0.595     1.211
   606   1 h        0.804     0.324     0.653     1.270
   607   8 o        1.609    -0.672    26.978     7.010
   608   1 h        0.805     0.320     0.662     1.278
   609   1 h        0.804     0.341     0.609     1.226
   610   8 o        1.607    -0.705    27.835     7.121
   611   1 h        0.802     0.349     0.590     1.207
   612   1 h        0.804     0.333     0.630     1.247
   613   8 o        1.608    -0.659    26.636     6.966
   614   1 h        0.804     0.335     0.625     1.242
   615   1 h        0.805     0.329     0.639     1.255
   616   8 o        1.607    -0.681    27.198     7.039
   617   1 h        0.803     0.359     0.567     1.183
   618   1 h        0.804     0.332     0.631     1.248
   619   8 o        1.608    -0.664    26.781     6.984
   620   1 h        0.803     0.343     0.606     1.223
   621   1 h        0.805     0.330     0.638     1.255
   622   8 o        1.607    -0.663    26.755     6.981
   623   1 h        0.803     0.345     0.600     1.217
   624   1 h        0.805     0.325     0.651     1.268
   625   8 o        1.609    -0.655    26.538     6.953
   626   1 h        0.805     0.317     0.671     1.287
   627   1 h        0.804     0.335     0.625     1.242
   628   8 o        1.610    -0.678    27.129     7.030
   629   1 h        0.805     0.339     0.613     1.230
   630   1 h        0.805     0.335     0.624     1.240
   631   8 o        1.607    -0.687    27.373     7.061
   632   1 h        0.804     0.321     0.662     1.278
   633   1 h        0.803     0.346     0.598     1.215
   634   8 o        1.609    -0.668    26.877     6.997
   635   1 h        0.804     0.333     0.628     1.245
   636   1 h        0.805     0.328     0.641     1.258
   637   8 o        1.609    -0.666    26.815     6.989
   638   1 h        0.805     0.331     0.635     1.252
   639   1 h        0.804     0.338     0.617     1.234
   640   8 o        1.608    -0.677    27.117     7.028
   641   1 h        0.804     0.345     0.600     1.216
   642   1 h        0.804     0.355     0.578     1.194
   643   8 o        1.610    -0.652    26.457     6.942
   644   1 h        0.806     0.310     0.692     1.307
   645   1 h        0.804     0.359     0.568     1.184
   646   8 o        1.608    -0.670    26.923     7.003
   647   1 h        0.803     0.366     0.551     1.167
   648   1 h        0.805     0.311     0.690     1.304
   649   8 o        1.606    -0.693    27.522     7.080
   650   1 h        0.803     0.351     0.587     1.204
   651   1 h        0.803     0.324     0.654     1.271
   652   8 o        1.608    -0.687    27.362     7.060
   653   1 h        0.803     0.364     0.557     1.172
   654   1 h        0.804     0.322     0.660     1.276
   655   8 o        1.608    -0.675    27.062     7.021
   656   1 h        0.804     0.346     0.597     1.214
   657   1 h        0.804     0.331     0.634     1.251
   658   8 o        1.608    -0.653    26.502     6.948
   659   1 h        0.803     0.346     0.597     1.214
   660   1 h        0.806     0.318     0.670     1.286
   661   8 o        1.609    -0.691    27.475     7.074
   662   1 h        0.804     0.348     0.592     1.209
   663   1 h        0.804     0.353     0.582     1.198
   664   8 o        1.608    -0.682    27.236     7.044
   665   1 h        0.804     0.328     0.643     1.259
   666   1 h        0.803     0.359     0.568     1.184
   667   8 o        1.607    -0.672    26.982     7.011
   668   1 h        0.804     0.341     0.610     1.226
   669   1 h        0.803     0.337     0.620     1.237
   670   8 o        1.606    -0.677    27.117     7.028
   671   1 h        0.803     0.353     0.581     1.198
   672   1 h        0.803     0.327     0.647     1.263
   673   8 o        1.603    -0.694    27.543     7.083
   674   1 h        0.802     0.355     0.576     1.193
   675   1 h        0.802     0.330     0.638     1.255
   676   8 o        1.607    -0.688    27.385     7.063
   677   1 h        0.805     0.318     0.669     1.285
   678   1 h        0.802     0.364     0.558     1.173
   679   8 o        1.608    -0.692    27.509     7.079
   680   1 h        0.804     0.351     0.586     1.203
   681   1 h        0.804     0.330     0.638     1.255
   682   8 o        1.608    -0.654    26.514     6.950
   683   1 h        0.803     0.335     0.624     1.241
   684   1 h        0.804     0.358     0.569     1.185
   685   8 o        1.607    -0.656    26.562     6.956
   686   1 h        0.802     0.350     0.589     1.206
   687   1 h        0.806     0.312     0.685     1.300
   688   8 o        1.607    -0.656    26.580     6.958
   689   1 h        0.802     0.346     0.598     1.215
   690   1 h        0.805     0.321     0.661     1.277
   691   8 o        1.605    -0.683    27.255     7.046
   692   1 h        0.801     0.350     0.588     1.205
   693   1 h        0.806     0.306     0.702     1.316
   694   8 o        1.607    -0.690    27.446     7.071
   695   1 h        0.805     0.313     0.684     1.299
   696   1 h        0.802     0.362     0.562     1.177
   697   8 o        1.606    -0.681    27.220     7.041
   698   1 h        0.806     0.306     0.703     1.317
   699   1 h        0.801     0.362     0.562     1.178
   700   8 o        1.607    -0.690    27.452     7.071
   701   1 h        0.802     0.365     0.554     1.170
   702   1 h        0.805     0.318     0.668     1.284
   703   8 o        1.606    -0.706    27.879     7.126
   704   1 h        0.803     0.339     0.616     1.233
   705   1 h        0.802     0.353     0.581     1.198
   706   8 o        1.606    -0.672    26.980     7.010
   707   1 h        0.803     0.352     0.584     1.200
   708   1 h        0.804     0.352     0.583     1.200
   709   8 o        1.607    -0.678    27.130     7.030
   710   1 h        0.803     0.333     0.631     1.248
   711   1 h        0.804     0.337     0.619     1.235
   712   8 o        1.607    -0.684    27.288     7.050
   713   1 h        0.803     0.368     0.549     1.164
   714   1 h        0.804     0.338     0.617     1.234
   715   8 o        1.609    -0.677    27.112     7.028
   716   1 h        0.803     0.364     0.556     1.172
   717   1 h        0.805     0.323     0.655     1.271
   718   8 o        1.606    -0.693    27.531     7.082
   719   1 h        0.805     0.319     0.668     1.284
   720   1 h        0.802     0.369     0.547     1.161
   721   8 o        1.607    -0.698    27.655     7.098
   722   1 h        0.803     0.360     0.566     1.181
   723   1 h        0.803     0.351     0.585     1.202
   724   8 o        1.607    -0.683    27.263     7.047
   725   1 h        0.803     0.354     0.579     1.196
   726   1 h        0.804     0.331     0.635     1.252
   727   8 o        1.605    -0.676    27.088     7.024
   728   1 h        0.806     0.309     0.693     1.308
   729   1 h        0.801     0.354     0.580     1.197
   730   8 o        1.606    -0.684    27.278     7.049
   731   1 h        0.802     0.337     0.621     1.238
   732   1 h        0.803     0.331     0.635     1.251
   733   8 o        1.609    -0.656    26.562     6.956
   734   1 h        0.806     0.315     0.679     1.294
   735   1 h        0.803     0.352     0.583     1.199
   736   8 o        1.609    -0.671    26.945     7.006
   737   1 h        0.804     0.349     0.591     1.208
   738   1 h        0.805     0.327     0.645     1.261
   739   8 o        1.608    -0.666    26.813     6.989
   740   1 h        0.804     0.339     0.615     1.232
   741   1 h        0.804     0.337     0.619     1.236
   742   8 o        1.607    -0.672    26.973     7.010
   743   1 h        0.805     0.320     0.663     1.279
   744   1 h        0.803     0.352     0.584     1.200
   745   8 o        1.608    -0.689    27.414     7.066
   746   1 h        0.804     0.358     0.570     1.186
   747   1 h        0.804     0.353     0.580     1.197
   748   8 o        1.605    -0.697    27.638     7.095
   749   1 h        0.803     0.329     0.640     1.257
   750   1 h        0.803     0.360     0.565     1.180
   751   8 o        1.606    -0.666    26.812     6.988
   752   1 h        0.805     0.319     0.667     1.283
   753   1 h        0.801     0.357     0.572     1.189
   754   8 o        1.610    -0.658    26.609     6.962
   755   1 h        0.805     0.324     0.652     1.268
   756   1 h        0.805     0.341     0.609     1.225

 Mol. C6AA /au·bohr⁶  :    2899175.581789
 Mol. C8AA /au·bohr⁸  :   52600998.710714
 Mol. α(0) /au        :       2393.026331


Wiberg/Mayer (AO) data.
largest (>0.10) Wiberg bond orders for each atom

 ---------------------------------------------------------------------------
     #   Z sym  total        # sym  WBO       # sym  WBO       # sym  WBO
 ---------------------------------------------------------------------------
     1   8 o    1.827 --     3 h    0.845     2 h    0.828
     2   1 h    0.881 --     1 o    0.828
     3   1 h    0.890 --     1 o    0.845
     4   8 o    1.862 --     6 h    0.825     5 h    0.815
     5   1 h    0.878 --     4 o    0.815
     6   1 h    0.877 --     4 o    0.825
     7   8 o    1.851 --     9 h    0.853     8 h    0.811
     8   1 h    0.879 --     7 o    0.811
     9   1 h    0.891 --     7 o    0.853
    10   8 o    1.870 --    12 h    0.857    11 h    0.809
    11   1 h    0.875 --    10 o    0.809
    12   1 h    0.887 --    10 o    0.857
    13   8 o    1.819 --    15 h    0.857    14 h    0.826
    14   1 h    0.885 --    13 o    0.826
    15   1 h    0.890 --    13 o    0.857
    16   8 o    1.840 --    17 h    0.838    18 h    0.799
    17   1 h    0.884 --    16 o    0.838
    18   1 h    0.884 --    16 o    0.799
    19   8 o    1.874 --    20 h    0.827    21 h    0.784
    20   1 h    0.886 --    19 o    0.827
    21   1 h    0.872 --    19 o    0.784
    22   8 o    1.851 --    24 h    0.826    23 h    0.799
    23   1 h    0.876 --    22 o    0.799
    24   1 h    0.895 --    22 o    0.826
    25   8 o    1.852 --    26 h    0.841    27 h    0.832
    26   1 h    0.884 --    25 o    0.841
    27   1 h    0.887 --    25 o    0.832
    28   8 o    1.865 --    30 h    0.829    29 h    0.802
    29   1 h    0.881 --    28 o    0.802
    30   1 h    0.878 --    28 o    0.829
    31   8 o    1.851 --    33 h    0.805    32 h    0.770
    32   1 h    0.870 --    31 o    0.770
    33   1 h    0.882 --    31 o    0.805
    34   8 o    1.832 --    36 h    0.844    35 h    0.840
    35   1 h    0.891 --    34 o    0.840
    36   1 h    0.882 --    34 o    0.844
    37   8 o    1.839 --    39 h    0.842    38 h    0.827
    38   1 h    0.887 --    37 o    0.827
    39   1 h    0.883 --    37 o    0.842
    40   8 o    1.853 --    42 h    0.808    41 h    0.805
    41   1 h    0.881 --    40 o    0.805
    42   1 h    0.885 --    40 o    0.808
    43   8 o    1.834 --    45 h    0.859    44 h    0.817
    44   1 h    0.887 --    43 o    0.817
    45   1 h    0.893 --    43 o    0.859
    46   8 o    1.849 --    47 h    0.850    48 h    0.815
    47   1 h    0.890 --    46 o    0.850
    48   1 h    0.875 --    46 o    0.815
    49   8 o    1.807 --    50 h    0.831    51 h    0.824
    50   1 h    0.889 --    49 o    0.831
    51   1 h    0.894 --    49 o    0.824
    52   8 o    1.823 --    54 h    0.844    53 h    0.843
    53   1 h    0.885 --    52 o    0.843
    54   1 h    0.889 --    52 o    0.844
    55   8 o    1.850 --    56 h    0.843    57 h    0.773
    56   1 h    0.892 --    55 o    0.843
    57   1 h    0.871 --    55 o    0.773
    58   8 o    1.877 --    59 h    0.864    60 h    0.812
    59   1 h    0.895 --    58 o    0.864
    60   1 h    0.884 --    58 o    0.812
    61   8 o    1.856 --    62 h    0.829    63 h    0.808
    62   1 h    0.885 --    61 o    0.829
    63   1 h    0.876 --    61 o    0.808
    64   8 o    1.870 --    65 h    0.817    66 h    0.817
    65   1 h    0.874 --    64 o    0.817
    66   1 h    0.881 --    64 o    0.817
    67   8 o    1.818 --    68 h    0.863    69 h    0.788
    68   1 h    0.893 --    67 o    0.863
    69   1 h    0.878 --    67 o    0.788
    70   8 o    1.832 --    71 h    0.842    72 h    0.810
    71   1 h    0.886 --    70 o    0.842
    72   1 h    0.882 --    70 o    0.810
    73   8 o    1.835 --    74 h    0.859    75 h    0.829
    74   1 h    0.884 --    73 o    0.859
    75   1 h    0.875 --    73 o    0.829
    76   8 o    1.860 --    78 h    0.830    77 h    0.786
    77   1 h    0.868 --    76 o    0.786
    78   1 h    0.889 --    76 o    0.830
    79   8 o    1.810 --    81 h    0.848    80 h    0.838
    80   1 h    0.883 --    79 o    0.838
    81   1 h    0.892 --    79 o    0.848
    82   8 o    1.849 --    83 h    0.841    84 h    0.836
    83   1 h    0.884 --    82 o    0.841
    84   1 h    0.880 --    82 o    0.836
    85   8 o    1.837 --    86 h    0.820    87 h    0.809
    86   1 h    0.892 --    85 o    0.820
    87   1 h    0.875 --    85 o    0.809
    88   8 o    1.863 --    89 h    0.823    90 h    0.811
    89   1 h    0.884 --    88 o    0.823
    90   1 h    0.877 --    88 o    0.811
    91   8 o    1.825 --    93 h    0.826    92 h    0.799
    92   1 h    0.877 --    91 o    0.799
    93   1 h    0.886 --    91 o    0.826
    94   8 o    1.887 --    95 h    0.828    96 h    0.817
    95   1 h    0.880 --    94 o    0.828
    96   1 h    0.873 --    94 o    0.817
    97   8 o    1.817 --    99 h    0.842    98 h    0.836
    98   1 h    0.880 --    97 o    0.836
    99   1 h    0.897 --    97 o    0.842
   100   8 o    1.850 --   102 h    0.834   101 h    0.833
   101   1 h    0.882 --   100 o    0.833
   102   1 h    0.876 --   100 o    0.834
   103   8 o    1.830 --   105 h    0.861   104 h    0.791
   104   1 h    0.873 --   103 o    0.791
   105   1 h    0.894 --   103 o    0.861
   106   8 o    1.872 --   108 h    0.848   107 h    0.824
   107   1 h    0.883 --   106 o    0.824
   108   1 h    0.888 --   106 o    0.848
   109   8 o    1.845 --   111 h    0.829   110 h    0.814
   110   1 h    0.877 --   109 o    0.814
   111   1 h    0.891 --   109 o    0.829
   112   8 o    1.877 --   113 h    0.841   114 h    0.818
   113   1 h    0.891 --   112 o    0.841
   114   1 h    0.879 --   112 o    0.818
   115   8 o    1.812 --   117 h    0.870   116 h    0.780
   116   1 h    0.877 --   115 o    0.780
   117   1 h    0.900 --   115 o    0.870
   118   8 o    1.897 --   119 h    0.819   120 h    0.814
   119   1 h    0.885 --   118 o    0.819
   120   1 h    0.887 --   118 o    0.814
   121   8 o    1.868 --   122 h    0.835   123 h    0.832
   122   1 h    0.888 --   121 o    0.835
   123   1 h    0.887 --   121 o    0.832
   124   8 o    1.840 --   126 h    0.812   125 h    0.805
   125   1 h    0.880 --   124 o    0.805
   126   1 h    0.884 --   124 o    0.812
   127   8 o    1.826 --   128 h    0.881   129 h    0.843
   128   1 h    0.892 --   127 o    0.881
   129   1 h    0.881 --   127 o    0.843
   130   8 o    1.897 --   132 h    0.849   131 h    0.815
   131   1 h    0.868 --   130 o    0.815
   132   1 h    0.893 --   130 o    0.849
   133   8 o    1.836 --   135 h    0.831   134 h    0.828
   134   1 h    0.883 --   133 o    0.828
   135   1 h    0.897 --   133 o    0.831
   136   8 o    1.835 --   138 h    0.841   137 h    0.835
   137   1 h    0.883 --   136 o    0.835
   138   1 h    0.886 --   136 o    0.841
   139   8 o    1.855 --   141 h    0.834   140 h    0.803
   140   1 h    0.875 --   139 o    0.803
   141   1 h    0.894 --   139 o    0.834
   142   8 o    1.860 --   144 h    0.874   143 h    0.836
   143   1 h    0.889 --   142 o    0.836
   144   1 h    0.896 --   142 o    0.874
   145   8 o    1.831 --   147 h    0.863   146 h    0.836
   146   1 h    0.885 --   145 o    0.836
   147   1 h    0.895 --   145 o    0.863
   148   8 o    1.844 --   149 h    0.809   150 h    0.782
   149   1 h    0.879 --   148 o    0.809
   150   1 h    0.872 --   148 o    0.782
   151   8 o    1.832 --   153 h    0.832   152 h    0.826
   152   1 h    0.881 --   151 o    0.826
   153   1 h    0.880 --   151 o    0.832
   154   8 o    1.860 --   155 h    0.868   156 h    0.789
   155   1 h    0.895 --   154 o    0.868
   156   1 h    0.869 --   154 o    0.789
   157   8 o    1.794 --   159 h    0.795   158 h    0.772
   158   1 h    0.874 --   157 o    0.772
   159   1 h    0.878 --   157 o    0.795
   160   8 o    1.828 --   161 h    0.838   162 h    0.832
   161   1 h    0.890 --   160 o    0.838
   162   1 h    0.881 --   160 o    0.832
   163   8 o    1.833 --   164 h    0.843   165 h    0.818
   164   1 h    0.894 --   163 o    0.843
   165   1 h    0.875 --   163 o    0.818
   166   8 o    1.854 --   167 h    0.843   168 h    0.772
   167   1 h    0.890 --   166 o    0.843
   168   1 h    0.873 --   166 o    0.772
   169   8 o    1.856 --   170 h    0.848   171 h    0.830
   170   1 h    0.893 --   169 o    0.848
   171   1 h    0.889 --   169 o    0.830
   172   8 o    1.855 --   174 h    0.825   173 h    0.808
   173   1 h    0.876 --   172 o    0.808
   174   1 h    0.890 --   172 o    0.825
   175   8 o    1.855 --   177 h    0.840   176 h    0.820
   176   1 h    0.876 --   175 o    0.820
   177   1 h    0.883 --   175 o    0.840
   178   8 o    1.846 --   180 h    0.867   179 h    0.818
   179   1 h    0.877 --   178 o    0.818
   180   1 h    0.895 --   178 o    0.867
   181   8 o    1.852 --   183 h    0.833   182 h    0.786
   182   1 h    0.864 --   181 o    0.786
   183   1 h    0.885 --   181 o    0.833
   184   8 o    1.872 --   186 h    0.836   185 h    0.816
   185   1 h    0.888 --   184 o    0.816
   186   1 h    0.884 --   184 o    0.836
   187   8 o    1.788 --   189 h    0.857   188 h    0.830
   188   1 h    0.884 --   187 o    0.830
   189   1 h    0.893 --   187 o    0.857
   190   8 o    1.856 --   191 h    0.841   192 h    0.828
   191   1 h    0.889 --   190 o    0.841
   192   1 h    0.885 --   190 o    0.828
   193   8 o    1.840 --   194 h    0.844   195 h    0.838
   194   1 h    0.891 --   193 o    0.844
   195   1 h    0.885 --   193 o    0.838
   196   8 o    1.849 --   197 h    0.839   198 h    0.782
   197   1 h    0.897 --   196 o    0.839
   198   1 h    0.869 --   196 o    0.782
   199   8 o    1.874 --   201 h    0.822   200 h    0.820
   200   1 h    0.877 --   199 o    0.820
   201   1 h    0.891 --   199 o    0.822
   202   8 o    1.851 --   203 h    0.832   204 h    0.821
   203   1 h    0.893 --   202 o    0.832
   204   1 h    0.886 --   202 o    0.821
   205   8 o    1.855 --   206 h    0.820   207 h    0.813
   206   1 h    0.874 --   205 o    0.820
   207   1 h    0.887 --   205 o    0.813
   208   8 o    1.802 --   210 h    0.846   209 h    0.822
   209   1 h    0.880 --   208 o    0.822
   210   1 h    0.891 --   208 o    0.846
   211   8 o    1.805 --   213 h    0.846   212 h    0.841
   212   1 h    0.892 --   211 o    0.841
   213   1 h    0.888 --   211 o    0.846
   214   8 o    1.867 --   215 h    0.831   216 h    0.799
   215   1 h    0.886 --   214 o    0.831
   216   1 h    0.872 --   214 o    0.799
   217   8 o    1.805 --   219 h    0.861   218 h    0.853
   218   1 h    0.897 --   217 o    0.853
   219   1 h    0.890 --   217 o    0.861
   220   8 o    1.810 --   222 h    0.856   221 h    0.820
   221   1 h    0.881 --   220 o    0.820
   222   1 h    0.891 --   220 o    0.856
   223   8 o    1.868 --   224 h    0.863   225 h    0.856
   224   1 h    0.887 --   223 o    0.863
   225   1 h    0.887 --   223 o    0.856
   226   8 o    1.852 --   228 h    0.842   227 h    0.807
   227   1 h    0.881 --   226 o    0.807
   228   1 h    0.893 --   226 o    0.842
   229   8 o    1.879 --   230 h    0.830   231 h    0.826
   230   1 h    0.882 --   229 o    0.830
   231   1 h    0.888 --   229 o    0.826
   232   8 o    1.866 --   234 h    0.826   233 h    0.804
   233   1 h    0.876 --   232 o    0.804
   234   1 h    0.882 --   232 o    0.826
   235   8 o    1.873 --   237 h    0.826   236 h    0.802
   236   1 h    0.875 --   235 o    0.802
   237   1 h    0.891 --   235 o    0.826
   238   8 o    1.827 --   239 h    0.869   240 h    0.789
   239   1 h    0.894 --   238 o    0.869
   240   1 h    0.876 --   238 o    0.789
   241   8 o    1.823 --   242 h    0.890   243 h    0.816
   242   1 h    0.901 --   241 o    0.890
   243   1 h    0.877 --   241 o    0.816
   244   8 o    1.828 --   246 h    0.851   245 h    0.831
   245   1 h    0.884 --   244 o    0.831
   246   1 h    0.888 --   244 o    0.851
   247   8 o    1.852 --   249 h    0.842   248 h    0.819
   248   1 h    0.873 --   247 o    0.819
   249   1 h    0.883 --   247 o    0.842
   250   8 o    1.836 --   251 h    0.882   252 h    0.802
   251   1 h    0.900 --   250 o    0.882
   252   1 h    0.867 --   250 o    0.802
   253   8 o    1.838 --   255 h    0.826   254 h    0.813
   254   1 h    0.874 --   253 o    0.813
   255   1 h    0.894 --   253 o    0.826
   256   8 o    1.828 --   258 h    0.821   257 h    0.803
   257   1 h    0.886 --   256 o    0.803
   258   1 h    0.883 --   256 o    0.821
   259   8 o    1.838 --   260 h    0.869   261 h    0.777
   260   1 h    0.898 --   259 o    0.869
   261   1 h    0.865 --   259 o    0.777
   262   8 o    1.863 --   264 h    0.811   263 h    0.799
   263   1 h    0.875 --   262 o    0.799
   264   1 h    0.874 --   262 o    0.811
   265   8 o    1.857 --   267 h    0.823   266 h    0.807
   266   1 h    0.872 --   265 o    0.807
   267   1 h    0.892 --   265 o    0.823
   268   8 o    1.841 --   269 h    0.846   270 h    0.822
   269   1 h    0.892 --   268 o    0.846
   270   1 h    0.886 --   268 o    0.822
   271   8 o    1.838 --   273 h    0.826   272 h    0.822
   272   1 h    0.876 --   271 o    0.822
   273   1 h    0.886 --   271 o    0.826
   274   8 o    1.841 --   275 h    0.886   276 h    0.769
   275   1 h    0.899 --   274 o    0.886
   276   1 h    0.863 --   274 o    0.769
   277   8 o    1.883 --   279 h    0.835   278 h    0.793
   278   1 h    0.867 --   277 o    0.793
   279   1 h    0.892 --   277 o    0.835
   280   8 o    1.855 --   282 h    0.837   281 h    0.830
   281   1 h    0.885 --   280 o    0.830
   282   1 h    0.885 --   280 o    0.837
   283   8 o    1.829 --   284 h    0.896   285 h    0.798
   284   1 h    0.903 --   283 o    0.896
   285   1 h    0.872 --   283 o    0.798
   286   8 o    1.841 --   288 h    0.897   287 h    0.795
   287   1 h    0.875 --   286 o    0.795
   288   1 h    0.904 --   286 o    0.897
   289   8 o    1.837 --   290 h    0.868   291 h    0.754
   290   1 h    0.899 --   289 o    0.868
   291   1 h    0.866 --   289 o    0.754   313 o    0.106
   292   8 o    1.833 --   294 h    0.866   293 h    0.820
   293   1 h    0.871 --   292 o    0.820
   294   1 h    0.895 --   292 o    0.866
   295   8 o    1.816 --   296 h    0.874   297 h    0.776
   296   1 h    0.901 --   295 o    0.874
   297   1 h    0.869 --   295 o    0.776
   298   8 o    1.866 --   300 h    0.816   299 h    0.808
   299   1 h    0.877 --   298 o    0.808
   300   1 h    0.874 --   298 o    0.816
   301   8 o    1.885 --   302 h    0.827   303 h    0.772
   302   1 h    0.885 --   301 o    0.827
   303   1 h    0.863 --   301 o    0.772
   304   8 o    1.838 --   305 h    0.848   306 h    0.815
   305   1 h    0.886 --   304 o    0.848
   306   1 h    0.883 --   304 o    0.815
   307   8 o    1.888 --   309 h    0.803   308 h    0.779
   308   1 h    0.868 --   307 o    0.779
   309   1 h    0.877 --   307 o    0.803
   310   8 o    1.821 --   311 h    0.854   312 h    0.804
   311   1 h    0.899 --   310 o    0.854
   312   1 h    0.877 --   310 o    0.804
   313   8 o    1.877 --   315 h    0.809   314 h    0.780   291 h    0.106
   314   1 h    0.869 --   313 o    0.780
   315   1 h    0.879 --   313 o    0.809
   316   8 o    1.866 --   318 h    0.830   317 h    0.822
   317   1 h    0.885 --   316 o    0.822
   318   1 h    0.892 --   316 o    0.830
   319   8 o    1.814 --   320 h    0.853   321 h    0.837
   320   1 h    0.893 --   319 o    0.853
   321   1 h    0.885 --   319 o    0.837
   322   8 o    1.871 --   324 h    0.844   323 h    0.839
   323   1 h    0.882 --   322 o    0.839
   324   1 h    0.889 --   322 o    0.844
   325   8 o    1.816 --   326 h    0.851   327 h    0.836
   326   1 h    0.894 --   325 o    0.851
   327   1 h    0.891 --   325 o    0.836
   328   8 o    1.830 --   329 h    0.860   330 h    0.811
   329   1 h    0.896 --   328 o    0.860
   330   1 h    0.871 --   328 o    0.811
   331   8 o    1.828 --   332 h    0.884   333 h    0.779
   332   1 h    0.902 --   331 o    0.884
   333   1 h    0.875 --   331 o    0.779
   334   8 o    1.846 --   335 h    0.828   336 h    0.799
   335   1 h    0.885 --   334 o    0.828
   336   1 h    0.867 --   334 o    0.799
   337   8 o    1.868 --   339 h    0.814   338 h    0.805
   338   1 h    0.880 --   337 o    0.805
   339   1 h    0.874 --   337 o    0.814
   340   8 o    1.801 --   341 h    0.838   342 h    0.835
   341   1 h    0.893 --   340 o    0.838
   342   1 h    0.884 --   340 o    0.835
   343   8 o    1.853 --   345 h    0.843   344 h    0.835
   344   1 h    0.883 --   343 o    0.835
   345   1 h    0.889 --   343 o    0.843
   346   8 o    1.849 --   348 h    0.839   347 h    0.811
   347   1 h    0.877 --   346 o    0.811
   348   1 h    0.893 --   346 o    0.839
   349   8 o    1.854 --   350 h    0.831   351 h    0.802
   350   1 h    0.893 --   349 o    0.831
   351   1 h    0.873 --   349 o    0.802
   352   8 o    1.839 --   353 h    0.848   354 h    0.827
   353   1 h    0.891 --   352 o    0.848
   354   1 h    0.886 --   352 o    0.827
   355   8 o    1.814 --   356 h    0.860   357 h    0.846
   356   1 h    0.896 --   355 o    0.860
   357   1 h    0.891 --   355 o    0.846
   358   8 o    1.803 --   359 h    0.896   360 h    0.811
   359   1 h    0.906 --   358 o    0.896
   360   1 h    0.874 --   358 o    0.811
   361   8 o    1.843 --   363 h    0.872   362 h    0.854
   362   1 h    0.888 --   361 o    0.854
   363   1 h    0.892 --   361 o    0.872
[...]
   369   1 h    0.881 --   367 o    0.827
   370   8 o    1.822 --   372 h    0.846   371 h    0.825
   371   1 h    0.890 --   370 o    0.825
   372   1 h    0.886 --   370 o    0.846
   373   8 o    1.852 --   374 h    0.861   375 h    0.823
   374   1 h    0.891 --   373 o    0.861
   375   1 h    0.868 --   373 o    0.823
   376   8 o    1.850 --   378 h    0.835   377 h    0.795
   377   1 h    0.869 --   376 o    0.795
   378   1 h    0.889 --   376 o    0.835
   379   8 o    1.859 --   381 h    0.848   380 h    0.834
   380   1 h    0.892 --   379 o    0.834
   381   1 h    0.892 --   379 o    0.848
   382   8 o    1.861 --   383 h    0.811   384 h    0.787
   383   1 h    0.877 --   382 o    0.811
   384   1 h    0.874 --   382 o    0.787
   385   8 o    1.794 --   386 h    0.870   387 h    0.835
   386   1 h    0.905 --   385 o    0.870
   387   1 h    0.879 --   385 o    0.835
   388   8 o    1.875 --   390 h    0.855   389 h    0.828
   389   1 h    0.878 --   388 o    0.828
   390   1 h    0.891 --   388 o    0.855
   391   8 o    1.802 --   392 h    0.854   393 h    0.841
   392   1 h    0.891 --   391 o    0.854
   393   1 h    0.887 --   391 o    0.841
   394   8 o    1.805 --   395 h    0.842   396 h    0.833
   395   1 h    0.894 --   394 o    0.842
   396   1 h    0.886 --   394 o    0.833
   397   8 o    1.830 --   399 h    0.859   398 h    0.762
   398   1 h    0.865 --   397 o    0.762
   399   1 h    0.896 --   397 o    0.859
   400   8 o    1.849 --   402 h    0.873   401 h    0.850
   401   1 h    0.888 --   400 o    0.850
   402   1 h    0.891 --   400 o    0.873
   403   8 o    1.837 --   404 h    0.836   405 h    0.834
   404   1 h    0.882 --   403 o    0.836
   405   1 h    0.890 --   403 o    0.834
   406   8 o    1.856 --   407 h    0.820   408 h    0.806
   407   1 h    0.887 --   406 o    0.820
   408   1 h    0.877 --   406 o    0.806
   409   8 o    1.848 --   411 h    0.846   410 h    0.832
   410   1 h    0.891 --   409 o    0.832
   411   1 h    0.885 --   409 o    0.846
   412   8 o    1.893 --   413 h    0.816   414 h    0.815
   413   1 h    0.877 --   412 o    0.816
   414   1 h    0.871 --   412 o    0.815
   415   8 o    1.810 --   416 h    0.837   417 h    0.825
   416   1 h    0.882 --   415 o    0.837
   417   1 h    0.884 --   415 o    0.825
   418   8 o    1.836 --   419 h    0.880   420 h    0.789
   419   1 h    0.899 --   418 o    0.880
   420   1 h    0.869 --   418 o    0.789
   421   8 o    1.828 --   423 h    0.855   422 h    0.840
   422   1 h    0.888 --   421 o    0.840
   423   1 h    0.889 --   421 o    0.855
   424   8 o    1.873 --   425 h    0.884   426 h    0.796
   425   1 h    0.905 --   424 o    0.884
   426   1 h    0.876 --   424 o    0.796
   427   8 o    1.813 --   429 h    0.861   428 h    0.845
   428   1 h    0.888 --   427 o    0.845
   429   1 h    0.891 --   427 o    0.861
   430   8 o    1.837 --   431 h    0.860   432 h    0.794
   431   1 h    0.894 --   430 o    0.860
   432   1 h    0.869 --   430 o    0.794
   433   8 o    1.803 --   434 h    0.884   435 h    0.836
   434   1 h    0.900 --   433 o    0.884
   435   1 h    0.881 --   433 o    0.836
   436   8 o    1.844 --   438 h    0.832   437 h    0.813
   437   1 h    0.893 --   436 o    0.813
   438   1 h    0.872 --   436 o    0.832
   439   8 o    1.866 --   441 h    0.879   440 h    0.816
   440   1 h    0.875 --   439 o    0.816
   441   1 h    0.894 --   439 o    0.879
   442   8 o    1.867 --   443 h    0.806   444 h    0.792
   443   1 h    0.874 --   442 o    0.806
   444   1 h    0.873 --   442 o    0.792
   445   8 o    1.868 --   447 h    0.852   446 h    0.814
   446   1 h    0.891 --   445 o    0.814
   447   1 h    0.889 --   445 o    0.852
   448   8 o    1.837 --   450 h    0.870   449 h    0.867
   449   1 h    0.889 --   448 o    0.867
   450   1 h    0.887 --   448 o    0.870
   451   8 o    1.832 --   452 h    0.826   453 h    0.796
   452   1 h    0.893 --   451 o    0.826
   453   1 h    0.876 --   451 o    0.796
   454   8 o    1.846 --   456 h    0.840   455 h    0.801
   455   1 h    0.876 --   454 o    0.801
   456   1 h    0.883 --   454 o    0.840
   457   8 o    1.868 --   459 h    0.874   458 h    0.799
   458   1 h    0.861 --   457 o    0.799
   459   1 h    0.897 --   457 o    0.874
   460   8 o    1.829 --   461 h    0.859   462 h    0.799
   461   1 h    0.893 --   460 o    0.859
   462   1 h    0.871 --   460 o    0.799
   463   8 o    1.863 --   464 h    0.833   465 h    0.828
   464   1 h    0.893 --   463 o    0.833
   465   1 h    0.879 --   463 o    0.828
   466   8 o    1.839 --   468 h    0.865   467 h    0.803
   467   1 h    0.885 --   466 o    0.803
   468   1 h    0.895 --   466 o    0.865
   469   8 o    1.814 --   471 h    0.837   470 h    0.816
   470   1 h    0.886 --   469 o    0.816
   471   1 h    0.888 --   469 o    0.837
   472   8 o    1.862 --   473 h    0.846   474 h    0.824
   473   1 h    0.889 --   472 o    0.846
   474   1 h    0.885 --   472 o    0.824
   475   8 o    1.864 --   476 h    0.859   477 h    0.780
   476   1 h    0.898 --   475 o    0.859
   477   1 h    0.868 --   475 o    0.780
   478   8 o    1.853 --   480 h    0.859   479 h    0.813
   479   1 h    0.870 --   478 o    0.813
   480   1 h    0.898 --   478 o    0.859
   481   8 o    1.828 --   483 h    0.838   482 h    0.835
   482   1 h    0.886 --   481 o    0.835
   483   1 h    0.892 --   481 o    0.838
   484   8 o    1.834 --   485 h    0.896   486 h    0.783
   485   1 h    0.902 --   484 o    0.896
   486   1 h    0.875 --   484 o    0.783
   487   8 o    1.814 --   488 h    0.862   489 h    0.833
   488   1 h    0.891 --   487 o    0.862
   489   1 h    0.885 --   487 o    0.833
   490   8 o    1.833 --   492 h    0.848   491 h    0.836
   491   1 h    0.881 --   490 o    0.836
   492   1 h    0.889 --   490 o    0.848
   493   8 o    1.827 --   495 h    0.861   494 h    0.853
   494   1 h    0.885 --   493 o    0.853
   495   1 h    0.888 --   493 o    0.861
   496   8 o    1.805 --   497 h    0.856   498 h    0.822
   497   1 h    0.897 --   496 o    0.856
   498   1 h    0.877 --   496 o    0.822
   499   8 o    1.867 --   500 h    0.859   501 h    0.803
   500   1 h    0.900 --   499 o    0.859
   501   1 h    0.871 --   499 o    0.803
   502   8 o    1.825 --   503 h    0.850   504 h    0.802
   503   1 h    0.893 --   502 o    0.850
   504   1 h    0.876 --   502 o    0.802
   505   8 o    1.842 --   506 h    0.884   507 h    0.831
   506   1 h    0.893 --   505 o    0.884
   507   1 h    0.877 --   505 o    0.831
   508   8 o    1.847 --   509 h    0.823   510 h    0.794
   509   1 h    0.874 --   508 o    0.823
   510   1 h    0.872 --   508 o    0.794
   511   8 o    1.831 --   512 h    0.894   513 h    0.809
   512   1 h    0.902 --   511 o    0.894
   513   1 h    0.871 --   511 o    0.809
   514   8 o    1.837 --   515 h    0.873   516 h    0.819
   515   1 h    0.895 --   514 o    0.873
   516   1 h    0.886 --   514 o    0.819
   517   8 o    1.826 --   519 h    0.861   518 h    0.828
   518   1 h    0.887 --   517 o    0.828
   519   1 h    0.889 --   517 o    0.861
   520   8 o    1.840 --   522 h    0.880   521 h    0.772
   521   1 h    0.867 --   520 o    0.772
   522   1 h    0.900 --   520 o    0.880
   523   8 o    1.829 --   524 h    0.871   525 h    0.833
   524   1 h    0.891 --   523 o    0.871
   525   1 h    0.884 --   523 o    0.833
   526   8 o    1.839 --   528 h    0.862   527 h    0.798
   527   1 h    0.882 --   526 o    0.798
   528   1 h    0.894 --   526 o    0.862
   529   8 o    1.815 --   530 h    0.848   531 h    0.837
   530   1 h    0.882 --   529 o    0.848
   531   1 h    0.890 --   529 o    0.837
   532   8 o    1.867 --   534 h    0.864   533 h    0.824
   533   1 h    0.873 --   532 o    0.824
   534   1 h    0.889 --   532 o    0.864
   535   8 o    1.832 --   536 h    0.865   537 h    0.818
   536   1 h    0.894 --   535 o    0.865
   537   1 h    0.885 --   535 o    0.818
   538   8 o    1.803 --   539 h    0.843   540 h    0.809
   539   1 h    0.896 --   538 o    0.843
   540   1 h    0.878 --   538 o    0.809
   541   8 o    1.831 --   543 h    0.870   542 h    0.836
   542   1 h    0.878 --   541 o    0.836
   543   1 h    0.894 --   541 o    0.870
   544   8 o    1.824 --   546 h    0.891   545 h    0.819
   545   1 h    0.875 --   544 o    0.819
   546   1 h    0.899 --   544 o    0.891
   547   8 o    1.858 --   549 h    0.862   548 h    0.793
   548   1 h    0.864 --   547 o    0.793
   549   1 h    0.892 --   547 o    0.862
   550   8 o    1.814 --   552 h    0.862   551 h    0.838
   551   1 h    0.887 --   550 o    0.838
   552   1 h    0.889 --   550 o    0.862
   553   8 o    1.851 --   554 h    0.861   555 h    0.807
   554   1 h    0.891 --   553 o    0.861
   555   1 h    0.875 --   553 o    0.807
   556   8 o    1.835 --   557 h    0.843   558 h    0.793
   557   1 h    0.896 --   556 o    0.843
   558   1 h    0.877 --   556 o    0.793
   559   8 o    1.807 --   561 h    0.890   560 h    0.819
   560   1 h    0.882 --   559 o    0.819
   561   1 h    0.897 --   559 o    0.890
   562   8 o    1.846 --   563 h    0.829   564 h    0.828
   563   1 h    0.891 --   562 o    0.829
   564   1 h    0.882 --   562 o    0.828
   565   8 o    1.857 --   566 h    0.828   567 h    0.796
   566   1 h    0.891 --   565 o    0.828
   567   1 h    0.874 --   565 o    0.796
   568   8 o    1.806 --   569 h    0.889   570 h    0.810
   569   1 h    0.902 --   568 o    0.889
   570   1 h    0.874 --   568 o    0.810
   571   8 o    1.828 --   572 h    0.852   573 h    0.815
   572   1 h    0.886 --   571 o    0.852
   573   1 h    0.876 --   571 o    0.815
   574   8 o    1.831 --   576 h    0.866   575 h    0.818
   575   1 h    0.869 --   574 o    0.818
   576   1 h    0.895 --   574 o    0.866
   577   8 o    1.853 --   579 h    0.857   578 h    0.809
   578   1 h    0.881 --   577 o    0.809
   579   1 h    0.897 --   577 o    0.857
   580   8 o    1.844 --   581 h    0.844   582 h    0.843
   581   1 h    0.886 --   580 o    0.844
   582   1 h    0.883 --   580 o    0.843
   583   8 o    1.827 --   584 h    0.896   585 h    0.776
   584   1 h    0.905 --   583 o    0.896
   585   1 h    0.862 --   583 o    0.776
   586   8 o    1.841 --   588 h    0.845   587 h    0.813
   587   1 h    0.879 --   586 o    0.813
   588   1 h    0.890 --   586 o    0.845
   589   8 o    1.846 --   590 h    0.829   591 h    0.787
   590   1 h    0.886 --   589 o    0.829
   591   1 h    0.866 --   589 o    0.787
   592   8 o    1.833 --   593 h    0.845   594 h    0.833
   593   1 h    0.890 --   592 o    0.845
   594   1 h    0.871 --   592 o    0.833
   595   8 o    1.868 --   597 h    0.863   596 h    0.803
   596   1 h    0.883 --   595 o    0.803
   597   1 h    0.892 --   595 o    0.863
   598   8 o    1.885 --   600 h    0.872   599 h    0.775
   599   1 h    0.867 --   598 o    0.775
   600   1 h    0.894 --   598 o    0.872
   601   8 o    1.885 --   603 h    0.823   602 h    0.815
   602   1 h    0.877 --   601 o    0.815
   603   1 h    0.886 --   601 o    0.823
   604   8 o    1.838 --   606 h    0.851   605 h    0.810
   605   1 h    0.879 --   604 o    0.810
   606   1 h    0.895 --   604 o    0.851
   607   8 o    1.813 --   608 h    0.869   609 h    0.823
   608   1 h    0.897 --   607 o    0.869
   609   1 h    0.884 --   607 o    0.823
   610   8 o    1.818 --   612 h    0.853   611 h    0.804
   611   1 h    0.878 --   610 o    0.804
   612   1 h    0.889 --   610 o    0.853
   613   8 o    1.843 --   615 h    0.864   614 h    0.833
   614   1 h    0.888 --   613 o    0.833
   615   1 h    0.891 --   613 o    0.864
   616   8 o    1.870 --   618 h    0.827   617 h    0.809
   617   1 h    0.871 --   616 o    0.809
   618   1 h    0.890 --   616 o    0.827
   619   8 o    1.857 --   621 h    0.855   620 h    0.819
   620   1 h    0.883 --   619 o    0.819
   621   1 h    0.891 --   619 o    0.855
   622   8 o    1.878 --   624 h    0.868   623 h    0.782
   623   1 h    0.881 --   622 o    0.782
   624   1 h    0.895 --   622 o    0.868
   625   8 o    1.833 --   626 h    0.874   627 h    0.833
   626   1 h    0.899 --   625 o    0.874
   627   1 h    0.888 --   625 o    0.833
   628   8 o    1.812 --   629 h    0.851   630 h    0.832
   629   1 h    0.885 --   628 o    0.851
   630   1 h    0.887 --   628 o    0.832
   631   8 o    1.812 --   632 h    0.853   633 h    0.806
   632   1 h    0.897 --   631 o    0.853
   633   1 h    0.880 --   631 o    0.806
   634   8 o    1.814 --   636 h    0.877   635 h    0.844
   635   1 h    0.889 --   634 o    0.844
   636   1 h    0.892 --   634 o    0.877
   637   8 o    1.821 --   639 h    0.858   638 h    0.854
   638   1 h    0.890 --   637 o    0.854
   639   1 h    0.886 --   637 o    0.858
   640   8 o    1.862 --   641 h    0.836   642 h    0.817
   641   1 h    0.881 --   640 o    0.836
   642   1 h    0.874 --   640 o    0.817
   643   8 o    1.843 --   644 h    0.897   645 h    0.826
   644   1 h    0.904 --   643 o    0.897
   645   1 h    0.871 --   643 o    0.826
   646   8 o    1.838 --   648 h    0.889   647 h    0.809
   647   1 h    0.866 --   646 o    0.809
   648   1 h    0.903 --   646 o    0.889
   649   8 o    1.826 --   651 h    0.847   650 h    0.800
   650   1 h    0.877 --   649 o    0.800
   651   1 h    0.895 --   649 o    0.847
   652   8 o    1.846 --   654 h    0.846   653 h    0.794
   653   1 h    0.868 --   652 o    0.794
   654   1 h    0.897 --   652 o    0.846
   655   8 o    1.853 --   657 h    0.838   656 h    0.819
   656   1 h    0.880 --   655 o    0.819
   657   1 h    0.890 --   655 o    0.838
   658   8 o    1.844 --   660 h    0.896   659 h    0.815
   659   1 h    0.880 --   658 o    0.815
   660   1 h    0.899 --   658 o    0.896
   661   8 o    1.851 --   662 h    0.819   663 h    0.810
   662   1 h    0.879 --   661 o    0.819
   663   1 h    0.876 --   661 o    0.810
   664   8 o    1.836 --   665 h    0.863   666 h    0.813
   665   1 h    0.892 --   664 o    0.863
   666   1 h    0.871 --   664 o    0.813
   667   8 o    1.853 --   668 h    0.839   669 h    0.834
   668   1 h    0.884 --   667 o    0.839
   669   1 h    0.887 --   667 o    0.834
   670   8 o    1.881 --   672 h    0.825   671 h    0.813
   671   1 h    0.875 --   670 o    0.813
   672   1 h    0.893 --   670 o    0.825
   673   8 o    1.880 --   675 h    0.811   674 h    0.769
   674   1 h    0.874 --   673 o    0.769
   675   1 h    0.891 --   673 o    0.811
   676   8 o    1.826 --   677 h    0.881   678 h    0.789
   677   1 h    0.899 --   676 o    0.881
   678   1 h    0.868 --   676 o    0.789
   679   8 o    1.819 --   681 h    0.837   680 h    0.824
   680   1 h    0.877 --   679 o    0.824
   681   1 h    0.891 --   679 o    0.837
   682   8 o    1.907 --   684 h    0.835   683 h    0.832
   683   1 h    0.887 --   682 o    0.832
   684   1 h    0.872 --   682 o    0.835
   685   8 o    1.857 --   687 h    0.894   686 h    0.794
   686   1 h    0.878 --   685 o    0.794
   687   1 h    0.902 --   685 o    0.894
   688   8 o    1.875 --   690 h    0.863   689 h    0.811
   689   1 h    0.880 --   688 o    0.811
   690   1 h    0.897 --   688 o    0.863
   691   8 o    1.813 --   693 h    0.897   692 h    0.778
   692   1 h    0.877 --   691 o    0.778
   693   1 h    0.906 --   691 o    0.897
   694   8 o    1.815 --   695 h    0.879   696 h    0.788
   695   1 h    0.902 --   694 o    0.879
   696   1 h    0.869 --   694 o    0.788
   697   8 o    1.826 --   698 h    0.900   699 h    0.770
   698   1 h    0.906 --   697 o    0.900
   699   1 h    0.869 --   697 o    0.770
   700   8 o    1.827 --   702 h    0.877   701 h    0.792
   701   1 h    0.867 --   700 o    0.792
   702   1 h    0.899 --   700 o    0.877
   703   8 o    1.837 --   704 h    0.814   705 h    0.796
   704   1 h    0.885 --   703 o    0.814
   705   1 h    0.875 --   703 o    0.796
   706   8 o    1.897 --   708 h    0.820   707 h    0.814
   707   1 h    0.876 --   706 o    0.814
   708   1 h    0.876 --   706 o    0.820
   709   8 o    1.840 --   711 h    0.834   710 h    0.826
   710   1 h    0.889 --   709 o    0.826
   711   1 h    0.886 --   709 o    0.834
   712   8 o    1.866 --   714 h    0.846   713 h    0.807
   713   1 h    0.865 --   712 o    0.807
   714   1 h    0.886 --   712 o    0.846
   715   8 o    1.831 --   717 h    0.874   716 h    0.806
   716   1 h    0.867 --   715 o    0.806
   717   1 h    0.896 --   715 o    0.874
   718   8 o    1.855 --   719 h    0.857   720 h    0.760
   719   1 h    0.898 --   718 o    0.857
   720   1 h    0.864 --   718 o    0.760
   721   8 o    1.865 --   722 h    0.814   723 h    0.813
   722   1 h    0.870 --   721 o    0.814
   723   1 h    0.877 --   721 o    0.813
   724   8 o    1.850 --   726 h    0.837   725 h    0.815
   725   1 h    0.875 --   724 o    0.815
   726   1 h    0.890 --   724 o    0.837
   727   8 o    1.831 --   728 h    0.897   729 h    0.777
   728   1 h    0.904 --   727 o    0.897
   729   1 h    0.875 --   727 o    0.777
   730   8 o    1.843 --   732 h    0.833   731 h    0.819
   731   1 h    0.887 --   730 o    0.819
   732   1 h    0.890 --   730 o    0.833
   733   8 o    1.835 --   734 h    0.898   735 h    0.823
   734   1 h    0.901 --   733 o    0.898
   735   1 h    0.876 --   733 o    0.823
   736   8 o    1.834 --   738 h    0.876   737 h    0.827
   737   1 h    0.878 --   736 o    0.827
   738   1 h    0.893 --   736 o    0.876
   739   8 o    1.850 --   740 h    0.841   741 h    0.832
   740   1 h    0.885 --   739 o    0.841
   741   1 h    0.886 --   739 o    0.832
   742   8 o    1.847 --   743 h    0.873   744 h    0.802
   743   1 h    0.897 --   742 o    0.873
   744   1 h    0.876 --   742 o    0.802
   745   8 o    1.854 --   746 h    0.827   747 h    0.821
   746   1 h    0.872 --   745 o    0.827
   747   1 h    0.875 --   745 o    0.821
   748   8 o    1.866 --   749 h    0.821   750 h    0.779
   749   1 h    0.892 --   748 o    0.821
   750   1 h    0.870 --   748 o    0.779
   751   8 o    1.852 --   752 h    0.888   753 h    0.786
   752   1 h    0.898 --   751 o    0.888
   753   1 h    0.872 --   751 o    0.786
   754   8 o    1.845 --   755 h    0.870   756 h    0.835
   755   1 h    0.895 --   754 o    0.870
   756   1 h    0.883 --   754 o    0.835
 ---------------------------------------------------------------------------

Topologies differ in total number of bonds
Writing topology from bond orders to xtbtopo.mol

molecular dipole:
                 x           y           z       tot (Debye)
 q only:        5.427      -0.895      -1.396
   full:        7.692      -0.857      -1.070      19.859
molecular quadrupole (traceless):
                xx          xy          yy          xz          yz          zz
 q only:       98.541     -58.903     -58.643      40.768      11.180     -39.898
  q+dip:      138.695     -51.620     -93.846      53.051       5.784     -44.849
   full:      141.316     -49.517     -95.042      53.040       5.653     -46.273


           -------------------------------------------------
          | TOTAL ENERGY            -1283.543938680652 Eh   |
          | GRADIENT NORM               0.120000507249 Eh/α |
          | HOMO-LUMO GAP               6.838078859415 eV   |
           -------------------------------------------------

------------------------------------------------------------------------
 * finished run on 2022/11/24 at 12:21:39.855     
------------------------------------------------------------------------
 total:
 * wall-time:     0 d,  0 h,  0 min, 23.171 sec
 *  cpu-time:     0 d,  0 h,  0 min, 37.860 sec
 * ratio c/w:     1.634 speedup
 SCF:
 * wall-time:     0 d,  0 h,  0 min, 22.175 sec
 *  cpu-time:     0 d,  0 h,  0 min, 36.165 sec
 * ratio c/w:     1.631 speedup

