756
 energy: -1283.291640846038 gnorm: 0.025767942840 xtb: 6.5.1 (579679a)
o            5.65867998570418       -7.92190093632951       -0.93059156026232
h            4.70551295343658       -8.03907339625857       -0.74849098155697
h            5.69850565200919       -7.98717657267325       -1.89916510030089
o           -1.11026828229271        3.19040178110410        4.15557094245828
h           -0.24545412662756        2.93417720067541        4.52547318314006
h           -0.93284341215374        3.41173689326910        3.22868582175180
o           -1.45872392976399       -1.71680349821995       -2.44660487761137
h           -0.85558816162091       -2.37822472805507       -2.83910237629625
h           -2.24883473215970       -2.23608762734215       -2.25471793401374
o           -4.66017429664249        2.11285675547559       -0.74016854062910
h           -4.12426280326278        2.19994843289528        0.07338668649133
h           -4.86500496423923        3.02008363420562       -1.00078895894973
o           -3.13343916848868        2.37033704518727        1.45101908717897
h           -3.05488147497697        3.30236278451643        1.72896498899185
h           -3.13040958177004        1.85091218457782        2.26148772558583
o           -3.84533115254124       -2.46417176638138        4.36941568141862
h           -4.43968020949973       -1.69786422557737        4.34310087456004
h           -4.28605913315180       -3.18292279009801        3.86695071813580
o           -0.21090026093334       -3.81841936673830       -3.48578174909926
h           -0.86532269321801       -4.52611359048070       -3.61918948692245
h            0.42341025411749       -4.18126426137440       -2.82839484828975
o            0.46125293410656       -6.29981317792183        0.12379666731442
h            0.33097969459285       -5.73553658487363        0.91235753695435
h            0.73094475818523       -7.17165786193440        0.46770411390779
o           -2.28955678568185       -3.78931532443849        1.95071246531844
h           -1.32668307811406       -3.73468225740729        2.02463994655970
h           -2.59213130970969       -4.11070014072132        2.82000176436856
o            0.66082881709000        2.37483339927017       -5.31302260647352
h           -0.31601854838089        2.40725433446219       -5.20284638699525
h            1.02264180392233        3.02862055891329       -4.69242465605065
o           -2.69093417704291       -0.06301541575339       -4.06304497584282
h           -2.22920197778136       -0.71736432654509       -3.47785104833540
h           -2.07867332114699        0.00977897859284       -4.82211253131841
o           -0.93547631140945        4.31653743892459       -3.10548416138223
h           -0.47889895366916        4.78272550097297       -3.82164473853879
h           -1.39147256270331        3.57192065100743       -3.51728386267667
o           -4.10429865431523       -4.54549593878229       -0.06699667538407
h           -5.03078980605800       -4.62350102334532        0.22149701425018
h           -3.60317525600786       -4.19353104183639        0.68118729380140
o           -2.63003696899267        1.99266482072651       -2.39435795605874
h           -3.41859323463317        1.81854774558046       -1.84019525027229
h           -2.60902840184224        1.33464132617608       -3.11432389226194
o           -0.53185396135637        2.68483173650894       -0.96973716243039
h           -1.30730781631185        2.33064729416948       -1.44164534134818
h           -0.24233850661666        3.42052049535394       -1.52063579272005
o            0.49928216377784        0.41673079063675       -3.18631303218311
h           -0.02893286001588        0.32826569864435       -3.98867217594292
h            0.66826433260039       -0.47908569085208       -2.83539820264019
o           -1.82084417306720       -1.14214700273486        3.29680636933213
h           -2.17871065016575       -0.26010622696806        3.49555576029239
h           -2.48080721713820       -1.77803875373892        3.63551784290747
o           -4.98807288912105       -0.21524982292961        7.41111254071854
h           -5.70995655004678        0.32320582121374        7.04883652182956
h           -5.31986172423912       -1.12659291467784        7.44429531634038
o            0.28154400297920       -4.64652501880908        2.23618995563273
h            0.14742534602254       -5.19621756110996        3.02181473684498
h            1.22780228318801       -4.36690470855162        2.29173481707983
o           -3.15779999372849        1.71736294666818        6.74898804884895
h           -3.63771610690344        1.12678723486012        7.34032790848573
h           -2.23877188589312        1.83127407949979        7.06444021748198
o            0.69976995877728       -1.84893329526139        2.75357703773140
h            0.90828564273183       -2.60581293274022        3.33140078662217
h           -0.22018928937154       -1.59830586111395        2.96875929896710
o            2.45976419669047        1.47137616439021        2.04705311358067
h            3.19495154008186        1.00946402414485        2.48095475712422
h            2.48845606622839        2.40246528690652        2.33550655351842
o            0.15190906580638       -2.92958415520183       -0.01885374985074
h            0.46032570979232       -3.37040852990339        0.77766998794980
h           -0.48465931803475       -3.55141707721005       -0.45992506202959
o            0.86041727757327        5.44415503460713       -1.25367045788809
h            1.33720235753821        5.95663017996160       -0.58401061011720
h            0.22464909555784        6.05023811337657       -1.68371033659021
o           -1.42090362777268       -0.30075875449632        8.64955521571943
h           -1.14711548047387        0.60005458202879        8.43608311382476
h           -2.00888765772156       -0.59464634813032        7.93206675608599
o           -5.42648880684638       -0.23228870104877        4.32110971200026
h           -5.46642093894153        0.20724922397189        3.44493129108937
h           -5.81610747609872        0.40613119332049        4.94565516065677
o           -6.91698291216269        0.46031688639311       -0.34171428029694
h           -6.22574098799425        1.07091518234341       -0.63413446166687
h           -6.77867091229472        0.36029325767286        0.60645639933468
o            2.02401246441795        3.44773952332888        0.18890605967397
h            1.57505721547075        4.05764462954340       -0.40737743470453
h            2.86102351846246        3.86425612808561        0.44068795081418
o           -3.53310872630870       -3.44823497428275       -2.53429527897537
h           -3.89366844985692       -4.21784109318112       -3.01170930088249
h           -4.22060882212441       -3.22112527945371       -1.87670002638521
o            1.51352771927915       -1.74790865073394       -2.00734291056483
h            1.96022029963629       -2.40069070237107       -2.57503355969605
h            1.05693700154046       -2.23148833466912       -1.29642836322119
o           -4.68204124451373       -5.44670207897102       -3.90802670612459
h           -5.52497701410889       -5.19158774953991       -3.46634433040274
h           -4.75177360884429       -4.98704345051687       -4.76801306573763
o           -5.66388894212106       -2.62108794592331       -1.15482925985813
h           -6.02910615913743       -2.50088959897469       -0.26542314527495
h           -5.61385799616269       -1.74496201270770       -1.57166695178516
o            1.32331315482675        2.58538095843614        5.12577026554604
h            2.12723250164169        2.20767515697860        4.75008141810123
h            1.62392593593708        3.28100834029764        5.73479681664225
o            2.58544775402961       -1.24702811100435        0.83973789989157
h            1.92120426375606       -1.55162980334409        1.47828061964963
h            2.22101417644105       -0.48119215695642        0.37287894280529
o            2.24246803165043       -0.53432409252680        4.46938091974380
h            1.73176729383170       -0.91689126613361        3.72479620592417
h            1.57680816330858       -0.20130398692372        5.07940448264795
o            2.58777214991416        3.99819930115881        2.89961809828214
h            1.93655156533227        4.34943816207170        3.53447911358136
h            3.47661172754998        4.00038876255594        3.27598061936432
o           -3.90809010301869        4.32101690370878       -2.84061905405588
h           -3.26108554684599        3.62358635471443       -2.63948450291644
h           -4.53402290984675        3.89248531436661       -3.45051790307110
o           -6.25339800372794        5.81586008152132       -2.19311342212958
h           -6.49978925066883        5.71303951756101       -3.12754396663542
h           -5.33417660271096        6.13770426676174       -2.14106322885845
o            2.81645378529760       -3.01443079522973        6.98936533054697
h            3.29221983495761       -2.16326838289812        6.80656977960629
h            2.03565294303832       -2.75974826815843        7.49315525740700
o           -2.53606920191072       -5.11268186076041        4.24395086185880
h           -2.88384802594481       -4.66261545001646        5.03700278538185
h           -3.00118415525907       -5.97787134239040        4.18893635486304
o            1.25043240968879       -3.52766732781342        4.78888742110112
h            0.42459355760727       -3.74822931205054        5.25797244908053
h            1.83110735571538       -3.14825145001472        5.47177057174508
o            0.02239640132218        0.87775320136465        2.82465843373633
h            0.98546126797186        0.93538255601776        2.64455363474629
h           -0.30790997873296        1.71650238574784        2.44550921281263
o           -1.25276510507230       -2.35408629999467       -8.62043777672120
h           -0.64166740466773       -3.04341499244085       -8.34864069253782
h           -0.72999059517372       -1.54041351668495       -8.69949271598654
o            4.07475948675558       -2.58957443704701        4.21745479821674
h            3.53943329262193       -1.81033568404211        4.46137436218667
h            4.23285158068851       -3.09373848717219        5.02838505138123
o           -7.62251562130528        2.20495883443053        3.30609214507042
h           -6.74490191802798        2.47461162081265        3.62127412692857
h           -8.28326747720281        2.67695935453984        3.84826587406926
o           -9.67325565564353        5.60203220095997        3.01350494591580
h           -8.75223563079332        5.84364568264357        2.81791396146231
h          -10.02818957231397        5.36760062311004        2.14016943374126
o           -8.51705189651317       -3.06586102575826        0.47985380598055
h           -8.81448590691766       -2.13796231994596        0.41275389790606
h           -9.08059252992950       -3.56206753182185       -0.14174417654929
o            2.15532010413576       -6.78642146037583        2.83695044579584
h            3.09503476855184       -6.81620958991195        3.07503154300741
h            1.66175284882762       -6.69888312469704        3.65739751567715
o            5.33458062037312       -3.89211079390157        6.32066299308746
h            6.11792538289702       -3.35286794043058        6.53250671773322
h            4.66178585499337       -3.70829677065533        6.98426155672052
o            2.84082287893663        1.62597612094671       -3.41430246483095
h            2.55923394756178        2.53400492560254       -3.17879222158107
h            1.99038750893782        1.12988886047223       -3.45631674153305
o            4.17182210455044       -5.24484790069817       -2.71469314583900
h            4.84369309611649       -5.04980842059359       -2.04077254886318
h            3.88587729557950       -4.40629187989738       -3.09688317258008
o           -9.17422925944211        3.75743104179669       -3.01586009889750
h           -8.77825426677946        4.39666860728975       -3.62022426662599
h           -8.48691693860892        3.59371761408550       -2.33222681552292
o            6.01252411117569        2.37504935454997        1.50263286259025
h            5.30399611931077        2.15514923755156        0.85092684535331
h            6.44491475945978        1.50482669958652        1.63309719178585
o           -1.49980760385226        3.20998051618743       -8.37800730221315
h           -0.56366955590453        2.95224132549977       -8.33789067283479
h           -2.01137645499050        2.45136360306943       -8.04647709487168
o           -7.84749565233247       -1.42542038975358       -2.10249307403686
h           -8.81384531027711       -1.42291214368647       -2.08235971100488
h           -7.54824739749577       -0.74182014727587       -1.47855289702427
o           -2.85725332461258        1.28216288774473        4.06850890903582
h           -3.07801557473059        1.13432174536114        5.00311933022516
h           -2.16185764052902        1.99382193981881        4.10073606894569
o            3.78090652801875       -5.81114052745959        0.68474290507144
h            4.64511899283929       -6.11824382076754        0.98382235782363
h            3.36029562984183       -6.54503950757057        0.20243428121884
o           -2.13908039564247       -6.34743783550340        1.02602241000845
h           -2.08427929622665       -5.47197135322662        1.45392435720909
h           -3.06996299527808       -6.61701022219320        1.15872333979709
o            2.14759310515281        0.05296987628570       -5.69257664715921
h            1.51349048488254        0.77422975346910       -5.53645330004390
h            1.65233401580145       -0.77768692984873       -5.69616237202681
o            0.26427689018127       -0.08423865638465       -8.23730440916699
h            1.05913432543671       -0.65491890093840       -8.16898111100603
h            0.56742370195595        0.80048805923283       -8.46268327445708
o           -0.31991145891970        0.07788775117376        5.38801718401553
h           -0.27876041633748        0.37547545186449        4.45198035715826
h           -1.20194896098672       -0.31332444343062        5.52046238572764
o           -1.40908122226962       -4.83712838602524       -6.30049373155881
h           -2.19240331699502       -4.87088549859350       -6.89208059687324
h           -1.53264785340560       -5.47563880938638       -5.57991776171159
o            1.45045062393130        0.90332077239281       -0.60992235341325
h            1.57301056146062        1.81173223411285       -0.27400716327822
h            1.06560722243625        0.99157112110484       -1.49263990971736
o           -1.48228507537811       -4.62520618558710       -1.10585080240225
h           -1.73629705181169       -5.28616778166488       -0.44475969563675
h           -2.29765773823024       -4.27665411032471       -1.49791022072817
o            5.55209788369272       -3.78334612339235        1.30998549086324
h            5.80558811927446       -4.14957861351417        2.16687174776422
h            5.87206509630690       -4.36348925216833        0.60241948870906
o           -3.23298300035309       -1.34796922793912       -7.11383310549941
h           -2.55485641806784       -1.67173555200150       -7.73230607851911
h           -2.99591074134837       -1.76549135790304       -6.25260637930178
o           -6.68553998403528       -4.97333114738871        0.63923521939383
h           -7.17133257306476       -4.13415676274527        0.70403826928160
h           -7.11419234846598       -5.44824806492736       -0.10053911597225
o           -1.96972630545478        2.72497552128475       -5.10177808337196
h           -2.06630414499418        3.59498723616763       -5.53573241611090
h           -2.37946297914051        2.09423149810340       -5.72138175398702
o           -9.07856203001790        2.44037174908944        0.98718944071152
h           -8.27831913706179        2.44415412783834        1.53962630555810
h           -9.28106748522975        3.38734785643168        0.79753846600693
o            4.69889772085016       -6.78280066581155        3.86735148549840
h            5.29115987370197       -6.01363946387233        3.79680873194316
h            4.12938459118797       -6.57551317454311        4.62724480329779
o            1.96792311572183        0.71737828784385        7.66135866030160
h            1.55607001513228       -0.14473419337203        7.83274418490086
h            1.23060507702834        1.33799107546489        7.55463824810298
o            3.75246764845688       -0.32406614383394       -1.79598404947367
h            3.56952492492998        0.31601895708086       -2.49993215476389
h            2.92257219625214       -0.83677839506590       -1.70680274824789
o            4.52652003704298        4.79002694369540        1.01433497769313
h            4.91648936596254        5.50475547588484        0.48979281875828
h            5.18978594230676        4.09795030470429        1.05275329312843
o           -4.89082724414331       -0.26957460778943       -2.28035212643553
h           -5.64959724934710        0.28014019510966       -2.56089216710808
h           -4.21367613646731       -0.21519838063449       -2.96138591915113
o            6.25653217473708       -6.91246800638145        1.56106071876924
h            5.81209080517106       -7.29517255797527        2.32766690714586
h            6.22159872347823       -7.54675371733427        0.83183199972521
o           -3.06758877939804        1.34479290733382       -7.10331375237516
h           -3.08637800615497        0.36717528603430       -7.16221976191047
h           -3.96671985027915        1.66505757932091       -7.29331333954768
o            4.38349902631197       -0.96058563707987       -4.59184704698194
h            3.66856173074151       -0.35877519381396       -4.85347843440868
h            4.60887566620181       -1.43628734944550       -5.41824808711080
o           -8.76449056095610       -3.46376825654178        3.11734026838213
h           -8.59765205963500       -3.35098062990577        2.15644874353076
h           -8.20232285801270       -2.81720757602761        3.58112138335403
o           -9.56540038925039       -0.61668840128570        0.49640815294461
h           -9.51840515051026       -0.02746830715135       -0.28118041631283
h          -10.46286317928651       -0.55698200702465        0.87569252755575
o           -8.05434985644129       -6.12828298753612       -1.35804321240490
h           -8.93903002796286       -5.75297427695592       -1.27585018593012
h           -7.58438156384313       -5.53869174193655       -1.99287693460682
o           -8.23841081186458        6.78732685819179       -0.64226707351245
h           -7.83680671672385        7.46674053315798       -0.09980128644085
h           -7.53129368566864        6.45267310663982       -1.22486074286077
o           -5.53080359916825        7.37828686796427        0.45184697037911
h           -4.77382950049810        7.55363035809649        1.04179519574532
h           -5.19992095696654        7.59005388861726       -0.43181098613795
o           -2.05781374578185        5.32829352435682       -0.77260018832054
h           -1.68302249505431        4.97208961780438       -1.59621996480726
h           -1.36309897443545        5.32738752694074       -0.10128080480363
o           -0.30395807549963        4.65970691978587        6.47210450173702
h            0.40836990191264        4.91871297265626        7.06210171809869
h            0.03405146264088        4.84882911694012        5.57109005003069
o            2.12884043039254        6.08268370426627        1.15388066944620
h            2.48283383264989        5.33259386925766        1.66339032257564
h            2.80785256059565        6.77812318354582        1.19970114799538
o           -1.99389303971220        5.01351252116120       -6.53087509848437
h           -1.79565765140415        4.46652493570904       -7.33089054866165
h           -1.13233772824503        5.33381733344429       -6.20450009336458
o            1.14717397446861        2.59548817509846       -7.90362754292445
h            1.57701445388949        3.45844227783573       -7.94481315580348
h            0.97303326902480        2.47450010512302       -6.93501150748987
o            4.10067536265153        1.73724628832360       -0.13089911205555
h            4.07455556597469        0.93544224801256       -0.68817365125341
h            3.40618964788395        1.62773917998293        0.54529080710940
o            3.78868828849685        2.68345299073723       -5.75002201602969
h            3.39310856119740        2.18869175093970       -5.00990994959524
h            3.80901309491117        2.07281430909030       -6.51046728097814
o            0.32714269604870        5.55188326731275       -5.28311436454807
h            0.73320350937536        6.30173257294354       -4.82485279176437
h            1.05065641422340        5.15881090428068       -5.81120608725336
o           -6.07884025622299       -2.10384969151100        1.56833049839499
h           -5.34305749738683       -1.53243008972565        1.29546133361082
h           -6.74449994686502       -1.52247236294935        1.97891341260211
o            1.66447387137476       -7.23292397525082       -2.95089598952443
h            0.75850116802872       -7.53189337201326       -2.81771693008027
h            1.69467264197304       -6.32285790798384       -2.55791383138437
o            8.03598332424501       -2.71688196063555        1.92453688504702
h            7.67809867864863       -2.59328206290279        1.01489715674075
h            8.17513653573475       -3.67515053263019        2.00968113434786
o            2.72944095977029       -3.80411827026516        2.17898666303989
h            3.25630406958943       -3.45844389093562        2.91485165076837
h            3.16938143925431       -4.59872227724401        1.84064222283038
o            1.67068479399898        7.46117443177432       -3.81771057670383
h            2.09799058155441        8.27718068646729       -4.07287844363050
h            2.22360288050047        7.06557499087695       -3.10430896769143
o           -5.76995430328035       -2.81239704627382        6.96556390725553
h           -6.28776120934010       -2.65867303913636        6.13970385247618
h           -6.20846786869684       -3.52142181429258        7.43536004676930
o           -7.85358282726758       -1.57377427518993       -6.52374273214652
h           -8.01742563866660       -2.48292424914135       -6.80179072344977
h           -7.36027322413541       -1.66132058846759       -5.65680043787884
o           -3.89934646312996        7.17986110667343       -1.73981038548555
h           -3.21975215118068        6.59589207055257       -1.35651242904676
h           -3.60881101018528        7.33948166946455       -2.64340305595306
o           -2.78069406981524        6.36198602825357       -4.09121243242952
h           -2.63433186159443        6.10769490514623       -5.00511955103957
h           -3.16541769882208        5.56611226549227       -3.64079701341743
o            3.86950021899904        1.63498489191103        4.77078259648064
h            4.81424384274853        1.52947741859976        4.54846985030617
h            3.49093107682152        0.74145487940980        4.66647310315838
o           -6.78373847662493       -4.33605412811382       -2.78819536341928
h           -7.49689837075969       -3.90359593833559       -3.28797298465140
h           -6.44660713730296       -3.65880155044728       -2.14959481996678
o            1.02699906841781       -4.33135537594952       -7.19168870927615
h            1.62018806598388       -4.87800978783235       -6.65041444839433
h            0.12889322964190       -4.65333348837743       -6.97199362205901
o            1.48918560703776       -4.87744865298472       -1.81476270373190
h            2.24470686384250       -4.37284258550045       -1.44606085153893
h            1.05011277907352       -5.31354587112501       -1.05359931815035
o           -4.50932225623835        4.77782913122687        0.10930580215876
h           -4.89730274314264        5.66340406856607        0.14082086673509
h           -3.60381265494907        4.87574332804265       -0.23444901404852
o           -6.47340883741608       -1.71986014813643       -4.32592988625267
h           -7.00140956182973       -1.60384475769988       -3.49831817393635
h           -5.97392904645664       -0.88858279115989       -4.45208739754859
o           -9.83027472987609        4.89452347420067        0.39760310021163
h           -9.23243080394216        5.58474269976383        0.04427909419192
h          -10.53758478245393        4.78823581996170       -0.26928117191702
o            5.66124588786631        7.56453253928486        3.49634556821935
h            5.24880848763110        7.20167455794975        4.29094803559837
h            6.37793129107415        6.94608545266233        3.27885963269705
o           -7.03242879195165        1.20434802126426       -3.06730414832479
h           -6.88361890055827        2.06244944115213       -2.63848667500877
h           -7.12953473404252        1.35256561601294       -4.02037041130178
o            2.47947518886162        4.44477097952702        6.75503940758714
h            3.02143980037944        5.08650041998950        6.27292844561587
h            3.10371738964610        3.79142966384246        7.12202660883954
o            3.46643558589408        1.00146190068739       -7.82192249670512
h            2.75531227417031        1.52275763582301       -8.21667599338117
h            3.02335205480241        0.38740891735729       -7.20233992418807
o           -0.14801067056803       -6.14196568726658        4.53181010205174
h            0.16686805541853       -6.03117130254586        5.43044297197943
h           -1.04465586048005       -5.71561169672214        4.51015057106165
o            6.44189525653993        0.37380397551941       -1.30020116197129
h            7.13972061109752        0.77180558809438       -0.75888295759315
h            5.98022940917211       -0.27885587382872       -0.74667877972551
o           -7.95116288021469       -0.37838587769464        2.57534711266666
h           -8.56365429948925       -0.38906895840352        1.80874332109026
h           -7.66479025278345        0.54702526854871        2.70371295405741
o           10.61859693983772        4.21121364289622        2.57751539296591
h           10.66529736120525        4.16045484190527        1.60672041903313
h            9.77978258066047        3.78451071628406        2.81440758968776
o          -11.84664019830361       -0.45021972493019        1.90621688114701
h          -11.54351157002682        0.25881926098748        2.49664807636854
h          -11.75683100273560       -1.28412418656296        2.39528743047205
o           -5.06730760477016        2.88630832371676        4.16354307411891
h           -4.34082531277097        2.26564644150006        3.98018679023010
h           -4.99700408679256        3.11210719096781        5.10875696252444
o           -6.43694766159896        3.43861404727532        1.20112526476338
h           -6.86940063557694        4.20700519328631        1.62203045971260
h           -5.58920040515047        3.80840291036751        0.88721097308730
o           -6.90784039551072        1.25973256342590        6.03150554951465
h           -7.02571772907446        2.22173891707365        5.99700939991514
h           -7.75453799195654        0.86544080990704        5.73994590806467
o           -0.69561970436220       -4.00514111241500        6.55610625684366
h           -0.41861101446268       -3.26020135852831        7.10626481700159
h           -1.65427840252084       -4.09504887687326        6.66951075902254
o            2.77183789503681       -5.68110807402333        5.48641882878633
h            3.03875668727308       -5.28406440045994        6.31654535216922
h            2.25299640107380       -4.99139973271234        5.02687063712155
o           -4.75475693896739        4.66367025121862       -6.62169837305833
h           -3.82003807108818        4.89909775157630       -6.69697228527435
h           -4.96218756602280        4.07195441551592       -7.35422441119682
o            4.19760023225918        4.06214108882673       -1.59941677191084
h            5.14694583138156        4.14040679026519       -1.39981062322950
h            3.94700514790847        3.22144271332425       -1.17360801731598
o            6.94964358693237       -0.45838457307245       -3.78885308488133
h            6.83632630304552       -0.21060115626117       -2.85483034353699
h            6.05821156913701       -0.50234728599345       -4.17205158912937
o            4.05232455543742        7.96721117992536        1.37620979321930
h            4.64130886319289        7.92197511122246        2.15674499720356
h            4.63020323602312        7.70611973084879        0.64043935318198
o            4.41251115032016        5.83037534847489        5.30807204053271
h            5.09981066035465        5.57289470776314        5.94169597324704
h            4.52528611885736        5.18690847227385        4.58593388103032
o            5.31688530911487        3.87259427611230        3.62408860756770
h            5.40500065494015        3.16351282229839        2.95326382180483
h            6.04651065042243        4.48619680658369        3.41792878439478
o            6.23683468046474       -5.24939697167623       -0.92776346672465
h            6.09869607818107       -6.21363503221740       -0.87489419272969
h            7.05071181215541       -5.09948451938482       -1.42922151060089
o            6.50176131468564       -1.62266910775333        3.87036906821830
h            7.01245345290532       -2.13040656514690        3.20750682221713