 Entering Gaussian System
 *********************************************
 Gaussian 98:
 frequency output generated by the xtb code
 *********************************************
                         Standard orientation:
 --------------------------------------------------------------------
  Center     Atomic     Atomic              Coordinates (Angstroms)
  Number     Number      Type              X           Y           Z
 --------------------------------------------------------------------
    1          8             0       -2.143236    1.325455   -1.206253
    2          1             0       -1.496633    0.747762   -0.748756
    3          1             0       -2.877504    1.425771   -0.574068
    4          8             0       -2.299807   -0.030810   -3.468635
    5          1             0       -2.999334    0.294976   -4.034452
    6          1             0       -2.325449    0.515570   -2.642175
    7          8             0       -1.741574   -2.258151   -1.959904
    8          1             0       -1.936443   -1.608333   -2.654703
    9          1             0       -2.590966   -2.466645   -1.532409
   10          8             0       -0.405072    1.831367    3.668599
   11          1             0       -0.458324    0.925084    3.315529
   12          1             0        0.479895    2.130718    3.423770
   13          8             0       -4.005870   -2.728511   -0.515192
   14          1             0       -4.162313   -2.047155    0.196747
   15          1             0       -4.849671   -3.149668   -0.676063
   16          8             0       -0.516346   -0.626147   -0.250411
   17          1             0        0.331691   -0.430354   -0.676157
   18          1             0       -0.945580   -1.321995   -0.797985
   19          8             0        3.494242   -1.069117   -1.268686
   20          1             0        3.025656   -1.815938   -0.852307
   21          1             0        2.802525   -0.415897   -1.461044
   22          8             0       -0.073791   -3.973116   -0.556945
   23          1             0       -0.750199   -4.086131    0.145780
   24          1             0       -0.532619   -3.504646   -1.267301
   25          8             0        1.470709    0.775909   -1.573154
   26          1             0        1.010421    0.852503   -2.454997
   27          1             0        0.967794    1.361684   -0.951151
   28          8             0        3.276213    2.669864   -1.926654
   29          1             0        3.645694    2.610434   -2.807915
   30          1             0        2.672217    1.887587   -1.824784
   31          8             0        1.954273    1.875266    2.115655
   32          1             0        2.784537    2.235771    1.733124
   33          1             0        2.087779    0.912874    2.152594
   34          8             0       -1.885840    2.972167    1.750144
   35          1             0       -1.208731    2.803413    1.068593
   36          1             0       -1.476803    2.644909    2.580657
   37          8             0       -3.869444    1.581952    0.865018
   38          1             0       -3.130569    2.107697    1.299900
   39          1             0       -4.647956    2.136610    0.907341
   40          8             0        0.205029    1.166465   -3.810668
   41          1             0       -0.163644    2.046906   -3.572975
   42          1             0       -0.567396    0.583339   -3.868667
   43          8             0        0.280223    2.384195    0.161895
   44          1             0        0.583634    3.233798   -0.200506
   45          1             0        0.858923    2.197345    0.945147
   46          8             0        4.166236    2.513263    0.751163
   47          1             0        3.958665    2.659463   -0.182587
   48          1             0        4.545232    1.618516    0.799183
   49          8             0       -0.249398   -0.605301    2.411503
   50          1             0       -0.394851   -0.570571    1.441328
   51          1             0        0.688087   -0.813294    2.520512
   52          8             0        1.368322    4.458380   -1.221113
   53          1             0        2.120556    3.913087   -1.535374
   54          1             0        1.740382    5.256788   -0.846323
   55          8             0       -2.362140   -2.033245    3.131801
   56          1             0       -2.445849   -2.024493    4.085111
   57          1             0       -1.555094   -1.513600    2.911917
   58          8             0        2.138617   -2.895342    0.239720
   59          1             0        1.257326   -3.252267   -0.073752
   60          1             0        2.642649   -3.669315    0.492547
   61          8             0        2.501237   -0.860940    2.025614
   62          1             0        3.419959   -0.620022    1.831036
   63          1             0        2.298481   -1.580012    1.397231
   64          8             0        4.878603   -0.152709    0.759962
   65          1             0        4.415576   -0.477782   -0.061346
   66          1             0        5.777780   -0.475881    0.713653
   67          8             0       -2.151453   -4.016318    1.147201
   68          1             0       -2.829955   -3.685305    0.536561
   69          1             0       -2.185717   -3.425161    1.913147
   70          8             0       -0.887018    3.330158   -2.675235
   71          1             0       -1.352537    2.783688   -2.018190
   72          1             0       -0.232764    3.850686   -2.195026
   73          8             0       -4.343334   -1.060102    1.461303
   74          1             0       -4.143762   -0.126276    1.272826
   75          1             0       -3.682312   -1.361157    2.108787
 --------------------------------------------------------------------
     1 basis functions        1 primitive gaussians
     1 alpha electrons        1 beta electrons
 
 Harmonic frequencies (cm**-1), IR intensities (km*mol⁻¹),
 Raman scattering activities (A**4/amu), Raman depolarization ratios,
 reduced masses (AMU), force constants (mDyne/A) and normal coordinates:
                      1                      2                      3
                        a                      a                      a 
 Frequencies --    24.2206                32.3478                33.3377
 Red. masses --    14.2638                14.3302                14.2992
 Frc consts  --     0.0000                 0.0000                 0.0000
 IR Inten    --     0.6315                 0.4865                 0.9714
 Raman Activ --     0.0000                 0.0000                 0.0000
 Depolar     --     0.0000                 0.0000                 0.0000
 Atom AN      X      Y      Z        X      Y      Z        X      Y      Z
   1   8     0.03  -0.13  -0.04    -0.00  -0.14   0.11     0.09   0.03   0.01
   2   1     0.01  -0.03  -0.00    -0.01  -0.04   0.02     0.02   0.02   0.02
   3   1     0.01  -0.02  -0.01     0.01  -0.01   0.03     0.01   0.01  -0.01
   4   8     0.12  -0.13  -0.04     0.03  -0.01   0.02     0.21  -0.06   0.06
   5   1     0.02  -0.05  -0.01    -0.00  -0.01   0.02     0.04  -0.04   0.02
   6   1     0.02  -0.03  -0.01     0.00  -0.02   0.01     0.04  -0.01   0.01
   7   8     0.05  -0.14  -0.03     0.16  -0.09  -0.14     0.23   0.04   0.19
   8   1     0.02  -0.04  -0.01     0.05  -0.01  -0.03     0.07   0.00   0.04
   9   1     0.01  -0.01  -0.00     0.03  -0.02  -0.05     0.05   0.00   0.03
  10   8    -0.03  -0.24   0.02     0.08   0.09   0.07     0.04  -0.01  -0.02
  11   1     0.01  -0.05  -0.02     0.02   0.02   0.01     0.00  -0.01   0.02
  12   1    -0.01  -0.04   0.02     0.02   0.02   0.02     0.01  -0.01  -0.02
  13   8     0.01   0.11   0.01     0.05   0.07  -0.26     0.09  -0.08  -0.08
  14   1    -0.01   0.04  -0.01     0.02   0.02  -0.07     0.01  -0.02  -0.02
  15   1     0.01   0.01   0.01     0.01   0.03  -0.07     0.02  -0.01  -0.05
  16   8     0.08  -0.11  -0.08     0.02  -0.15   0.03     0.09   0.12   0.21
  17   1     0.02  -0.02  -0.02    -0.00  -0.01   0.00     0.02   0.05   0.05
  18   1     0.02  -0.03  -0.02     0.02  -0.04  -0.00     0.04   0.02   0.05
  19   8     0.05   0.05  -0.13    -0.15  -0.16   0.09    -0.23  -0.03  -0.15
  20   1     0.02   0.01  -0.03    -0.04  -0.03   0.05    -0.06  -0.00  -0.03
  21   1     0.01   0.01  -0.03    -0.03  -0.04   0.01    -0.05   0.01  -0.02
  22   8    -0.03  -0.03   0.23     0.05  -0.08   0.05    -0.05  -0.20   0.18
  23   1    -0.01   0.02   0.06    -0.01  -0.02  -0.01    -0.02  -0.05   0.04
  24   1    -0.00  -0.03   0.04     0.03  -0.02  -0.00    -0.00  -0.03   0.05
  25   8     0.03   0.02  -0.04    -0.07  -0.08   0.02    -0.08   0.17   0.05
  26   1     0.01   0.01  -0.01    -0.02  -0.00   0.01    -0.01   0.04   0.01
  27   1     0.00  -0.01  -0.00    -0.01  -0.02   0.01    -0.02   0.06   0.00
  28   8    -0.07   0.14   0.04    -0.15  -0.04  -0.20     0.01   0.08   0.00
  29   1    -0.02   0.05   0.01    -0.08   0.00  -0.07    -0.00   0.01  -0.00
  30   1    -0.01   0.03   0.00    -0.03  -0.02  -0.03    -0.01   0.03   0.01
  31   8    -0.00  -0.11   0.04     0.10   0.08   0.07    -0.03  -0.01  -0.11
  32   1    -0.01  -0.02   0.01     0.01   0.02  -0.01     0.00  -0.01  -0.02
  33   1     0.01  -0.03   0.00     0.03   0.02   0.03    -0.02  -0.00  -0.04
  34   8     0.01  -0.11   0.06     0.08   0.10   0.07    -0.07  -0.02   0.05
  35   1     0.00  -0.03   0.02     0.02   0.01   0.02    -0.02   0.03   0.01
  36   1    -0.01  -0.04   0.01     0.02   0.03   0.02    -0.01  -0.01   0.01
  37   8    -0.05   0.12  -0.15     0.03   0.15   0.10    -0.00  -0.04  -0.07
  38   1    -0.01   0.01  -0.02     0.01   0.03   0.02    -0.01  -0.01  -0.00
  39   1     0.00   0.05  -0.06     0.01   0.05   0.01    -0.00  -0.01  -0.02
  40   8     0.03   0.08  -0.03    -0.05   0.12   0.04     0.08   0.14  -0.04
  41   1    -0.00   0.01   0.00    -0.02   0.02   0.03     0.01   0.03  -0.01
  42   1     0.02   0.01  -0.01    -0.01   0.02  -0.00     0.03   0.02  -0.01
  43   8    -0.02  -0.12   0.06     0.03  -0.08   0.08    -0.04   0.27  -0.02
  44   1    -0.01  -0.02   0.02     0.00  -0.02   0.01    -0.00   0.07   0.00
  45   1    -0.00  -0.03   0.01     0.01  -0.01   0.02    -0.01   0.05  -0.01
  46   8    -0.05   0.03   0.03    -0.05   0.05  -0.22     0.05  -0.10  -0.02
  47   1    -0.02   0.02   0.01    -0.02   0.00  -0.05     0.01  -0.01  -0.00
  48   1    -0.00   0.01  -0.01    -0.01   0.01  -0.05     0.00  -0.03  -0.02
  49   8     0.10  -0.16  -0.09     0.06   0.09   0.03    -0.01  -0.13   0.22
  50   1     0.03  -0.04  -0.02     0.02   0.00   0.01     0.01  -0.01   0.05
  51   1     0.02  -0.04  -0.02     0.01   0.03   0.02    -0.00  -0.03   0.06
  52   8    -0.14   0.01   0.18    -0.06  -0.06   0.09     0.04   0.17  -0.14
  53   1    -0.03   0.02   0.03    -0.03  -0.01  -0.01     0.01   0.03  -0.02
  54   1    -0.04  -0.00   0.06     0.00  -0.03   0.04     0.01   0.06  -0.08
  55   8    -0.19   0.34   0.10     0.02   0.02  -0.19    -0.13  -0.08   0.01
  56   1    -0.05   0.12   0.03    -0.01  -0.01  -0.05    -0.05  -0.03   0.00
  57   1    -0.02   0.04   0.01     0.01   0.01  -0.02    -0.02  -0.03   0.02
  58   8     0.11  -0.01  -0.13    -0.07  -0.03   0.31    -0.08  -0.02  -0.00
  59   1     0.01  -0.00   0.00    -0.01  -0.01   0.06    -0.02  -0.03   0.02
  60   1     0.04  -0.00  -0.05    -0.02  -0.01   0.08     0.00   0.01  -0.01
  61   8     0.14  -0.07  -0.07     0.11   0.08   0.16    -0.04   0.02  -0.07
  62   1     0.03  -0.01  -0.03     0.02   0.02   0.01    -0.01  -0.01  -0.02
  63   1     0.04  -0.02  -0.02     0.01   0.01   0.06    -0.02   0.00  -0.01
  64   8     0.06   0.06  -0.14    -0.03   0.06  -0.10    -0.05  -0.14  -0.22
  65   1     0.01   0.01  -0.03    -0.02  -0.01  -0.01    -0.03  -0.03  -0.05
  66   1     0.02   0.02  -0.04    -0.01   0.02  -0.03    -0.02  -0.04  -0.08
  67   8    -0.07   0.24   0.20    -0.11  -0.02  -0.15    -0.12  -0.17   0.10
  68   1    -0.01   0.05   0.04    -0.01   0.00  -0.05    -0.02  -0.04   0.01
  69   1    -0.03   0.06   0.05    -0.02   0.00  -0.04    -0.03  -0.03   0.02
  70   8    -0.05  -0.02   0.07    -0.15  -0.01   0.18     0.01   0.09  -0.02
  71   1    -0.01  -0.02   0.01    -0.02  -0.02   0.04     0.01   0.02  -0.00
  72   1    -0.02  -0.00   0.03    -0.04  -0.00   0.05     0.01   0.02  -0.01
  73   8    -0.14   0.17  -0.06     0.09   0.06  -0.24    -0.01  -0.05  -0.12
  74   1    -0.04   0.04  -0.02     0.01   0.02  -0.03     0.00  -0.01  -0.03
  75   1    -0.04   0.06  -0.00     0.02   0.01  -0.06    -0.01  -0.01  -0.02
                      4                      5                      6
                        a                      a                      a 
 Frequencies --    36.7202                37.2826                41.6794
 Red. masses --    14.3182                14.4606                14.3141
 Frc consts  --     0.0000                 0.0000                 0.0000
 IR Inten    --     0.5379                 0.1011                 2.8762
 Raman Activ --     0.0000                 0.0000                 0.0000
 Depolar     --     0.0000                 0.0000                 0.0000
 Atom AN      X      Y      Z        X      Y      Z        X      Y      Z
   1   8     0.07  -0.06  -0.09    -0.04  -0.14   0.05     0.01  -0.16   0.05
   2   1     0.03  -0.00  -0.03    -0.01  -0.04   0.01     0.01  -0.04   0.01
   3   1     0.02  -0.03  -0.02     0.00  -0.02   0.02     0.01  -0.03   0.02
   4   8     0.19  -0.04  -0.11     0.02  -0.09   0.01     0.10  -0.01  -0.06
   5   1     0.05  -0.02  -0.03     0.00  -0.03   0.00     0.03   0.00  -0.01
   6   1     0.04  -0.01  -0.03    -0.00  -0.03   0.01     0.02  -0.02  -0.01
   7   8    -0.07  -0.02   0.03     0.14  -0.15  -0.12     0.08   0.01  -0.05
   8   1    -0.00  -0.01  -0.00     0.03  -0.03  -0.02     0.04   0.00  -0.02
   9   1    -0.02   0.02   0.02     0.04  -0.03  -0.02     0.02   0.04  -0.01
  10   8    -0.07   0.13  -0.05    -0.06   0.24  -0.03    -0.01  -0.16  -0.03
  11   1    -0.01   0.03  -0.02    -0.03   0.06  -0.01    -0.01  -0.04  -0.00
  12   1    -0.01   0.03  -0.00    -0.01   0.05  -0.00    -0.00  -0.05  -0.02
  13   8    -0.06   0.12   0.12     0.19   0.05   0.02    -0.02   0.46  -0.04
  14   1    -0.01   0.01   0.05     0.04   0.02  -0.00     0.01   0.09   0.02
  15   1    -0.02   0.04   0.03     0.05  -0.00   0.02    -0.01   0.13  -0.02
  16   8     0.13  -0.02  -0.12     0.03  -0.12  -0.07     0.11  -0.10   0.05
  17   1     0.03  -0.02  -0.04     0.01  -0.01  -0.01     0.02  -0.01   0.01
  18   1     0.02  -0.01  -0.02     0.03  -0.03  -0.02     0.03  -0.02   0.00
  19   8    -0.08  -0.16  -0.03    -0.05   0.01  -0.12     0.05   0.09   0.09
  20   1    -0.04  -0.02   0.01    -0.01  -0.01  -0.04     0.01   0.02   0.01
  21   1     0.00  -0.02  -0.03    -0.01   0.01  -0.02     0.01   0.02   0.02
  22   8    -0.16  -0.09   0.05     0.09  -0.23  -0.16    -0.01  -0.02   0.00
  23   1    -0.04  -0.03   0.01     0.03  -0.03  -0.02    -0.02  -0.00  -0.01
  24   1    -0.04  -0.02   0.01     0.02  -0.06  -0.04     0.01  -0.01  -0.01
  25   8     0.15   0.05  -0.13    -0.04   0.04   0.03    -0.01   0.01  -0.00
  26   1     0.03   0.03  -0.03    -0.01   0.02   0.01     0.01  -0.01  -0.01
  27   1     0.03  -0.01  -0.02    -0.01   0.01   0.01    -0.01   0.01  -0.01
  28   8    -0.01   0.23   0.03     0.01   0.02   0.19    -0.01   0.02   0.02
  29   1    -0.01   0.09   0.00     0.03  -0.00   0.06     0.01  -0.01   0.01
  30   1     0.02   0.04  -0.01    -0.00   0.01   0.03    -0.00   0.01   0.00
  31   8     0.03   0.04   0.07    -0.04  -0.03   0.01    -0.10  -0.05  -0.09
  32   1     0.00   0.01   0.01     0.00  -0.02   0.01    -0.02  -0.00  -0.01
  33   1     0.01   0.01   0.03    -0.03  -0.01  -0.00    -0.02  -0.01  -0.03
  34   8    -0.03  -0.02  -0.18    -0.01   0.28  -0.04     0.09   0.13   0.07
  35   1     0.00  -0.02  -0.03    -0.01   0.05  -0.01     0.01   0.03   0.01
  36   1    -0.01   0.02  -0.03    -0.01   0.08  -0.01     0.02   0.00   0.01
  37   8     0.05  -0.18  -0.09     0.05   0.10   0.09     0.12   0.06   0.13
  38   1     0.01  -0.03  -0.03     0.01   0.05   0.01     0.03   0.03   0.02
  39   1     0.01  -0.06  -0.03     0.01   0.02   0.00     0.03   0.01   0.02
  40   8     0.10   0.18  -0.08    -0.04   0.05   0.03     0.09  -0.06  -0.07
  41   1     0.01   0.04  -0.01    -0.02   0.01   0.01     0.01  -0.02  -0.02
  42   1     0.03   0.03  -0.03    -0.00   0.00   0.01     0.03  -0.02  -0.02
  43   8     0.05  -0.16  -0.01    -0.05   0.04   0.03    -0.05   0.07  -0.09
  44   1    -0.00  -0.03   0.01    -0.01   0.01   0.01    -0.01   0.02  -0.03
  45   1     0.01  -0.03   0.00    -0.01   0.01   0.01    -0.01   0.01  -0.02
  46   8     0.00   0.00   0.02     0.06  -0.16   0.15    -0.06   0.08   0.04
  47   1     0.00   0.02   0.01     0.01  -0.02   0.04    -0.01   0.02   0.01
  48   1    -0.01  -0.00  -0.01    -0.00  -0.05   0.03    -0.01   0.02   0.02
  49   8     0.00   0.15  -0.11    -0.13   0.23  -0.05    -0.02  -0.22   0.07
  50   1     0.01   0.03  -0.03    -0.03   0.03  -0.01     0.00  -0.05   0.02
  51   1    -0.00   0.04  -0.02    -0.04   0.04  -0.01    -0.00  -0.04   0.02
  52   8    -0.09   0.05   0.22    -0.07   0.02  -0.01    -0.12   0.02  -0.25
  53   1    -0.02   0.03   0.04    -0.01   0.01   0.01    -0.02   0.01  -0.04
  54   1    -0.03  -0.00   0.10    -0.03   0.02  -0.02    -0.04   0.03  -0.10
  55   8     0.24  -0.11   0.03     0.04   0.08   0.09     0.01  -0.25   0.09
  56   1     0.09  -0.04   0.01     0.01   0.03   0.02     0.02  -0.08   0.02
  57   1     0.04  -0.00  -0.01    -0.00   0.04   0.01     0.00  -0.06   0.02
  58   8    -0.24   0.04   0.09     0.01  -0.07  -0.18    -0.01   0.03  -0.03
  59   1    -0.06   0.00   0.02     0.01  -0.04  -0.05    -0.00   0.01  -0.00
  60   1    -0.05   0.01   0.02     0.02  -0.01  -0.04    -0.00   0.01  -0.01
  61   8     0.01   0.03   0.06    -0.21  -0.10  -0.10    -0.01  -0.01   0.02
  62   1    -0.00   0.01  -0.01    -0.05  -0.03  -0.01    -0.00  -0.00   0.02
  63   1    -0.02   0.01   0.02    -0.05  -0.02  -0.03     0.00   0.00  -0.00
  64   8    -0.08  -0.03  -0.10    -0.12  -0.21   0.02     0.01   0.09   0.12
  65   1    -0.02  -0.02  -0.02    -0.02  -0.03  -0.01     0.01   0.02   0.03
  66   1    -0.02  -0.01  -0.02    -0.03  -0.06   0.01     0.00   0.03   0.03
  67   8    -0.16  -0.13   0.03     0.23   0.13   0.04    -0.17   0.02  -0.19
  68   1    -0.03  -0.01   0.01     0.06   0.03   0.01    -0.03   0.05  -0.04
  69   1    -0.01  -0.03   0.01     0.05   0.03   0.01    -0.03  -0.03  -0.02
  70   8    -0.00   0.07   0.05    -0.15  -0.05   0.10    -0.12  -0.17  -0.08
  71   1     0.00   0.00  -0.00    -0.02  -0.02   0.02    -0.01  -0.05  -0.01
  72   1    -0.01   0.02   0.02    -0.04  -0.01   0.02    -0.03  -0.03  -0.03
  73   8     0.03  -0.08   0.30     0.11   0.06   0.00     0.04   0.12   0.26
  74   1     0.02  -0.02   0.05     0.02   0.02   0.01     0.03   0.03   0.07
  75   1     0.03  -0.02   0.05     0.02   0.01   0.01     0.01   0.00   0.05
                      7                      8                      9
                        a                      a                      a 
 Frequencies --    44.1598                44.9540                48.4341
 Red. masses --    14.3389                14.4502                14.4905
 Frc consts  --     0.0000                 0.0000                 0.0000
 IR Inten    --     2.8700                 0.7398                 0.5106
 Raman Activ --     0.0000                 0.0000                 0.0000
 Depolar     --     0.0000                 0.0000                 0.0000
 Atom AN      X      Y      Z        X      Y      Z        X      Y      Z
   1   8    -0.07   0.03  -0.05    -0.02   0.04   0.00     0.08   0.09  -0.07
   2   1    -0.01   0.01  -0.01     0.01   0.01  -0.01     0.01   0.01  -0.01
   3   1    -0.01   0.02  -0.00     0.01   0.01   0.02     0.02   0.04  -0.01
   4   8    -0.02  -0.07  -0.01    -0.20  -0.07   0.08    -0.02  -0.05   0.04
   5   1     0.02  -0.00  -0.03    -0.06  -0.02   0.03    -0.00  -0.02   0.01
   6   1    -0.01  -0.01  -0.01    -0.04  -0.01   0.02     0.00  -0.00   0.00
   7   8    -0.08  -0.04   0.02    -0.00  -0.09  -0.01    -0.03  -0.08   0.01
   8   1    -0.02  -0.02   0.00    -0.02  -0.02   0.00    -0.01  -0.02   0.01
   9   1    -0.02  -0.01   0.00     0.01  -0.03   0.01    -0.01  -0.02   0.01
  10   8     0.17   0.03   0.17     0.05  -0.11  -0.06    -0.23  -0.12   0.03
  11   1     0.04   0.01   0.03    -0.00  -0.02  -0.03    -0.05  -0.02  -0.01
  12   1     0.04   0.01   0.03     0.02  -0.04  -0.02    -0.05  -0.03   0.04
  13   8    -0.12  -0.07  -0.07     0.04  -0.18   0.00     0.03  -0.07   0.10
  14   1    -0.02  -0.01  -0.02     0.02  -0.03  -0.02     0.04   0.01   0.01
  15   1    -0.04   0.00  -0.02    -0.00  -0.02  -0.01    -0.01   0.01   0.04
  16   8    -0.07   0.03  -0.05     0.10   0.03  -0.20    -0.08  -0.02  -0.02
  17   1    -0.01  -0.01   0.00     0.02   0.01  -0.06    -0.01  -0.01   0.00
  18   1    -0.02   0.00  -0.01     0.02   0.00  -0.04    -0.01  -0.01  -0.01
  19   8     0.04  -0.08  -0.08    -0.02   0.14   0.15    -0.02  -0.02  -0.10
  20   1     0.00  -0.02  -0.02    -0.02   0.04   0.03     0.00  -0.01  -0.03
  21   1     0.02  -0.01  -0.00     0.00   0.04   0.01    -0.01  -0.01  -0.02
  22   8    -0.08  -0.02   0.02    -0.08  -0.02   0.23    -0.03  -0.08   0.03
  23   1    -0.03  -0.01  -0.00    -0.03  -0.02   0.05    -0.01  -0.03   0.01
  24   1    -0.02  -0.01   0.00    -0.02  -0.02   0.05    -0.01  -0.02   0.01
  25   8     0.11   0.01   0.16     0.04   0.14  -0.24    -0.03  -0.03   0.09
  26   1     0.03  -0.02   0.04    -0.01   0.03  -0.05    -0.01  -0.02   0.02
  27   1     0.01  -0.01   0.04     0.01   0.02  -0.05    -0.01  -0.00   0.02
  28   8    -0.03   0.16   0.28     0.13   0.11   0.09    -0.07  -0.02  -0.10
  29   1     0.02   0.03   0.08     0.08   0.03   0.04    -0.04  -0.01  -0.04
  30   1     0.01   0.03   0.06     0.02   0.03  -0.02    -0.01  -0.01  -0.01
  31   8     0.10   0.14   0.04    -0.01  -0.09  -0.08    -0.13  -0.00   0.17
  32   1     0.03   0.03   0.02     0.00  -0.02  -0.00    -0.04   0.01   0.03
  33   1     0.02   0.03   0.00     0.00  -0.02  -0.01    -0.02  -0.00   0.02
  34   8     0.06  -0.04   0.20     0.17   0.13   0.00     0.06   0.26   0.05
  35   1     0.01  -0.01   0.05     0.03   0.02  -0.01     0.02   0.06   0.02
  36   1     0.02  -0.01   0.05     0.04   0.01  -0.01    -0.01   0.03   0.01
  37   8     0.04   0.08   0.04     0.14   0.10   0.11     0.14   0.21  -0.05
  38   1     0.01   0.00   0.02     0.04   0.03   0.02     0.03   0.06  -0.01
  39   1     0.02   0.03   0.02     0.03   0.03   0.03     0.02   0.04  -0.01
  40   8     0.10  -0.28   0.11    -0.25   0.07  -0.10     0.05  -0.18   0.02
  41   1     0.02  -0.06  -0.00    -0.06   0.02  -0.02     0.03  -0.03  -0.01
  42   1     0.03  -0.07   0.03    -0.06   0.01  -0.00     0.00  -0.03   0.01
  43   8    -0.02  -0.02   0.10     0.06   0.00  -0.11     0.00   0.04   0.06
  44   1    -0.03  -0.00   0.01     0.01   0.00  -0.02     0.02   0.01   0.02
  45   1     0.01   0.02   0.02     0.01  -0.01  -0.03    -0.01   0.00   0.02
  46   8     0.20   0.04   0.17     0.07   0.01   0.11    -0.27   0.13  -0.03
  47   1     0.03   0.03   0.05     0.02   0.00   0.03    -0.06   0.03  -0.01
  48   1     0.03   0.00   0.02     0.02   0.00   0.03    -0.05   0.04  -0.01
  49   8     0.04   0.13  -0.06    -0.04  -0.05  -0.19    -0.03  -0.06  -0.05
  50   1    -0.00   0.03  -0.01     0.01  -0.01  -0.05    -0.02  -0.01  -0.01
  51   1     0.01   0.03  -0.03    -0.01  -0.01  -0.03    -0.00  -0.01  -0.02
  52   8    -0.29   0.02  -0.09     0.01   0.06  -0.06     0.12   0.05   0.19
  53   1    -0.05   0.02   0.01     0.01   0.03  -0.00     0.02   0.01   0.02
  54   1    -0.11   0.04  -0.07    -0.02   0.02  -0.02     0.05  -0.01   0.08
  55   8     0.06   0.02  -0.17    -0.01  -0.03  -0.09     0.07  -0.15   0.03
  56   1     0.01  -0.00  -0.04     0.00   0.02  -0.02     0.01  -0.03   0.01
  57   1     0.01   0.01  -0.03    -0.00  -0.01  -0.04     0.02  -0.04   0.00
  58   8    -0.09   0.03  -0.03    -0.03   0.04   0.03     0.00  -0.04  -0.09
  59   1    -0.02   0.00  -0.00    -0.02   0.01   0.03    -0.00  -0.01  -0.01
  60   1    -0.03   0.01   0.01     0.00   0.01  -0.02     0.00  -0.01  -0.02
  61   8     0.02   0.13  -0.15     0.01  -0.09   0.15    -0.05   0.00  -0.13
  62   1     0.01   0.02  -0.04     0.00  -0.02   0.05    -0.02   0.02  -0.05
  63   1    -0.00   0.03  -0.03     0.01  -0.02   0.03    -0.01  -0.01  -0.03
  64   8     0.07  -0.01  -0.13     0.01  -0.01   0.21    -0.11   0.18  -0.14
  65   1     0.02  -0.01  -0.03    -0.00   0.01   0.05    -0.02   0.03  -0.03
  66   1     0.02  -0.01  -0.03    -0.00  -0.01   0.05    -0.02   0.06  -0.02
  67   8    -0.14  -0.10  -0.05    -0.14  -0.25   0.14    -0.02  -0.19   0.06
  68   1    -0.04  -0.03  -0.01    -0.03  -0.06   0.02    -0.00  -0.04   0.02
  69   1    -0.02  -0.01  -0.03    -0.03  -0.05   0.02     0.00  -0.05   0.01
  70   8    -0.01  -0.18  -0.21    -0.12   0.09   0.01     0.29  -0.02  -0.04
  71   1    -0.02  -0.03  -0.05    -0.02   0.02   0.00     0.05   0.01  -0.01
  72   1    -0.01  -0.03  -0.05    -0.02   0.01  -0.00     0.06   0.00   0.00
  73   8     0.03   0.04  -0.12     0.10   0.03  -0.17     0.28   0.16  -0.05
  74   1     0.01   0.01  -0.03     0.03   0.01  -0.02     0.08   0.04  -0.01
  75   1     0.01   0.01  -0.04     0.01   0.00  -0.03     0.06   0.03  -0.01
                     10                     11                     12
                        a                      a                      a 
 Frequencies --    51.1355                53.6874                55.8804
 Red. masses --    14.1756                14.3153                14.2641
 Frc consts  --     0.0000                 0.0000                 0.0000
 IR Inten    --     1.2531                 1.7212                 0.5021
 Raman Activ --     0.0000                 0.0000                 0.0000
 Depolar     --     0.0000                 0.0000                 0.0000
 Atom AN      X      Y      Z        X      Y      Z        X      Y      Z
   1   8    -0.09   0.01  -0.02     0.10  -0.17   0.19     0.10  -0.03   0.04
   2   1    -0.03  -0.01  -0.01     0.03  -0.05   0.04     0.03  -0.02  -0.01
   3   1    -0.03   0.00  -0.01     0.02  -0.05   0.04     0.03  -0.02   0.02
   4   8    -0.02   0.02  -0.03    -0.07  -0.05   0.15     0.04   0.05  -0.00
   5   1     0.00   0.01  -0.01    -0.03  -0.00   0.06     0.02   0.03   0.00
   6   1    -0.01   0.00  -0.01     0.00  -0.02   0.04     0.01   0.01   0.00
   7   8    -0.03  -0.09  -0.15    -0.06  -0.06   0.10    -0.00  -0.07  -0.15
   8   1    -0.01  -0.01  -0.03    -0.01  -0.01   0.03    -0.00  -0.01  -0.03
   9   1    -0.01  -0.01  -0.03    -0.02  -0.01   0.02     0.00  -0.01  -0.02
  10   8    -0.20  -0.14  -0.16    -0.08   0.16  -0.21     0.01  -0.14   0.23
  11   1    -0.02  -0.03  -0.06    -0.02   0.03  -0.03    -0.01  -0.02   0.02
  12   1    -0.05  -0.01  -0.01    -0.01   0.03  -0.04    -0.00  -0.03   0.06
  13   8     0.03   0.08   0.01    -0.19  -0.04  -0.06     0.07  -0.06  -0.02
  14   1     0.02   0.01   0.01    -0.05  -0.01  -0.01    -0.00  -0.02  -0.00
  15   1     0.00   0.02   0.01    -0.05  -0.00  -0.02     0.03  -0.03  -0.01
  16   8    -0.13  -0.04  -0.12     0.15  -0.18   0.09     0.08  -0.11  -0.15
  17   1    -0.04   0.02  -0.03     0.03  -0.04   0.01     0.02  -0.02  -0.03
  18   1    -0.02  -0.02  -0.04     0.03  -0.04   0.02     0.02  -0.02  -0.04
  19   8    -0.14  -0.06  -0.03     0.19   0.12  -0.14     0.00  -0.03  -0.07
  20   1    -0.02  -0.02   0.01     0.04   0.03  -0.05    -0.01   0.00  -0.01
  21   1    -0.04  -0.02   0.01     0.05   0.03  -0.03     0.01  -0.00  -0.02
  22   8     0.01   0.10   0.12    -0.04  -0.02   0.06    -0.08  -0.06  -0.02
  23   1    -0.01   0.02   0.02    -0.02  -0.01   0.01    -0.01  -0.00   0.00
  24   1     0.01   0.01   0.01    -0.01  -0.02   0.01    -0.02  -0.03  -0.01
  25   8    -0.13  -0.00   0.12     0.04  -0.04   0.02     0.06   0.01  -0.00
  26   1    -0.02   0.02   0.03     0.00  -0.01   0.01     0.01   0.02   0.00
  27   1    -0.02   0.02   0.03     0.01  -0.02   0.01     0.03   0.00   0.01
  28   8     0.14  -0.23   0.20     0.08  -0.07   0.05     0.16  -0.11  -0.12
  29   1     0.07  -0.10   0.07     0.03  -0.02   0.02     0.05  -0.05  -0.02
  30   1     0.01  -0.04   0.05     0.01  -0.01   0.01     0.03  -0.02  -0.02
  31   8     0.00   0.09   0.07     0.05   0.08   0.03    -0.01   0.18   0.20
  32   1     0.01   0.02   0.03     0.01   0.02   0.01    -0.01   0.04   0.04
  33   1     0.00   0.02   0.02     0.01   0.02  -0.01    -0.01   0.04   0.03
  34   8    -0.15   0.04  -0.08    -0.05   0.15  -0.22     0.13  -0.14   0.14
  35   1    -0.03   0.02  -0.02    -0.01   0.02  -0.05     0.04  -0.02   0.04
  36   1    -0.04  -0.01  -0.03    -0.01   0.05  -0.05     0.03  -0.03   0.04
  37   8    -0.14   0.00  -0.06    -0.04  -0.03   0.05     0.17  -0.18   0.12
  38   1    -0.04   0.01  -0.02    -0.01   0.02  -0.01     0.04  -0.05   0.03
  39   1    -0.04  -0.01  -0.01    -0.01  -0.00  -0.02     0.05  -0.04   0.03
  40   8    -0.04   0.12   0.11    -0.08  -0.06   0.08     0.03   0.08   0.03
  41   1    -0.02   0.03   0.03    -0.01  -0.02   0.03    -0.00   0.02   0.01
  42   1    -0.01   0.03   0.02    -0.02  -0.01   0.03     0.01   0.02   0.00
  43   8     0.01   0.15   0.07     0.07  -0.00  -0.01     0.14   0.05   0.04
  44   1     0.01   0.03   0.01     0.03  -0.01  -0.00     0.03   0.01  -0.01
  45   1    -0.00   0.04   0.02     0.01   0.00   0.00     0.03   0.03   0.02
  46   8     0.10  -0.01   0.19     0.08   0.06   0.04    -0.10   0.10  -0.01
  47   1     0.02   0.00   0.05     0.02   0.01   0.01    -0.01   0.02  -0.00
  48   1     0.03  -0.00   0.04     0.02   0.02   0.01    -0.03   0.02   0.00
  49   8     0.13  -0.09  -0.17     0.01  -0.03   0.11    -0.18   0.03  -0.12
  50   1     0.02  -0.03  -0.04     0.02  -0.02   0.02    -0.03  -0.01  -0.03
  51   1     0.04   0.00  -0.05     0.00   0.00   0.04    -0.04   0.02  -0.02
  52   8     0.13  -0.06  -0.19     0.16  -0.00   0.09     0.13  -0.09  -0.25
  53   1     0.03  -0.03  -0.02     0.03  -0.00   0.01     0.03  -0.03  -0.06
  54   1     0.03   0.01  -0.11     0.05  -0.02   0.06     0.03  -0.00  -0.11
  55   8     0.16  -0.02   0.03    -0.10  -0.04  -0.13    -0.14   0.08   0.12
  56   1     0.05   0.01   0.01    -0.03  -0.04  -0.03    -0.03   0.06   0.03
  57   1     0.04  -0.02  -0.01    -0.02  -0.01  -0.01    -0.04   0.02   0.01
  58   8     0.07  -0.05   0.18    -0.04   0.22  -0.22    -0.19   0.16  -0.03
  59   1     0.01   0.00   0.04    -0.01   0.04  -0.03    -0.04   0.02  -0.01
  60   1     0.00  -0.02   0.04    -0.00   0.07  -0.04    -0.05   0.05   0.03
  61   8     0.18   0.12  -0.04     0.03   0.15  -0.14    -0.16   0.19  -0.09
  62   1     0.04   0.04  -0.03     0.01   0.02  -0.03    -0.04   0.04  -0.02
  63   1     0.05   0.01   0.01    -0.01   0.06  -0.05    -0.05   0.05  -0.02
  64   8     0.13  -0.00  -0.22     0.12   0.06  -0.05    -0.13   0.09  -0.04
  65   1     0.01  -0.00  -0.04     0.04   0.02  -0.02    -0.02   0.01  -0.01
  66   1     0.03  -0.01  -0.08     0.03   0.02  -0.01    -0.03   0.03   0.01
  67   8    -0.06  -0.02   0.02    -0.17  -0.08  -0.09     0.02   0.06   0.11
  68   1    -0.01   0.01   0.00    -0.04  -0.02  -0.02     0.01   0.01   0.02
  69   1    -0.00  -0.01   0.01    -0.04  -0.01  -0.03    -0.01   0.01   0.03
  70   8    -0.11   0.10   0.07     0.01  -0.08   0.23    -0.03   0.04   0.02
  71   1    -0.02   0.02   0.02     0.02  -0.03   0.06     0.01   0.01   0.01
  72   1    -0.01   0.00   0.01     0.00  -0.01   0.04     0.01  -0.00  -0.01
  73   8     0.12  -0.01   0.09    -0.17  -0.04  -0.04    -0.12  -0.14   0.01
  74   1     0.01   0.00   0.02    -0.04  -0.01  -0.00    -0.01  -0.04   0.00
  75   1     0.04   0.01   0.01    -0.04  -0.02  -0.02    -0.05  -0.04   0.02
                     13                     14                     15
                        a                      a                      a 
 Frequencies --    57.9383                60.2480                61.3475
 Red. masses --    14.4531                14.3571                14.4836
 Frc consts  --     0.0000                 0.0000                 0.0000
 IR Inten    --     1.8037                 0.4742                 1.0484
 Raman Activ --     0.0000                 0.0000                 0.0000
 Depolar     --     0.0000                 0.0000                 0.0000
 Atom AN      X      Y      Z        X      Y      Z        X      Y      Z
   1   8     0.04   0.03   0.09     0.23  -0.13  -0.11     0.01  -0.01   0.05
   2   1     0.02   0.02   0.02     0.04  -0.05  -0.01    -0.00  -0.02  -0.00
   3   1     0.01  -0.00   0.02     0.05  -0.01  -0.03     0.01  -0.01   0.02
   4   8    -0.24   0.08   0.09    -0.05  -0.10  -0.09    -0.23   0.05   0.03
   5   1    -0.06   0.04   0.04    -0.05  -0.04   0.01    -0.05   0.04   0.01
   6   1    -0.03   0.02   0.03     0.02  -0.02  -0.02    -0.04   0.01   0.01
   7   8     0.10   0.19   0.08    -0.13  -0.04   0.03     0.08  -0.04  -0.21
   8   1     0.00   0.04   0.02    -0.03  -0.01   0.01     0.00  -0.00  -0.04
   9   1     0.03   0.03   0.02    -0.03  -0.01   0.01     0.03  -0.00  -0.03
  10   8    -0.21  -0.07  -0.00     0.10  -0.00   0.12     0.05  -0.09  -0.16
  11   1    -0.04  -0.02   0.00     0.02  -0.00   0.03     0.01  -0.02  -0.05
  12   1    -0.05  -0.01   0.02     0.02   0.00   0.01     0.01  -0.02  -0.04
  13   8     0.10   0.03   0.01    -0.11  -0.06   0.09     0.15   0.09  -0.06
  14   1     0.01   0.01  -0.00    -0.01  -0.00   0.01     0.02   0.01  -0.00
  15   1     0.03   0.01  -0.02    -0.03  -0.03   0.05     0.05   0.01  -0.03
  16   8     0.18   0.10   0.09     0.04  -0.20   0.09     0.04  -0.07  -0.14
  17   1     0.05   0.01   0.02    -0.00  -0.04   0.00     0.01   0.01  -0.02
  18   1     0.03   0.03   0.02    -0.00  -0.04   0.02     0.03  -0.01  -0.05
  19   8    -0.06  -0.23  -0.16    -0.20   0.18   0.03    -0.12  -0.02   0.10
  20   1    -0.03  -0.03  -0.00    -0.05   0.05   0.01    -0.04   0.00   0.03
  21   1    -0.00  -0.05  -0.06    -0.05   0.04  -0.00    -0.02   0.01   0.03
  22   8     0.09   0.04  -0.14     0.02  -0.02  -0.20    -0.03  -0.05  -0.04
  23   1     0.03   0.01  -0.03     0.01  -0.00  -0.04    -0.01   0.00  -0.01
  24   1     0.03   0.03  -0.02    -0.01  -0.01  -0.05    -0.00  -0.02  -0.02
  25   8     0.17   0.02  -0.18    -0.29   0.03  -0.11    -0.01   0.11   0.10
  26   1     0.02  -0.01  -0.04    -0.06   0.01  -0.03    -0.00  -0.01   0.02
  27   1     0.04  -0.01  -0.04    -0.07   0.01  -0.03    -0.01   0.04   0.01
  28   8     0.11   0.11   0.11    -0.04  -0.15   0.19    -0.08   0.17  -0.03
  29   1     0.08   0.04   0.05     0.02  -0.05   0.06    -0.05   0.05  -0.02
  30   1     0.03   0.02  -0.01    -0.04  -0.02   0.02    -0.02   0.04   0.00
  31   8    -0.12  -0.03   0.16    -0.01   0.01  -0.03     0.06   0.05  -0.14
  32   1    -0.03  -0.00   0.05     0.00   0.00   0.00     0.02   0.01  -0.03
  33   1    -0.02  -0.01   0.05     0.01   0.00   0.01     0.01   0.01  -0.03
  34   8     0.07   0.02  -0.14     0.01  -0.06   0.14    -0.09  -0.00   0.01
  35   1     0.02  -0.02  -0.03     0.01   0.00   0.04    -0.03   0.02  -0.00
  36   1     0.00  -0.00  -0.03     0.00  -0.02   0.03    -0.01  -0.01  -0.01
  37   8    -0.03   0.06   0.03     0.14   0.02  -0.25    -0.02  -0.13   0.05
  38   1    -0.00   0.02  -0.01     0.02  -0.01  -0.03    -0.01  -0.02   0.01
  39   1    -0.00   0.02  -0.00     0.04   0.01  -0.09    -0.01  -0.04   0.01
  40   8    -0.14  -0.16  -0.06    -0.10   0.01  -0.24    -0.05  -0.33   0.05
  41   1    -0.02  -0.03  -0.02    -0.02   0.00  -0.06     0.02  -0.07  -0.00
  42   1    -0.04  -0.03   0.00    -0.03   0.01  -0.06    -0.03  -0.06   0.03
  43   8     0.09  -0.15  -0.07    -0.06   0.05   0.03    -0.04   0.20  -0.01
  44   1     0.01  -0.03  -0.01    -0.01   0.01   0.01    -0.00   0.05   0.01
  45   1     0.01  -0.03  -0.00    -0.00  -0.00  -0.00    -0.01   0.03  -0.01
  46   8    -0.12  -0.05   0.17     0.07   0.02   0.12     0.13  -0.05  -0.10
  47   1    -0.03   0.02   0.05    -0.00  -0.01   0.03     0.03  -0.01  -0.02
  48   1    -0.03  -0.02   0.01     0.02   0.00   0.03     0.02  -0.02  -0.02
  49   8     0.04  -0.10   0.10     0.09  -0.01   0.11    -0.04  -0.09  -0.14
  50   1     0.03  -0.01   0.02     0.03  -0.02   0.03    -0.00  -0.04  -0.04
  51   1     0.01  -0.02   0.04     0.02   0.00   0.04    -0.01  -0.01  -0.02
  52   8    -0.10  -0.04  -0.08     0.06   0.01   0.06     0.09   0.26   0.20
  53   1    -0.01   0.01  -0.00     0.01  -0.01   0.03     0.01   0.06   0.04
  54   1    -0.05   0.01  -0.04     0.02  -0.00   0.02     0.04   0.04   0.09
  55   8    -0.08   0.02  -0.01     0.04   0.01  -0.01    -0.06   0.04   0.12
  56   1    -0.03   0.00  -0.00    -0.00  -0.01  -0.00    -0.00   0.04   0.03
  57   1    -0.01  -0.01   0.01     0.01   0.00   0.01    -0.02   0.00   0.00
  58   8    -0.05   0.06   0.18    -0.19   0.22   0.04    -0.15   0.04   0.14
  59   1     0.00   0.01   0.01    -0.03   0.04  -0.01    -0.03   0.00   0.02
  60   1    -0.01   0.02   0.05    -0.04   0.06   0.01    -0.04   0.01   0.04
  61   8     0.11   0.05   0.14     0.10   0.06   0.16     0.02   0.08   0.05
  62   1     0.02   0.02  -0.01     0.03   0.01   0.03     0.01   0.01   0.02
  63   1     0.01   0.01   0.04     0.00   0.03   0.03    -0.00   0.02   0.02
  64   8    -0.07  -0.03  -0.25     0.01   0.00  -0.03     0.06  -0.08  -0.00
  65   1    -0.02  -0.03  -0.05    -0.02   0.02  -0.00    -0.00  -0.02   0.01
  66   1    -0.02  -0.00  -0.06    -0.00  -0.01  -0.04     0.01  -0.02  -0.02
  67   8     0.16   0.07  -0.06     0.13   0.08  -0.08     0.03   0.10   0.04
  68   1     0.03   0.01  -0.01     0.02   0.01  -0.01     0.01   0.03   0.01
  69   1     0.03   0.01  -0.01     0.03   0.02  -0.02     0.00   0.01   0.02
  70   8    -0.02  -0.08  -0.08     0.09   0.01  -0.04     0.29  -0.14   0.02
  71   1    -0.00  -0.01  -0.01     0.04  -0.01  -0.01     0.06  -0.01   0.01
  72   1     0.00  -0.02  -0.03     0.03   0.00  -0.01     0.05  -0.01   0.01
  73   8    -0.05   0.05  -0.03     0.06   0.09  -0.01    -0.08  -0.10   0.06
  74   1    -0.01   0.01  -0.00     0.03   0.02  -0.02    -0.02  -0.03   0.02
  75   1    -0.02   0.01  -0.00     0.02   0.02  -0.01    -0.02  -0.02   0.02
                     16                     17                     18
                        a                      a                      a 
 Frequencies --    63.6380                66.0667                67.6723
 Red. masses --    14.2667                14.3687                14.3253
 Frc consts  --     0.0000                 0.0000                 0.0000
 IR Inten    --     1.8788                 1.2509                 1.4872
 Raman Activ --     0.0000                 0.0000                 0.0000
 Depolar     --     0.0000                 0.0000                 0.0000
 Atom AN      X      Y      Z        X      Y      Z        X      Y      Z
   1   8    -0.11   0.04  -0.05     0.09   0.04   0.03     0.03  -0.00  -0.10
   2   1    -0.02   0.02  -0.01     0.02   0.01   0.01     0.01   0.00  -0.02
   3   1    -0.03   0.00  -0.01     0.02   0.01   0.00     0.01  -0.00  -0.03
   4   8    -0.11  -0.17   0.08     0.03  -0.14   0.16    -0.14  -0.13   0.00
   5   1    -0.06  -0.08   0.03    -0.00  -0.06   0.04    -0.04  -0.04   0.01
   6   1    -0.03  -0.03   0.01     0.01  -0.02   0.03    -0.03  -0.02  -0.01
   7   8     0.19  -0.07   0.06    -0.10  -0.13   0.17     0.08  -0.03   0.04
   8   1     0.05  -0.03   0.01    -0.02  -0.03   0.04     0.01  -0.02   0.00
   9   1     0.04  -0.00   0.01    -0.02  -0.02   0.05     0.02   0.00   0.02
  10   8     0.09   0.11   0.19    -0.02  -0.09  -0.07    -0.15  -0.04   0.14
  11   1     0.02   0.03   0.05     0.00  -0.02  -0.03    -0.02  -0.00   0.01
  12   1     0.02   0.03   0.03    -0.00  -0.02   0.00    -0.04   0.01   0.06
  13   8    -0.00   0.27  -0.13    -0.16  -0.01   0.18     0.03   0.15   0.01
  14   1    -0.01   0.04  -0.01    -0.05   0.00   0.04     0.01   0.03   0.01
  15   1     0.00   0.07  -0.06    -0.03  -0.03   0.07     0.00   0.05  -0.01
  16   8    -0.01   0.14  -0.02     0.07  -0.00  -0.08     0.05   0.06  -0.03
  17   1    -0.01   0.04  -0.01     0.01   0.00  -0.03     0.02   0.01  -0.00
  18   1     0.01   0.02   0.01     0.01  -0.01  -0.00     0.02   0.01  -0.00
  19   8    -0.09   0.05  -0.06    -0.07  -0.07   0.20     0.10   0.16  -0.07
  20   1    -0.01   0.01  -0.01    -0.02  -0.02   0.04     0.01   0.04  -0.03
  21   1    -0.03   0.00  -0.02    -0.01  -0.01   0.05     0.03   0.06   0.00
  22   8     0.08  -0.13   0.14     0.07  -0.30  -0.26     0.05   0.01   0.08
  23   1     0.00  -0.02   0.02     0.03  -0.06  -0.06     0.00  -0.00   0.01
  24   1     0.04  -0.03   0.03     0.01  -0.05  -0.05     0.01  -0.01   0.01
  25   8    -0.05   0.07  -0.14     0.08   0.08   0.09     0.04   0.12   0.08
  26   1    -0.02   0.01  -0.03     0.01   0.02   0.03    -0.01   0.02   0.03
  27   1    -0.01   0.02  -0.04     0.03   0.02   0.03     0.02   0.03   0.03
  28   8     0.17  -0.10   0.06     0.02   0.11  -0.08     0.02   0.06  -0.25
  29   1     0.08  -0.04   0.03    -0.00   0.02  -0.02    -0.03   0.01  -0.08
  30   1     0.02  -0.01  -0.01     0.01   0.02  -0.00     0.00   0.02  -0.04
  31   8    -0.06  -0.02  -0.00     0.08  -0.01   0.05     0.02   0.03   0.22
  32   1    -0.02   0.01   0.01     0.02   0.00   0.01    -0.00  -0.01   0.02
  33   1    -0.01  -0.00  -0.00     0.02  -0.00   0.00    -0.01   0.01   0.06
  34   8    -0.02  -0.20   0.07    -0.01  -0.02  -0.03    -0.09  -0.09   0.05
  35   1    -0.00  -0.04   0.02     0.00   0.01  -0.01    -0.01  -0.01   0.03
  36   1     0.01  -0.03   0.02    -0.01  -0.02  -0.01    -0.04  -0.02   0.02
  37   8    -0.08  -0.10   0.03    -0.04   0.07  -0.10    -0.05   0.03  -0.21
  38   1    -0.01  -0.04   0.01    -0.01   0.01  -0.02    -0.02  -0.00  -0.03
  39   1    -0.01  -0.02   0.02    -0.00   0.03  -0.05    -0.01   0.01  -0.07
  40   8    -0.16  -0.13  -0.12    -0.03   0.04   0.16    -0.13  -0.08   0.14
  41   1    -0.02  -0.02  -0.03    -0.01   0.01   0.03    -0.03  -0.01   0.02
  42   1    -0.05  -0.02  -0.01    -0.00   0.00   0.04    -0.03  -0.02   0.03
  43   8    -0.02   0.00  -0.03     0.12   0.15   0.05     0.05   0.05   0.18
  44   1     0.01   0.00   0.01     0.03   0.04   0.01     0.01   0.01   0.04
  45   1    -0.01  -0.01  -0.01     0.02   0.03   0.01     0.01   0.02   0.05
  46   8    -0.06   0.14   0.10    -0.00   0.14  -0.04    -0.09  -0.34  -0.16
  47   1    -0.01   0.03   0.02     0.00   0.04  -0.01     0.00  -0.08  -0.04
  48   1    -0.01   0.04   0.03     0.00   0.04  -0.01    -0.02  -0.08  -0.03
  49   8     0.01   0.21  -0.03     0.06  -0.04  -0.10     0.03   0.08  -0.04
  50   1    -0.00   0.06  -0.01     0.02  -0.01  -0.03     0.01   0.02  -0.01
  51   1     0.00   0.03  -0.02     0.01  -0.01  -0.02     0.01   0.02  -0.00
  52   8     0.23  -0.04   0.11    -0.00   0.12  -0.16    -0.03  -0.06  -0.09
  53   1     0.05  -0.01   0.02     0.00   0.03  -0.03    -0.00  -0.01  -0.03
  54   1     0.07  -0.03   0.05    -0.00   0.06  -0.09    -0.02   0.02  -0.09
  55   8     0.11   0.03  -0.13    -0.03   0.05  -0.21     0.11  -0.05  -0.10
  56   1     0.04  -0.02  -0.03    -0.00  -0.00  -0.05     0.04  -0.03  -0.02
  57   1     0.02   0.03  -0.03    -0.00   0.01  -0.05     0.02  -0.00  -0.02
  58   8     0.15  -0.13  -0.03    -0.05  -0.24   0.05    -0.01   0.24  -0.10
  59   1     0.03  -0.04   0.01     0.00  -0.07  -0.02    -0.00   0.04  -0.01
  60   1     0.06  -0.03  -0.03    -0.01  -0.06   0.01     0.02   0.07  -0.03
  61   8    -0.04  -0.07  -0.06     0.02  -0.11  -0.02     0.01   0.03   0.12
  62   1    -0.02   0.00  -0.03     0.00  -0.02  -0.01     0.01  -0.00   0.05
  63   1     0.00  -0.03  -0.00     0.01  -0.04   0.01    -0.00   0.03   0.00
  64   8    -0.13   0.14  -0.07    -0.01   0.13   0.05     0.12  -0.30   0.13
  65   1    -0.03   0.03  -0.02    -0.01   0.01   0.02     0.03  -0.04   0.02
  66   1    -0.04   0.03  -0.01    -0.00   0.03   0.02     0.03  -0.06   0.02
  67   8    -0.14   0.05  -0.12     0.14   0.02  -0.15    -0.05  -0.06  -0.06
  68   1    -0.02   0.03  -0.03     0.02  -0.00  -0.02    -0.01  -0.00  -0.01
  69   1    -0.02   0.02  -0.03     0.04   0.01  -0.04    -0.00  -0.01  -0.02
  70   8     0.15  -0.03   0.02    -0.04   0.10   0.02    -0.03   0.05  -0.03
  71   1     0.02   0.01   0.00    -0.00   0.02   0.01    -0.01   0.01  -0.01
  72   1     0.04  -0.02   0.01    -0.00   0.02  -0.00     0.01  -0.01  -0.00
  73   8    -0.12  -0.05   0.11    -0.23   0.12   0.08     0.03   0.08   0.06
  74   1    -0.03  -0.01   0.02    -0.05   0.02   0.00     0.00   0.02   0.00
  75   1    -0.01  -0.01   0.01    -0.04   0.03   0.00     0.02   0.02   0.00
                     19                     20                     21
                        a                      a                      a 
 Frequencies --    72.0265                73.5748                74.6833
 Red. masses --    14.1025                14.5655                14.5189
 Frc consts  --     0.0000                 0.0000                 0.0000
 IR Inten    --     5.6558                 3.3621                 1.5603
 Raman Activ --     0.0000                 0.0000                 0.0000
 Depolar     --     0.0000                 0.0000                 0.0000
 Atom AN      X      Y      Z        X      Y      Z        X      Y      Z
   1   8     0.21  -0.06   0.14     0.07   0.04  -0.03     0.21  -0.02  -0.15
   2   1     0.04  -0.03   0.03     0.02   0.00  -0.02     0.04  -0.01  -0.03
   3   1     0.05  -0.03   0.03     0.03   0.01   0.00     0.05  -0.01  -0.05
   4   8    -0.03   0.19   0.02     0.10  -0.10   0.05    -0.30  -0.04  -0.08
   5   1     0.00   0.09   0.02     0.01  -0.05   0.02    -0.09  -0.00   0.01
   6   1     0.02   0.03   0.02     0.02  -0.01   0.00    -0.03  -0.01  -0.02
   7   8    -0.09   0.08  -0.08    -0.13  -0.15   0.04     0.06   0.06  -0.05
   8   1    -0.03   0.03  -0.01    -0.02  -0.03   0.01     0.00   0.01  -0.02
   9   1    -0.02   0.01  -0.02    -0.03  -0.03   0.01     0.02   0.01  -0.01
  10   8    -0.08   0.13   0.02    -0.01  -0.02   0.01     0.06   0.05  -0.05
  11   1    -0.00   0.03   0.00    -0.02   0.00  -0.01     0.01   0.01   0.01
  12   1    -0.02   0.04   0.02    -0.00  -0.01   0.00     0.02   0.00  -0.01
  13   8    -0.09  -0.09  -0.12    -0.22  -0.03   0.04     0.04   0.10  -0.10
  14   1    -0.02  -0.03  -0.02    -0.06  -0.01   0.01     0.02   0.01  -0.01
  15   1    -0.02  -0.02  -0.03    -0.05  -0.04   0.04     0.00   0.04  -0.04
  16   8     0.15  -0.15  -0.01    -0.04  -0.06  -0.09    -0.01  -0.07   0.11
  17   1     0.03  -0.02  -0.02    -0.01  -0.02  -0.03     0.01  -0.03   0.04
  18   1     0.02  -0.02  -0.01    -0.02  -0.02  -0.01    -0.00  -0.01   0.01
  19   8    -0.08   0.06  -0.02    -0.03  -0.04  -0.18     0.05  -0.07   0.02
  20   1    -0.01   0.01  -0.01     0.02  -0.01  -0.02     0.02  -0.03   0.00
  21   1    -0.03   0.01   0.01    -0.02  -0.02  -0.03     0.00  -0.03   0.00
  22   8    -0.12   0.15   0.09     0.25   0.26   0.14    -0.02   0.04   0.07
  23   1    -0.03   0.04   0.02     0.05   0.05   0.02    -0.01   0.02   0.01
  24   1    -0.03   0.02   0.01     0.06   0.04   0.02     0.00   0.01   0.01
  25   8    -0.06   0.08   0.07    -0.06  -0.02  -0.01    -0.02  -0.13   0.04
  26   1    -0.01   0.01   0.01    -0.01   0.00  -0.01    -0.02  -0.02   0.02
  27   1    -0.01   0.02   0.01    -0.01  -0.00  -0.00     0.01  -0.03   0.02
  28   8    -0.04   0.04  -0.04    -0.12   0.06   0.03    -0.16   0.02   0.10
  29   1    -0.00  -0.01  -0.00    -0.03   0.02   0.01    -0.03   0.01   0.03
  30   1    -0.01   0.01   0.00    -0.02   0.01   0.00    -0.03  -0.01   0.02
  31   8    -0.02  -0.19   0.10    -0.03   0.06   0.02     0.16   0.08   0.10
  32   1    -0.01  -0.04   0.02    -0.00  -0.00   0.00     0.04   0.02   0.02
  33   1     0.00  -0.05   0.03    -0.02   0.01   0.01     0.02   0.02   0.01
  34   8    -0.09   0.07  -0.01     0.10   0.15   0.03     0.09  -0.10  -0.16
  35   1    -0.02   0.03   0.00     0.02   0.04   0.01     0.04  -0.02  -0.03
  36   1    -0.02   0.02  -0.00     0.02   0.03   0.01     0.02  -0.01  -0.03
  37   8     0.05  -0.15   0.01     0.23  -0.09   0.12     0.16  -0.10  -0.26
  38   1    -0.00  -0.02   0.01     0.05  -0.01   0.02     0.03  -0.03  -0.05
  39   1     0.00  -0.05  -0.02     0.05  -0.03   0.03     0.04  -0.03  -0.07
  40   8     0.07  -0.09  -0.02     0.03   0.04  -0.06    -0.23   0.01   0.17
  41   1     0.02  -0.02  -0.01     0.01   0.01  -0.02    -0.05   0.01   0.03
  42   1     0.01  -0.02  -0.01     0.01   0.01  -0.01    -0.07   0.01   0.02
  43   8     0.04   0.13   0.10     0.03   0.07  -0.03     0.20  -0.00   0.03
  44   1     0.02   0.03   0.04     0.01   0.02  -0.01     0.03   0.00  -0.00
  45   1     0.00   0.01   0.02     0.01   0.02  -0.01     0.05   0.02   0.01
  46   8    -0.14   0.03   0.02     0.00  -0.16  -0.01     0.11   0.11   0.02
  47   1    -0.03   0.02   0.01    -0.01  -0.03   0.00    -0.00   0.02   0.01
  48   1    -0.03   0.01  -0.00    -0.01  -0.05  -0.02     0.02   0.02   0.00
  49   8     0.16   0.15  -0.01    -0.16   0.01  -0.09    -0.07  -0.06   0.14
  50   1     0.04   0.01  -0.00    -0.03  -0.00  -0.02    -0.03  -0.01   0.04
  51   1     0.03   0.01   0.01    -0.04   0.01  -0.01    -0.01  -0.01   0.02
  52   8    -0.07   0.06  -0.21    -0.02   0.15   0.04    -0.10   0.12  -0.02
  53   1    -0.01   0.01  -0.04    -0.01   0.03   0.01    -0.03   0.02  -0.00
  54   1    -0.03   0.07  -0.15     0.00   0.03   0.02    -0.02   0.03  -0.01
  55   8     0.16   0.17  -0.04    -0.11  -0.08  -0.07    -0.06  -0.09   0.17
  56   1     0.04   0.05  -0.01    -0.01  -0.04  -0.02    -0.02  -0.03   0.04
  57   1     0.04   0.04  -0.01    -0.04  -0.01  -0.02    -0.01  -0.02   0.05
  58   8     0.10  -0.14  -0.10     0.37  -0.02   0.18     0.13  -0.19  -0.02
  59   1     0.01  -0.00  -0.00     0.08   0.01   0.05     0.02  -0.03   0.00
  60   1     0.02  -0.06  -0.08     0.08  -0.01   0.04     0.02  -0.06  -0.00
  61   8     0.10  -0.32   0.16    -0.06   0.08   0.10    -0.14  -0.02  -0.13
  62   1     0.01  -0.05   0.01    -0.02   0.02   0.03    -0.03  -0.00  -0.02
  63   1     0.03  -0.08   0.04     0.01  -0.00   0.04    -0.02  -0.02  -0.02
  64   8    -0.12   0.06  -0.01    -0.08  -0.17  -0.09    -0.09   0.06   0.05
  65   1    -0.03   0.01  -0.00    -0.02  -0.03  -0.03    -0.01   0.01   0.01
  66   1    -0.03   0.01  -0.00    -0.02  -0.05  -0.02    -0.03   0.00   0.04
  67   8    -0.12   0.05   0.06     0.03   0.06  -0.16    -0.08   0.04   0.01
  68   1    -0.03   0.00   0.01     0.00   0.01  -0.04    -0.01   0.02  -0.00
  69   1    -0.02   0.03  -0.00    -0.01   0.00  -0.03    -0.03  -0.00   0.01
  70   8     0.08  -0.11  -0.03     0.07   0.05  -0.04    -0.09   0.22  -0.03
  71   1     0.03  -0.02   0.00     0.02   0.01  -0.01    -0.01   0.04  -0.01
  72   1     0.02  -0.02  -0.02     0.01   0.02  -0.01    -0.01   0.05  -0.01
  73   8     0.03  -0.16  -0.04    -0.21  -0.04   0.08     0.11  -0.02  -0.01
  74   1    -0.00  -0.04  -0.01    -0.02  -0.02   0.02     0.04  -0.01  -0.01
  75   1     0.02  -0.03  -0.01    -0.05  -0.03   0.01     0.02  -0.01   0.01
                     22                     23                     24
                        a                      a                      a 
 Frequencies --    82.8932                83.8286                86.1327
 Red. masses --    14.5127                14.4733                14.5058
 Frc consts  --     0.0000                 0.0000                 0.0000
 IR Inten    --     0.9650                 0.6407                 2.2338
 Raman Activ --     0.0000                 0.0000                 0.0000
 Depolar     --     0.0000                 0.0000                 0.0000
 Atom AN      X      Y      Z        X      Y      Z        X      Y      Z
   1   8     0.10   0.27   0.09     0.26   0.21   0.24     0.20  -0.06   0.02
   2   1     0.02   0.06   0.02     0.04   0.02   0.06     0.06  -0.01  -0.00
   3   1     0.01   0.05   0.01     0.04   0.04   0.04     0.06  -0.02   0.01
   4   8     0.08  -0.04   0.31     0.04   0.23   0.29    -0.12   0.09  -0.02
   5   1    -0.02  -0.06   0.10     0.00   0.07   0.10    -0.03   0.05   0.01
   6   1     0.03   0.01   0.06     0.05   0.05   0.08     0.00   0.01   0.00
   7   8     0.04  -0.15   0.07     0.06  -0.09  -0.16    -0.02   0.09  -0.01
   8   1     0.03  -0.02   0.03     0.01   0.01  -0.01    -0.01   0.02  -0.00
   9   1    -0.00  -0.04  -0.01     0.02  -0.01  -0.02     0.00   0.02   0.01
  10   8    -0.13  -0.04  -0.04     0.05   0.02  -0.04    -0.06   0.03   0.17
  11   1    -0.02  -0.01  -0.02     0.01   0.01  -0.01    -0.01   0.01   0.03
  12   1    -0.03  -0.00   0.01     0.01   0.01  -0.02    -0.02   0.02   0.03
  13   8    -0.21  -0.00  -0.26     0.22   0.11   0.14     0.04   0.00   0.05
  14   1    -0.02  -0.01  -0.05     0.03   0.03   0.03    -0.00  -0.00   0.01
  15   1    -0.06  -0.01  -0.03     0.06   0.02   0.01     0.01   0.01  -0.01
  16   8    -0.09   0.03   0.00     0.01  -0.16  -0.05     0.20  -0.10   0.00
  17   1    -0.02  -0.01  -0.00     0.00  -0.03  -0.01     0.05  -0.03  -0.00
  18   1    -0.03  -0.00   0.02     0.00  -0.03  -0.03     0.03  -0.01  -0.01
  19   8     0.03   0.05   0.11    -0.00   0.04  -0.04     0.04  -0.09   0.19
  20   1     0.00   0.01   0.01     0.01   0.01  -0.01     0.01  -0.03   0.04
  21   1     0.01   0.01   0.02    -0.01   0.00  -0.02     0.01  -0.02   0.05
  22   8     0.01  -0.23  -0.02     0.04  -0.02   0.09    -0.04   0.02   0.01
  23   1    -0.00  -0.02  -0.00     0.00  -0.02   0.02    -0.01  -0.00  -0.00
  24   1     0.02  -0.05  -0.01     0.01  -0.02   0.01    -0.01   0.01   0.00
  25   8    -0.04  -0.05  -0.09    -0.11  -0.08  -0.07     0.05   0.02  -0.02
  26   1    -0.01  -0.01  -0.02    -0.02  -0.01  -0.02     0.01  -0.00  -0.00
  27   1    -0.01  -0.02  -0.02    -0.03  -0.03  -0.01    -0.00  -0.00  -0.01
  28   8    -0.09   0.00   0.02    -0.11  -0.07   0.06     0.04   0.00  -0.01
  29   1    -0.02   0.01   0.01    -0.02  -0.02   0.02     0.00   0.01  -0.01
  30   1    -0.02  -0.00  -0.01    -0.03  -0.02   0.01     0.01   0.00  -0.01
  31   8    -0.05   0.02   0.05     0.09   0.08  -0.00    -0.28   0.04  -0.15
  32   1    -0.01   0.00   0.01     0.02   0.02  -0.01    -0.06   0.01  -0.03
  33   1    -0.01   0.00   0.01     0.02   0.02   0.00    -0.07   0.01  -0.05
  34   8    -0.00   0.04  -0.06    -0.10  -0.11   0.01    -0.05   0.06   0.17
  35   1    -0.00  -0.00  -0.02    -0.03  -0.03  -0.00    -0.02   0.02   0.03
  36   1    -0.00   0.00  -0.02    -0.02  -0.02   0.00    -0.01   0.01   0.04
  37   8     0.03  -0.11   0.11    -0.20   0.10  -0.10     0.14  -0.05  -0.07
  38   1     0.00  -0.01   0.01    -0.05   0.01  -0.00     0.01  -0.00   0.01
  39   1    -0.01  -0.05   0.06    -0.04   0.04  -0.05     0.03  -0.01  -0.06
  40   8    -0.02   0.04  -0.09     0.04   0.02  -0.15    -0.06   0.04   0.04
  41   1     0.00   0.02  -0.03     0.02   0.01  -0.04    -0.01   0.01   0.01
  42   1    -0.01   0.01   0.00     0.00   0.01  -0.01    -0.02   0.01   0.01
  43   8    -0.00  -0.10  -0.03    -0.04  -0.15   0.04    -0.25  -0.00  -0.13
  44   1    -0.01  -0.02  -0.01    -0.03  -0.03  -0.00    -0.05  -0.01  -0.04
  45   1    -0.00  -0.01  -0.00     0.00  -0.01   0.00    -0.06  -0.00  -0.03
  46   8    -0.05  -0.09   0.01     0.10   0.03  -0.02    -0.15  -0.15   0.02
  47   1    -0.01  -0.03   0.00     0.01  -0.00  -0.00    -0.01  -0.04   0.00
  48   1     0.00  -0.02   0.01     0.01   0.00  -0.00    -0.01  -0.03   0.01
  49   8     0.06  -0.02  -0.02    -0.07   0.02  -0.06     0.04   0.11   0.00
  50   1     0.00  -0.01  -0.00    -0.01  -0.01  -0.02     0.02   0.02  -0.00
  51   1     0.02   0.00  -0.01    -0.02   0.01  -0.01     0.01   0.02   0.00
  52   8    -0.11  -0.02  -0.01    -0.16  -0.11  -0.03     0.02  -0.03   0.05
  53   1    -0.02  -0.00   0.00    -0.03  -0.03   0.01     0.00  -0.01   0.01
  54   1    -0.03  -0.00   0.00    -0.05  -0.02  -0.01     0.01  -0.04   0.07
  55   8     0.09   0.06   0.21    -0.02  -0.08  -0.13     0.03   0.07  -0.10
  56   1     0.02   0.04   0.05     0.00  -0.04  -0.03     0.00   0.02  -0.03
  57   1     0.02   0.01   0.04    -0.01  -0.01  -0.03     0.01   0.02  -0.02
  58   8    -0.11   0.03  -0.02     0.07   0.01  -0.02     0.08  -0.24   0.10
  59   1    -0.02  -0.02  -0.01     0.01   0.00   0.01     0.01  -0.04   0.02
  60   1    -0.01   0.02   0.01     0.02   0.01  -0.01    -0.00  -0.07   0.04
  61   8     0.05   0.06  -0.08    -0.09   0.03  -0.00    -0.02   0.17  -0.34
  62   1     0.02   0.00  -0.01    -0.02   0.00   0.00     0.01   0.02  -0.05
  63   1     0.01   0.02  -0.02    -0.02   0.00  -0.00     0.01   0.01  -0.05
  64   8     0.19  -0.04   0.05    -0.08  -0.02   0.04     0.32  -0.05  -0.00
  65   1     0.04  -0.01   0.02    -0.01   0.00   0.00     0.07  -0.02   0.01
  66   1     0.05  -0.00  -0.01    -0.03  -0.02   0.02     0.09   0.00  -0.02
  67   8    -0.06   0.30  -0.09     0.01  -0.22   0.05    -0.02  -0.07   0.03
  68   1    -0.02   0.06  -0.02     0.02  -0.03   0.01    -0.00  -0.02   0.01
  69   1    -0.02   0.06  -0.01     0.01  -0.05   0.01     0.00  -0.01  -0.00
  70   8     0.07   0.15  -0.20     0.10   0.06  -0.17    -0.07   0.09  -0.01
  71   1     0.01   0.05  -0.04     0.04   0.03  -0.03     0.01   0.01   0.01
  72   1     0.02   0.03  -0.05     0.03   0.02  -0.06    -0.01   0.03  -0.02
  73   8     0.21  -0.16  -0.06    -0.13   0.11   0.08    -0.08   0.01   0.02
  74   1     0.04  -0.04  -0.00    -0.04   0.03   0.01    -0.01  -0.00  -0.01
  75   1     0.04  -0.03  -0.01    -0.02   0.03   0.01    -0.01   0.00  -0.00
                     25                     26                     27
                        a                      a                      a 
 Frequencies --    89.9150                92.2509                97.8925
 Red. masses --    14.6107                14.5175                14.6965
 Frc consts  --     0.0000                 0.0000                 0.0000
 IR Inten    --     1.8868                 1.7135                 2.3315
 Raman Activ --     0.0000                 0.0000                 0.0000
 Depolar     --     0.0000                 0.0000                 0.0000
 Atom AN      X      Y      Z        X      Y      Z        X      Y      Z
   1   8     0.11   0.11  -0.11     0.09  -0.04   0.13     0.00   0.10  -0.06
   2   1     0.04   0.04  -0.03     0.02  -0.01   0.03    -0.01   0.02  -0.02
   3   1     0.04   0.02  -0.01     0.01  -0.01   0.02    -0.00   0.02  -0.01
   4   8    -0.06  -0.06   0.02     0.01  -0.01   0.15    -0.00  -0.03   0.03
   5   1    -0.01  -0.02   0.00    -0.00   0.00   0.05     0.01  -0.01  -0.00
   6   1    -0.01  -0.00  -0.00     0.01  -0.00   0.04    -0.01   0.00   0.00
   7   8     0.05  -0.00   0.02    -0.10  -0.07   0.03     0.06  -0.11  -0.11
   8   1     0.01  -0.01   0.00    -0.02  -0.01   0.01     0.02  -0.02  -0.02
   9   1     0.01  -0.00   0.01    -0.03  -0.02   0.00     0.02  -0.02  -0.02
  10   8     0.07   0.04  -0.16     0.10  -0.07   0.06     0.09   0.10   0.06
  11   1     0.00   0.01  -0.04     0.02  -0.02   0.01     0.01   0.02   0.03
  12   1     0.02  -0.01  -0.05     0.01  -0.01  -0.01     0.02   0.01  -0.01
  13   8     0.01   0.03  -0.04    -0.19  -0.06  -0.06     0.13   0.08   0.04
  14   1    -0.01  -0.00  -0.00    -0.00  -0.00  -0.02     0.01   0.01   0.01
  15   1     0.01   0.00  -0.02    -0.06   0.00   0.03     0.04   0.01  -0.01
  16   8     0.05   0.04  -0.03     0.13  -0.12  -0.06    -0.14  -0.04   0.01
  17   1     0.02  -0.01   0.01     0.03  -0.03  -0.02    -0.03  -0.02   0.01
  18   1     0.01   0.01  -0.01     0.02  -0.02  -0.01    -0.03  -0.01   0.00
  19   8    -0.02  -0.02  -0.09     0.08  -0.16  -0.15     0.20  -0.10  -0.11
  20   1    -0.01   0.00  -0.01     0.01  -0.03  -0.02     0.04  -0.01  -0.02
  21   1     0.00   0.01  -0.01     0.03  -0.03  -0.04     0.05  -0.02  -0.03
  22   8     0.02  -0.01   0.00     0.04   0.11   0.02    -0.01  -0.08   0.01
  23   1     0.01   0.00  -0.00     0.01   0.03   0.00    -0.00  -0.02   0.00
  24   1     0.01  -0.00  -0.00     0.01   0.01  -0.01    -0.00  -0.03  -0.00
  25   8     0.11   0.11   0.14     0.18   0.02   0.04     0.01  -0.24   0.14
  26   1     0.01   0.02   0.04     0.04  -0.00   0.01     0.00  -0.05   0.03
  27   1     0.01   0.00   0.04     0.03  -0.00   0.00     0.01  -0.04   0.02
  28   8     0.19  -0.05  -0.05     0.13   0.07  -0.02    -0.18  -0.08   0.11
  29   1     0.02  -0.02  -0.02     0.03   0.02  -0.01    -0.04  -0.02   0.03
  30   1     0.04  -0.00   0.01     0.03   0.01   0.00    -0.03  -0.03   0.03
  31   8     0.06  -0.10  -0.14    -0.13   0.04  -0.25    -0.21  -0.24  -0.16
  32   1     0.01  -0.01  -0.04    -0.02   0.01  -0.05    -0.05  -0.04  -0.02
  33   1     0.03  -0.02  -0.02    -0.03   0.01  -0.05    -0.03  -0.06  -0.03
  34   8    -0.16   0.27   0.17    -0.08  -0.21   0.09     0.11  -0.07  -0.06
  35   1    -0.05   0.06   0.04    -0.03  -0.03   0.01     0.02  -0.01  -0.02
  36   1    -0.03   0.05   0.03    -0.01  -0.05   0.02     0.04  -0.00  -0.01
  37   8     0.20  -0.12  -0.04    -0.21   0.13  -0.16     0.06  -0.04   0.03
  38   1     0.02   0.00   0.01    -0.05   0.01  -0.01     0.02  -0.02   0.00
  39   1     0.03  -0.06  -0.04    -0.04   0.05  -0.06     0.02  -0.01   0.02
  40   8    -0.04  -0.02   0.22    -0.00   0.00   0.16    -0.01   0.03   0.24
  41   1    -0.01   0.00   0.02    -0.00  -0.00   0.04     0.01   0.01   0.05
  42   1    -0.01  -0.01   0.05     0.00  -0.00   0.05    -0.01   0.02   0.05
  43   8    -0.28  -0.13   0.15    -0.15   0.06  -0.18     0.01   0.07  -0.21
  44   1    -0.06  -0.04   0.02    -0.03   0.01  -0.04     0.01   0.02  -0.04
  45   1    -0.05  -0.03   0.02    -0.04   0.01  -0.04    -0.01  -0.00  -0.05
  46   8     0.09   0.13  -0.04     0.01   0.04  -0.02    -0.19  -0.02   0.09
  47   1     0.04   0.04  -0.01     0.02   0.02  -0.01    -0.05  -0.00   0.02
  48   1     0.01   0.03  -0.01    -0.02  -0.00  -0.00    -0.03   0.00   0.01
  49   8    -0.05  -0.06  -0.02    -0.02   0.00  -0.04     0.05   0.08   0.00
  50   1    -0.00  -0.01  -0.01     0.00  -0.02  -0.01     0.01   0.01   0.00
  51   1    -0.01  -0.01   0.01    -0.00   0.01   0.00     0.01  -0.00   0.01
  52   8    -0.04  -0.36   0.07     0.10   0.06  -0.03     0.03   0.21  -0.07
  53   1     0.00  -0.07   0.01     0.02   0.01  -0.01    -0.01   0.03  -0.01
  54   1    -0.03  -0.09   0.04     0.03  -0.01   0.03     0.03   0.04  -0.02
  55   8    -0.09  -0.02   0.03     0.13  -0.06   0.12     0.03   0.06  -0.12
  56   1    -0.01  -0.00   0.01     0.04  -0.02   0.03     0.01   0.00  -0.03
  57   1    -0.02  -0.01   0.00     0.03  -0.01   0.02     0.00   0.02  -0.02
  58   8    -0.03   0.08  -0.00     0.03   0.06   0.05    -0.15   0.23  -0.04
  59   1    -0.01   0.01   0.00     0.01   0.02   0.01    -0.03   0.04  -0.01
  60   1     0.00   0.03  -0.01    -0.00   0.01   0.03    -0.03   0.07   0.01
  61   8     0.08  -0.10   0.16    -0.14   0.02   0.08     0.17  -0.09   0.19
  62   1     0.01  -0.02   0.02    -0.04   0.01   0.02     0.04  -0.01   0.03
  63   1     0.01  -0.01   0.03    -0.03   0.01   0.02     0.02   0.01   0.02
  64   8    -0.10   0.09  -0.09    -0.27  -0.04   0.04     0.05   0.05  -0.06
  65   1    -0.02   0.01  -0.02    -0.03  -0.02  -0.01     0.02  -0.00  -0.02
  66   1    -0.02   0.03  -0.02    -0.07  -0.03   0.06     0.02   0.05  -0.02
  67   8     0.00   0.04  -0.03    -0.01   0.14  -0.07     0.01  -0.07   0.03
  68   1     0.00   0.01  -0.01    -0.02   0.02  -0.01     0.01  -0.01   0.00
  69   1    -0.01   0.00  -0.00    -0.01   0.03  -0.01     0.01  -0.01   0.00
  70   8    -0.08   0.17  -0.17    -0.05   0.03   0.10     0.01   0.20  -0.02
  71   1    -0.03   0.04  -0.05     0.01   0.00   0.04     0.00   0.06   0.00
  72   1     0.00   0.01  -0.04    -0.01   0.02   0.00     0.00   0.06  -0.01
  73   8    -0.09  -0.06   0.03     0.32   0.06  -0.08    -0.13   0.01   0.05
  74   1     0.01  -0.02  -0.00     0.04   0.02  -0.01    -0.02  -0.00   0.00
  75   1    -0.03  -0.03   0.01     0.08   0.03  -0.01    -0.02  -0.00   0.00
                     28                     29                     30
                        a                      a                      a 
 Frequencies --   115.8051               131.6001               140.2234
 Red. masses --    13.7636                12.1400                13.9734
 Frc consts  --     0.0000                 0.0000                 0.0000
 IR Inten    --     2.0631                 2.2921                 2.1779
 Raman Activ --     0.0000                 0.0000                 0.0000
 Depolar     --     0.0000                 0.0000                 0.0000
 Atom AN      X      Y      Z        X      Y      Z        X      Y      Z
   1   8     0.01  -0.01  -0.01     0.06   0.04   0.08    -0.05  -0.00  -0.02
   2   1     0.01   0.00  -0.00     0.01   0.00   0.02    -0.02  -0.01  -0.01
   3   1     0.01  -0.01   0.00     0.01   0.01   0.01    -0.01   0.01  -0.00
   4   8     0.01   0.02  -0.02     0.08   0.08   0.06    -0.13   0.23  -0.22
   5   1     0.01   0.01  -0.01     0.08   0.08  -0.02     0.04   0.15  -0.08
   6   1     0.00   0.00  -0.00     0.01   0.01   0.02    -0.03   0.03  -0.04
   7   8     0.06   0.11   0.10    -0.03  -0.05  -0.06    -0.05  -0.06  -0.09
   8   1     0.02   0.02   0.02    -0.01  -0.01  -0.01    -0.02  -0.02  -0.02
   9   1     0.01   0.02   0.02    -0.01  -0.01  -0.01    -0.01  -0.02  -0.02
  10   8    -0.25  -0.29  -0.02     0.06   0.06   0.02    -0.29  -0.01   0.29
  11   1    -0.00  -0.06  -0.04     0.01   0.01   0.02    -0.05   0.00   0.05
  12   1    -0.07  -0.02   0.05     0.02   0.00  -0.00    -0.07   0.02   0.10
  13   8     0.05   0.04  -0.01    -0.01  -0.01   0.01    -0.12  -0.08   0.01
  14   1    -0.00   0.00   0.00    -0.00  -0.00  -0.00    -0.03  -0.02  -0.00
  15   1     0.01   0.01  -0.03    -0.01   0.00  -0.00    -0.03  -0.04   0.02
  16   8     0.03   0.06   0.09    -0.00  -0.04  -0.03    -0.04  -0.11   0.02
  17   1     0.01   0.00   0.02    -0.00   0.00  -0.00    -0.01  -0.03   0.01
  18   1     0.00   0.01   0.03     0.00  -0.01  -0.01    -0.01  -0.02  -0.00
  19   8     0.04  -0.06  -0.07    -0.12   0.12   0.03     0.14  -0.04  -0.09
  20   1     0.01  -0.02  -0.02    -0.02   0.02   0.00     0.03  -0.00  -0.02
  21   1     0.01  -0.02  -0.02    -0.03   0.03   0.03     0.04  -0.01  -0.03
  22   8    -0.03  -0.04   0.01    -0.00   0.00  -0.01     0.08  -0.38   0.09
  23   1    -0.00  -0.01   0.01    -0.00   0.00  -0.00     0.01  -0.07   0.02
  24   1    -0.01   0.00   0.01    -0.00  -0.01  -0.01     0.03  -0.10   0.01
  25   8    -0.08  -0.11   0.03    -0.00   0.07   0.10     0.05  -0.01  -0.07
  26   1    -0.01  -0.02   0.00     0.00   0.01   0.02     0.01  -0.00  -0.02
  27   1    -0.01  -0.02   0.00     0.00   0.03   0.02     0.01  -0.01  -0.02
  28   8    -0.10  -0.11   0.06     0.10  -0.02  -0.00     0.04   0.07  -0.07
  29   1    -0.03  -0.03   0.01     0.06  -0.04   0.02    -0.03   0.04  -0.03
  30   1    -0.02  -0.03   0.02     0.01   0.01  -0.00     0.02   0.01  -0.01
  31   8     0.02   0.26  -0.07    -0.00  -0.00   0.09     0.07   0.09  -0.08
  32   1     0.01   0.05  -0.02     0.00  -0.01   0.02     0.02   0.02  -0.02
  33   1    -0.00   0.06  -0.00    -0.01  -0.00   0.02     0.02   0.03   0.01
  34   8     0.03   0.08   0.02     0.09  -0.11  -0.13    -0.04   0.08   0.06
  35   1     0.01   0.02   0.00     0.03  -0.02  -0.03    -0.00   0.01   0.03
  36   1    -0.01  -0.02  -0.00     0.02  -0.01  -0.03    -0.03   0.01   0.02
  37   8     0.13  -0.09   0.09    -0.02   0.02  -0.03    -0.09   0.08   0.03
  38   1     0.03  -0.01   0.01     0.01  -0.01  -0.01    -0.02   0.02   0.00
  39   1     0.02  -0.04   0.03     0.01   0.02  -0.01    -0.02   0.02   0.00
  40   8     0.00  -0.02   0.02     0.05  -0.14   0.05    -0.01   0.02  -0.07
  41   1    -0.00  -0.00  -0.00    -0.01  -0.03  -0.04     0.01   0.01  -0.02
  42   1    -0.00  -0.00  -0.00     0.02  -0.05   0.03    -0.01   0.02  -0.01
  43   8    -0.05   0.04  -0.09     0.12   0.14  -0.02    -0.03   0.04  -0.06
  44   1    -0.02   0.00  -0.04     0.04   0.02  -0.03    -0.01   0.01  -0.03
  45   1    -0.01   0.03  -0.02     0.03   0.04  -0.00    -0.00   0.02  -0.02
  46   8     0.15   0.06  -0.06    -0.11  -0.07  -0.02     0.27   0.08  -0.03
  47   1     0.02  -0.01  -0.02    -0.02  -0.02  -0.01     0.07   0.02  -0.01
  48   1     0.01   0.01   0.00    -0.02  -0.01  -0.00     0.05   0.01  -0.01
  49   8     0.33  -0.04  -0.02    -0.03   0.00   0.01    -0.05   0.08   0.12
  50   1     0.07  -0.00  -0.00    -0.01  -0.01   0.00    -0.01   0.01   0.03
  51   1     0.09   0.01  -0.02    -0.01  -0.01   0.00    -0.01   0.02   0.03
  52   8     0.03   0.04   0.09     0.18   0.08   0.23     0.06   0.07  -0.03
  53   1    -0.01  -0.00   0.01     0.02   0.02   0.00     0.01   0.01  -0.00
  54   1     0.04  -0.06   0.13     0.10  -0.14   0.34     0.02  -0.00   0.03
  55   8     0.18   0.23  -0.24    -0.02  -0.03   0.04    -0.05  -0.09   0.14
  56   1     0.02   0.09  -0.06     0.00  -0.03   0.01    -0.00  -0.06   0.04
  57   1     0.06   0.03  -0.05    -0.01  -0.00   0.01    -0.02  -0.01   0.04
  58   8    -0.03   0.03  -0.08     0.02  -0.02  -0.02     0.10  -0.06  -0.04
  59   1    -0.01   0.00  -0.01     0.00  -0.00  -0.00     0.03  -0.04   0.01
  60   1    -0.01   0.01  -0.01     0.02  -0.01  -0.03     0.06   0.00  -0.03
  61   8    -0.08   0.01   0.02     0.03  -0.04   0.04     0.13  -0.08   0.22
  62   1    -0.03   0.03  -0.01     0.01  -0.01   0.01     0.03  -0.01   0.04
  63   1    -0.01   0.00   0.00     0.01  -0.01   0.01     0.03  -0.01   0.05
  64   8    -0.31  -0.12   0.19     0.04   0.01  -0.07     0.09   0.02  -0.04
  65   1    -0.04  -0.02   0.02    -0.01   0.01  -0.01     0.03   0.00  -0.01
  66   1    -0.10  -0.11   0.14     0.02   0.02  -0.06     0.03   0.02  -0.02
  67   8     0.00  -0.00   0.03    -0.00  -0.00  -0.00    -0.05   0.00  -0.03
  68   1     0.00  -0.00   0.01    -0.00  -0.00   0.00    -0.01   0.00  -0.01
  69   1     0.02   0.02  -0.01    -0.00  -0.00   0.00    -0.02  -0.00  -0.00
  70   8    -0.12  -0.00  -0.08    -0.50  -0.08  -0.39     0.01   0.08  -0.08
  71   1    -0.02  -0.00  -0.02    -0.10  -0.03  -0.09     0.01   0.02  -0.02
  72   1    -0.05   0.02  -0.02    -0.16   0.02  -0.10     0.00   0.02  -0.03
  73   8    -0.06  -0.04   0.02     0.00   0.01  -0.00    -0.07  -0.01   0.03
  74   1    -0.01  -0.01  -0.00    -0.00   0.00  -0.00    -0.02  -0.00   0.01
  75   1     0.01  -0.01  -0.02    -0.00   0.00   0.00    -0.02  -0.00   0.01
                     31                     32                     33
                        a                      a                      a 
 Frequencies --   141.9576               145.0535               146.3618
 Red. masses --    13.3227                13.3624                10.8974
 Frc consts  --     0.0000                 0.0000                 0.0000
 IR Inten    --    11.9547                 7.8642                13.1044
 Raman Activ --     0.0000                 0.0000                 0.0000
 Depolar     --     0.0000                 0.0000                 0.0000
 Atom AN      X      Y      Z        X      Y      Z        X      Y      Z
   1   8     0.06  -0.01   0.05     0.06   0.01   0.02     0.04   0.00   0.01
   2   1     0.02   0.00   0.01     0.02  -0.00  -0.01     0.01   0.00   0.00
   3   1     0.01  -0.01   0.01     0.01  -0.01   0.01     0.01   0.00   0.00
   4   8     0.09  -0.17   0.20    -0.02   0.29  -0.11     0.02   0.03   0.03
   5   1    -0.04  -0.12   0.08     0.10   0.20  -0.08     0.01   0.01   0.01
   6   1     0.03  -0.02   0.04    -0.01   0.04  -0.01     0.01   0.01   0.01
   7   8     0.03   0.08   0.12    -0.01   0.20   0.28     0.07   0.06   0.03
   8   1     0.01   0.02   0.03    -0.02   0.02   0.05     0.02   0.01   0.01
   9   1     0.01   0.02   0.03    -0.00   0.04   0.07     0.02   0.00  -0.00
  10   8    -0.31  -0.09   0.21     0.11  -0.07  -0.13    -0.17  -0.10   0.09
  11   1    -0.06  -0.01   0.00     0.00  -0.01  -0.05    -0.05  -0.02   0.01
  12   1    -0.07  -0.01   0.09     0.03  -0.03  -0.04    -0.04  -0.03   0.04
  13   8     0.08   0.10  -0.03    -0.10   0.02  -0.00     0.02  -0.09  -0.03
  14   1     0.03   0.02   0.00    -0.01   0.00   0.01    -0.02  -0.01  -0.02
  15   1     0.01   0.07  -0.05    -0.05   0.07  -0.05     0.02  -0.06   0.01
  16   8     0.04   0.08  -0.02     0.12   0.15  -0.08     0.03   0.06   0.00
  17   1     0.01   0.02  -0.00     0.03   0.03  -0.03     0.01   0.02   0.00
  18   1     0.01   0.02   0.00     0.02   0.03  -0.01     0.01   0.01   0.00
  19   8     0.02  -0.03   0.01    -0.02   0.12  -0.05    -0.10   0.04   0.07
  20   1     0.01  -0.01   0.01     0.01   0.02  -0.01    -0.03   0.01   0.01
  21   1     0.00  -0.01  -0.00    -0.02   0.02  -0.00    -0.02   0.01   0.02
  22   8    -0.04   0.24  -0.19     0.16  -0.35   0.12    -0.07   0.07   0.21
  23   1     0.00   0.02  -0.05     0.03  -0.07   0.02    -0.02   0.06   0.06
  24   1    -0.03   0.08  -0.03     0.05  -0.07   0.03    -0.00   0.01   0.04
  25   8    -0.07  -0.07   0.02    -0.11  -0.07   0.06    -0.03  -0.03   0.05
  26   1    -0.01  -0.01   0.00    -0.02  -0.01   0.01    -0.01  -0.01   0.01
  27   1    -0.01   0.00  -0.00    -0.02  -0.00   0.01    -0.00   0.00   0.01
  28   8    -0.09  -0.05  -0.03    -0.13  -0.15   0.10    -0.06  -0.03  -0.03
  29   1    -0.07   0.01  -0.03    -0.00  -0.06   0.04    -0.06   0.01  -0.03
  30   1    -0.01  -0.02   0.01    -0.04  -0.04   0.02    -0.01  -0.01   0.01
  31   8     0.08  -0.12  -0.16    -0.02  -0.04  -0.03     0.03  -0.17  -0.12
  32   1     0.03  -0.03  -0.02    -0.00  -0.01  -0.01     0.01  -0.03  -0.01
  33   1     0.02  -0.03  -0.04    -0.00  -0.01  -0.00     0.00  -0.04  -0.05
  34   8     0.00  -0.04  -0.04     0.04  -0.08  -0.03     0.09  -0.00  -0.07
  35   1     0.02  -0.01   0.01     0.01  -0.02  -0.01     0.03  -0.01  -0.01
  36   1    -0.02  -0.01   0.00     0.02  -0.02  -0.01     0.00  -0.00  -0.01
  37   8     0.04  -0.06  -0.05     0.09  -0.04  -0.10     0.05   0.05  -0.05
  38   1     0.01  -0.01  -0.01     0.02  -0.01  -0.01     0.02   0.01  -0.01
  39   1     0.01  -0.02  -0.02     0.02  -0.01  -0.05     0.02   0.03  -0.03
  40   8     0.01  -0.01  -0.01     0.00  -0.04   0.09     0.01  -0.02   0.06
  41   1    -0.01  -0.01   0.00     0.01  -0.01   0.03     0.00  -0.01   0.02
  42   1     0.01  -0.01  -0.01    -0.01  -0.00   0.03     0.00  -0.01   0.01
  43   8     0.01   0.04  -0.01     0.01  -0.03   0.00     0.04  -0.03  -0.01
  44   1     0.00   0.01  -0.00    -0.00  -0.00   0.01     0.01  -0.00   0.00
  45   1     0.02  -0.00  -0.01     0.00  -0.01   0.00     0.02  -0.02  -0.01
  46   8     0.29   0.09  -0.02    -0.08  -0.04  -0.02     0.15   0.05   0.01
  47   1     0.06   0.02  -0.00    -0.04  -0.02  -0.00     0.03   0.01   0.00
  48   1     0.06   0.02  -0.01    -0.01  -0.01  -0.00     0.03   0.01   0.00
  49   8    -0.24   0.21  -0.13    -0.20   0.07  -0.28    -0.10   0.07  -0.07
  50   1    -0.04   0.04  -0.04    -0.03   0.02  -0.08    -0.02   0.02  -0.02
  51   1    -0.07   0.03  -0.01    -0.06   0.01  -0.05    -0.03   0.02  -0.02
  52   8     0.02   0.02   0.01    -0.07  -0.04   0.01    -0.02  -0.04  -0.00
  53   1    -0.00  -0.01   0.00    -0.02  -0.02   0.00    -0.01  -0.01  -0.00
  54   1     0.02  -0.01   0.02    -0.01  -0.00  -0.02    -0.00  -0.01  -0.00
  55   8    -0.12   0.08   0.09    -0.02   0.05   0.01     0.17  -0.27  -0.16
  56   1    -0.10   0.19   0.02    -0.02   0.12   0.00     0.25  -0.44  -0.02
  57   1    -0.04   0.02  -0.01    -0.01   0.01  -0.04     0.01  -0.00  -0.02
  58   8    -0.02   0.00  -0.01     0.07   0.06   0.05    -0.12   0.07   0.01
  59   1    -0.01   0.03  -0.02     0.03  -0.03   0.02    -0.04   0.01   0.02
  60   1    -0.02  -0.02  -0.01     0.05   0.04   0.03    -0.03   0.02   0.01
  61   8     0.01  -0.11   0.07    -0.02   0.06   0.06    -0.09  -0.04  -0.11
  62   1     0.01  -0.04   0.02    -0.00   0.01   0.03    -0.01  -0.03  -0.01
  63   1    -0.00  -0.02   0.02    -0.01   0.02   0.01    -0.03  -0.00  -0.03
  64   8     0.15   0.08  -0.10     0.03   0.02  -0.03     0.04   0.04  -0.05
  65   1     0.02   0.01  -0.01    -0.00   0.01  -0.01    -0.01   0.01  -0.00
  66   1     0.05   0.06  -0.07     0.02   0.04  -0.04     0.02   0.04  -0.05
  67   8    -0.04  -0.18  -0.03     0.01  -0.00  -0.05     0.15   0.37   0.14
  68   1    -0.01  -0.03   0.00    -0.01  -0.01  -0.01     0.03   0.04   0.02
  69   1    -0.01  -0.07   0.01    -0.01  -0.01  -0.01     0.03   0.14   0.01
  70   8    -0.09  -0.09   0.04    -0.03  -0.14   0.15    -0.03  -0.06   0.05
  71   1    -0.01  -0.03   0.01    -0.00  -0.04   0.04    -0.01  -0.02   0.01
  72   1    -0.03  -0.01   0.01    -0.02  -0.02   0.04    -0.01  -0.01   0.01
  73   8     0.12  -0.01  -0.00     0.12   0.02  -0.00    -0.15   0.03  -0.08
  74   1     0.03  -0.00   0.00     0.04   0.00  -0.01    -0.03   0.01  -0.02
  75   1     0.03  -0.01   0.00     0.03  -0.00  -0.00    -0.06   0.02   0.00
                     34                     35                     36
                        a                      a                      a 
 Frequencies --   151.1664               165.0370               166.6869
 Red. masses --    13.6943                10.8780                13.6578
 Frc consts  --     0.0000                 0.0000                 0.0000
 IR Inten    --     5.3427                 6.6369                 2.0491
 Raman Activ --     0.0000                 0.0000                 0.0000
 Depolar     --     0.0000                 0.0000                 0.0000
 Atom AN      X      Y      Z        X      Y      Z        X      Y      Z
   1   8    -0.01   0.00  -0.01    -0.01  -0.04  -0.02    -0.04  -0.20  -0.02
   2   1    -0.01  -0.01   0.00     0.00  -0.00  -0.00    -0.00  -0.04  -0.00
   3   1    -0.01   0.00  -0.01    -0.00  -0.01  -0.00    -0.00  -0.04  -0.00
   4   8     0.04   0.06  -0.02     0.15  -0.08   0.01    -0.01  -0.09  -0.22
   5   1     0.08   0.09  -0.05     0.13   0.06  -0.07    -0.03  -0.05  -0.04
   6   1    -0.01   0.00   0.00     0.01  -0.02   0.01    -0.01  -0.03  -0.05
   7   8    -0.05  -0.11  -0.08    -0.08  -0.02   0.10    -0.00   0.08   0.14
   8   1    -0.01  -0.03  -0.02    -0.01  -0.03   0.01    -0.00  -0.00   0.01
   9   1    -0.01  -0.02  -0.01    -0.02   0.01   0.04    -0.00   0.03   0.04
  10   8    -0.14  -0.02   0.11    -0.03  -0.01   0.04     0.02  -0.03  -0.05
  11   1    -0.01  -0.01   0.03     0.00   0.00   0.00    -0.01  -0.00  -0.02
  12   1    -0.04   0.01   0.05    -0.01   0.01   0.01     0.01  -0.02  -0.01
  13   8    -0.00   0.02   0.06    -0.00   0.09  -0.17    -0.02   0.02   0.01
  14   1     0.01   0.01   0.01     0.00  -0.00  -0.02     0.01   0.01   0.00
  15   1    -0.01   0.01   0.02    -0.06   0.21  -0.24    -0.01   0.02  -0.00
  16   8    -0.09  -0.11   0.06     0.05  -0.02  -0.03     0.36  -0.14   0.01
  17   1    -0.02  -0.02   0.02     0.02  -0.03  -0.01     0.08  -0.02  -0.01
  18   1    -0.02  -0.02   0.01    -0.00  -0.00  -0.00     0.07  -0.02   0.00
  19   8    -0.33   0.33   0.07    -0.07   0.04   0.06    -0.02  -0.00   0.02
  20   1    -0.07   0.07   0.00    -0.02   0.01   0.01    -0.00  -0.00   0.01
[...]
  70   8    -0.00  -0.00   0.00    -0.00   0.00  -0.00     0.00   0.00   0.00
  71   1     0.00   0.01  -0.01    -0.00  -0.00   0.00     0.00   0.00  -0.00
  72   1    -0.00  -0.00  -0.00     0.00   0.00   0.00    -0.01  -0.01  -0.01
  73   8    -0.00   0.00  -0.00    -0.00  -0.00  -0.00     0.00   0.00   0.00
  74   1     0.00   0.00   0.00     0.00   0.00  -0.00    -0.00  -0.00   0.00
  75   1     0.01  -0.00   0.01     0.00  -0.00   0.00    -0.00   0.00  -0.00
                    211                    212                    213
                        a                      a                      a 
 Frequencies --  3555.1202              3675.9872              3678.6639
 Red. masses --     1.8016                 1.8358                 1.8369
 Frc consts  --     0.0000                 0.0000                 0.0000
 IR Inten    --   174.6614                13.5697                16.1544
 Raman Activ --     0.0000                 0.0000                 0.0000
 Depolar     --     0.0000                 0.0000                 0.0000
 Atom AN      X      Y      Z        X      Y      Z        X      Y      Z
   1   8     0.00   0.00  -0.00     0.00   0.00  -0.00     0.00  -0.00   0.00
   2   1     0.00  -0.00   0.00     0.00  -0.00   0.00    -0.00   0.00  -0.00
   3   1    -0.00  -0.00   0.00    -0.00   0.00   0.00    -0.00  -0.00   0.00
   4   8     0.00   0.00   0.00    -0.00   0.00  -0.00     0.00  -0.00   0.00
   5   1    -0.00  -0.00  -0.00     0.01  -0.00   0.01    -0.00   0.00  -0.00
   6   1    -0.00  -0.00  -0.00    -0.00  -0.00  -0.00     0.00  -0.00  -0.00
   7   8     0.00   0.00  -0.00     0.00   0.00  -0.00    -0.00   0.00  -0.00
   8   1     0.00  -0.00   0.00    -0.00   0.00  -0.00     0.00  -0.00   0.00
   9   1    -0.00  -0.00   0.00    -0.00  -0.00   0.00    -0.00  -0.00   0.00
  10   8    -0.00  -0.00   0.00    -0.00  -0.00  -0.00     0.00   0.00  -0.00
  11   1    -0.00  -0.00  -0.00    -0.00   0.00   0.00    -0.00  -0.00  -0.00
  12   1     0.02   0.01  -0.00    -0.00  -0.00   0.00    -0.00  -0.00   0.00
  13   8    -0.00  -0.00  -0.00    -0.00  -0.00  -0.00    -0.00  -0.00  -0.00
  14   1    -0.00  -0.00   0.00    -0.00  -0.00  -0.00    -0.00  -0.00  -0.00
  15   1     0.00   0.00   0.00     0.00   0.00   0.00     0.00   0.00   0.00
  16   8     0.00   0.00  -0.00     0.00   0.00  -0.00    -0.00   0.00   0.00
  17   1    -0.00  -0.00   0.00    -0.00  -0.00   0.00     0.00   0.00  -0.00
  18   1    -0.00  -0.00  -0.00    -0.00  -0.00  -0.00    -0.00  -0.00  -0.00
  19   8    -0.00   0.00  -0.00     0.00   0.00  -0.00     0.00   0.00  -0.00
  20   1     0.00   0.00  -0.00    -0.00  -0.00   0.00    -0.00  -0.01   0.00
  21   1     0.01  -0.01   0.00    -0.00  -0.00   0.00    -0.00   0.00  -0.00
  22   8    -0.00   0.00  -0.00     0.00   0.00   0.00    -0.00  -0.00   0.00
  23   1     0.00   0.00  -0.00    -0.00  -0.00   0.00     0.00  -0.00   0.00
  24   1     0.00  -0.00   0.00    -0.00   0.00  -0.00    -0.00   0.00  -0.00
  25   8    -0.00   0.00   0.00     0.00   0.00  -0.00     0.00   0.00   0.00
  26   1     0.00  -0.00  -0.00    -0.00  -0.00  -0.00    -0.00   0.00   0.00
  27   1     0.00  -0.00   0.00    -0.00   0.00   0.00     0.00  -0.00  -0.00
  28   8    -0.00  -0.00  -0.00    -0.09   0.01   0.22    -0.00   0.00   0.01
  29   1    -0.00   0.00   0.00     0.39  -0.04  -0.89     0.01  -0.00  -0.03
  30   1     0.00   0.01  -0.00    -0.02  -0.02   0.02    -0.00  -0.00   0.00
  31   8    -0.00  -0.00   0.00    -0.00  -0.00   0.00     0.00   0.00  -0.00
  32   1     0.00   0.00  -0.00     0.00   0.00  -0.00    -0.00  -0.00   0.00
  33   1    -0.00   0.00  -0.00    -0.00   0.00  -0.00     0.00  -0.00   0.00
  34   8     0.00  -0.00  -0.00    -0.00   0.00  -0.00    -0.00   0.00   0.00
  35   1    -0.00   0.00   0.01    -0.00   0.00   0.00     0.00  -0.00  -0.00
  36   1     0.00   0.00  -0.00     0.00  -0.00   0.00     0.00  -0.00   0.00
  37   8    -0.00   0.00  -0.00    -0.00   0.00   0.00    -0.00   0.00   0.00
  38   1     0.00   0.00   0.00    -0.00  -0.00  -0.00    -0.00  -0.00  -0.00
  39   1     0.00  -0.00   0.00     0.01  -0.00  -0.00     0.00  -0.00  -0.00
  40   8    -0.01   0.01   0.00     0.00   0.00   0.00     0.00  -0.00  -0.00
  41   1     0.02  -0.05  -0.02    -0.00   0.00  -0.00    -0.00   0.00   0.00
  42   1     0.01   0.01   0.00     0.00   0.00  -0.00    -0.00  -0.00  -0.00
  43   8    -0.01  -0.02   0.01     0.00   0.00  -0.00     0.00   0.01  -0.00
  44   1     0.02   0.07  -0.03     0.00  -0.00   0.00    -0.01  -0.03   0.01
  45   1     0.00  -0.00   0.01     0.00   0.00  -0.00    -0.00  -0.00  -0.00
  46   8     0.00  -0.00  -0.00    -0.00   0.00  -0.01    -0.00   0.00  -0.00
  47   1    -0.00   0.00   0.00     0.01  -0.00   0.03     0.00  -0.00   0.00
  48   1    -0.00   0.00  -0.00    -0.00   0.00  -0.00     0.00  -0.00  -0.00
  49   8    -0.00   0.00  -0.00     0.00  -0.00  -0.00    -0.00   0.00  -0.00
  50   1     0.00  -0.00   0.00     0.00   0.00   0.00    -0.00  -0.00   0.00
  51   1     0.00  -0.00   0.00    -0.00   0.00  -0.00     0.00  -0.00   0.00
  52   8     0.00  -0.01  -0.01     0.01   0.00   0.00    -0.08  -0.18  -0.08
  53   1    -0.03   0.03   0.02    -0.02   0.02   0.01     0.00  -0.03  -0.01
  54   1     0.02   0.03   0.02    -0.01  -0.03  -0.02     0.33   0.75   0.35
  55   8     0.00   0.00   0.00    -0.00   0.00   0.00    -0.00   0.00   0.00
  56   1     0.00  -0.00  -0.00     0.00   0.00  -0.01     0.00   0.00  -0.00
  57   1    -0.00  -0.00   0.00    -0.00  -0.00   0.00    -0.00  -0.00   0.00
  58   8    -0.00  -0.00  -0.00     0.00  -0.00   0.00     0.05  -0.07   0.02
  59   1     0.00   0.00   0.00     0.00  -0.00   0.00     0.01  -0.00   0.01
  60   1    -0.00   0.00  -0.00    -0.01   0.01  -0.00    -0.21   0.30  -0.10
  61   8    -0.00  -0.00  -0.00     0.00   0.00  -0.00     0.00   0.00   0.00
  62   1     0.00   0.00  -0.00    -0.00  -0.00   0.00    -0.00  -0.00   0.00
  63   1     0.00   0.00   0.00    -0.00  -0.00  -0.00    -0.00  -0.01  -0.00
  64   8    -0.00  -0.00  -0.00     0.00  -0.00  -0.00    -0.00   0.00   0.00
  65   1     0.00   0.00   0.00     0.00  -0.00   0.00    -0.00  -0.00   0.00
  66   1     0.00   0.00  -0.00    -0.01   0.00   0.00     0.01  -0.00  -0.00
  67   8    -0.00  -0.00  -0.00     0.00  -0.00  -0.00    -0.00  -0.00  -0.00
  68   1     0.00  -0.00   0.00    -0.00   0.00  -0.00    -0.00   0.00  -0.00
  69   1    -0.00   0.00   0.00    -0.00   0.00   0.00     0.00   0.00   0.00
  70   8    -0.15  -0.12  -0.12    -0.00  -0.00  -0.00     0.00   0.00   0.00
  71   1    -0.06  -0.06   0.04    -0.00  -0.00   0.00     0.00   0.00  -0.00
  72   1     0.66   0.53   0.46     0.00   0.00   0.00    -0.02  -0.02  -0.01
  73   8    -0.00   0.00  -0.00    -0.00   0.00  -0.00    -0.00   0.00  -0.00
  74   1    -0.00  -0.00   0.00    -0.00   0.00   0.00    -0.00  -0.00   0.00
  75   1     0.00  -0.00   0.00     0.00  -0.00   0.00     0.00  -0.00   0.00
                    214                    215                    216
                        a                      a                      a 
 Frequencies --  3678.8121              3681.3729              3684.7471
 Red. masses --     1.8358                 1.8367                 1.8404
 Frc consts  --     0.0000                 0.0000                 0.0000
 IR Inten    --    10.2734                11.7255                 8.9301
 Raman Activ --     0.0000                 0.0000                 0.0000
 Depolar     --     0.0000                 0.0000                 0.0000
 Atom AN      X      Y      Z        X      Y      Z        X      Y      Z
   1   8     0.00   0.00  -0.00    -0.00  -0.00  -0.00    -0.00   0.00   0.00
   2   1     0.00  -0.00   0.00    -0.00   0.00   0.00    -0.00   0.00   0.00
   3   1    -0.00   0.00   0.00     0.00  -0.00   0.00     0.00  -0.00  -0.00
   4   8    -0.00   0.00  -0.00     0.00  -0.00   0.00    -0.17   0.08  -0.14
   5   1     0.02  -0.01   0.01    -0.02   0.01  -0.02     0.70  -0.31   0.59
   6   1    -0.00  -0.00  -0.00     0.00   0.00   0.00    -0.02  -0.00  -0.03
   7   8     0.00  -0.00   0.00    -0.00   0.00  -0.00     0.00  -0.00   0.00
   8   1    -0.00   0.00  -0.00     0.00  -0.00   0.00    -0.01   0.01  -0.02
   9   1    -0.00  -0.00   0.00     0.00   0.00  -0.00    -0.00  -0.00   0.00
  10   8     0.00  -0.00  -0.00     0.00   0.00   0.00     0.00   0.00   0.00
  11   1    -0.00   0.00   0.00    -0.00  -0.00  -0.00    -0.00  -0.00  -0.00
  12   1    -0.00  -0.00   0.00     0.00   0.00  -0.00    -0.00  -0.00  -0.00
  13   8    -0.00  -0.00  -0.00     0.01   0.00   0.00     0.02   0.01   0.00
  14   1    -0.00  -0.00  -0.00     0.00   0.00   0.00     0.00   0.00   0.00
  15   1     0.01   0.00   0.00    -0.04  -0.02  -0.01    -0.07  -0.04  -0.02
  16   8     0.00  -0.00  -0.00     0.00  -0.00  -0.00    -0.00  -0.00   0.00
  17   1    -0.00  -0.00   0.00    -0.00  -0.00   0.00     0.00   0.00  -0.00
  18   1     0.00   0.00   0.00     0.00   0.00  -0.00    -0.00  -0.00   0.00
  19   8    -0.00  -0.00   0.00     0.00   0.00  -0.00     0.00   0.00  -0.00
  20   1     0.01   0.02  -0.01    -0.00  -0.00   0.00    -0.00  -0.00   0.00
  21   1     0.00  -0.00   0.00    -0.00   0.00  -0.00     0.00   0.00  -0.00
  22   8     0.00   0.00  -0.00    -0.00  -0.00   0.00    -0.00   0.00  -0.00
  23   1    -0.00   0.00  -0.00     0.00  -0.00  -0.00     0.00   0.00  -0.00
  24   1     0.00  -0.00   0.00    -0.00   0.00  -0.00     0.00  -0.00   0.00
  25   8     0.00   0.00   0.00    -0.00  -0.00  -0.00     0.00  -0.00   0.00
  26   1    -0.00   0.00  -0.00     0.00  -0.00   0.00    -0.00   0.00  -0.00
  27   1    -0.00  -0.00  -0.00    -0.00   0.00   0.00     0.00   0.00   0.00
  28   8    -0.00   0.00   0.01     0.00  -0.00  -0.00     0.00  -0.00  -0.00
  29   1     0.01  -0.00  -0.03    -0.00   0.00   0.01    -0.00   0.00   0.01
  30   1    -0.00  -0.00   0.00     0.00   0.00  -0.00     0.00   0.00  -0.00
  31   8     0.00  -0.00   0.00     0.00   0.00  -0.00     0.00  -0.00   0.00
  32   1     0.00  -0.00   0.00    -0.00  -0.00   0.00    -0.00  -0.00   0.00
  33   1    -0.00   0.00  -0.00    -0.00  -0.00   0.00     0.00   0.00  -0.00
  34   8    -0.00   0.00   0.00     0.00   0.00  -0.00    -0.00  -0.00   0.00
  35   1     0.00  -0.00  -0.00    -0.00  -0.00   0.00     0.00  -0.00  -0.00
  36   1    -0.00  -0.00   0.00     0.00  -0.00   0.00    -0.00   0.00  -0.00
  37   8    -0.00   0.00   0.00     0.01  -0.00  -0.00     0.01  -0.01  -0.00
  38   1    -0.00  -0.00  -0.00     0.00  -0.00   0.00     0.00  -0.00   0.00
  39   1     0.01  -0.01  -0.00    -0.02   0.01   0.00    -0.04   0.03   0.00
  40   8     0.00   0.00  -0.00    -0.00  -0.00  -0.00     0.00   0.00   0.00
  41   1    -0.00   0.00   0.00     0.00  -0.00   0.00    -0.00  -0.00  -0.00
  42   1    -0.00  -0.00  -0.00     0.00   0.00   0.00    -0.02  -0.01  -0.00
  43   8     0.00   0.00  -0.00     0.00   0.00  -0.00     0.00  -0.00   0.00
  44   1    -0.00  -0.01   0.00    -0.00   0.00   0.00     0.00   0.00  -0.00
  45   1    -0.00  -0.00  -0.00     0.00  -0.00   0.00    -0.00   0.00  -0.00
  46   8    -0.00   0.00  -0.00     0.00  -0.00   0.00     0.00  -0.00   0.00
  47   1     0.00  -0.00   0.00    -0.00   0.00  -0.00    -0.00   0.00  -0.00
  48   1    -0.00   0.00  -0.00    -0.00   0.00  -0.00    -0.00   0.00  -0.00
  49   8     0.00  -0.00   0.00     0.00   0.00  -0.00     0.00   0.00  -0.00
  50   1    -0.00   0.00  -0.00     0.00   0.00  -0.00     0.00  -0.00   0.00
  51   1    -0.00   0.00  -0.00    -0.00   0.00   0.00    -0.00   0.00  -0.00
  52   8    -0.04  -0.08  -0.04     0.00   0.00   0.00     0.00   0.00   0.00
  53   1     0.00  -0.01  -0.01     0.00   0.00   0.00     0.00   0.00   0.00
  54   1     0.14   0.32   0.15    -0.01  -0.01  -0.01    -0.00  -0.01  -0.00
  55   8    -0.00   0.00   0.01    -0.02   0.00   0.23    -0.00   0.00   0.01
  56   1     0.00   0.00  -0.04     0.10   0.00  -0.96     0.00   0.00  -0.02
  57   1    -0.00  -0.00   0.00    -0.02  -0.01   0.03    -0.00  -0.00   0.00
  58   8    -0.11   0.17  -0.06     0.00  -0.01   0.00     0.00  -0.00   0.00
  59   1    -0.03   0.01  -0.01     0.00  -0.00   0.00     0.00  -0.00   0.00
  60   1     0.48  -0.71   0.24    -0.02   0.03  -0.01    -0.01   0.02  -0.01
  61   8    -0.00  -0.00  -0.00     0.00   0.00   0.00     0.00   0.00   0.00
  62   1     0.00   0.00  -0.00    -0.00  -0.00   0.00    -0.00  -0.00   0.00
  63   1     0.00   0.01   0.01    -0.00  -0.00  -0.00    -0.00  -0.00  -0.00
  64   8     0.01  -0.00  -0.00    -0.00   0.00   0.00    -0.00   0.00   0.00
  65   1     0.00   0.00  -0.00    -0.00   0.00  -0.00    -0.00   0.00  -0.00
  66   1    -0.02   0.01   0.00     0.01  -0.00  -0.00     0.02  -0.01  -0.00
  67   8     0.00  -0.00  -0.00     0.00  -0.00  -0.01    -0.00   0.00  -0.00
  68   1    -0.00   0.00  -0.00    -0.00  -0.00  -0.00     0.00  -0.00   0.00
  69   1    -0.00   0.00   0.00    -0.00   0.02   0.03    -0.00   0.00   0.00
  70   8     0.00   0.00   0.00    -0.00   0.00  -0.00    -0.00  -0.00   0.00
  71   1     0.00   0.00  -0.00    -0.00  -0.00   0.00    -0.00  -0.00  -0.00
  72   1    -0.01  -0.01  -0.01     0.00   0.00   0.00     0.00   0.00   0.00
  73   8    -0.00  -0.00  -0.00    -0.00   0.00  -0.00    -0.00   0.00  -0.00
  74   1    -0.00   0.00  -0.00    -0.00   0.00  -0.00    -0.00  -0.00   0.00
  75   1     0.00  -0.00   0.00     0.02  -0.01   0.02     0.00   0.00   0.00
                    217                    218                    219
                        a                      a                      a 
 Frequencies --  3686.8083              3687.4031              3688.8091
 Red. masses --     1.8420                 1.8402                 1.8432
 Frc consts  --     0.0000                 0.0000                 0.0000
 IR Inten    --     9.8555                14.0539                 7.1392
 Raman Activ --     0.0000                 0.0000                 0.0000
 Depolar     --     0.0000                 0.0000                 0.0000
 Atom AN      X      Y      Z        X      Y      Z        X      Y      Z
   1   8     0.00  -0.00  -0.00     0.00  -0.00  -0.00    -0.00   0.00   0.00
   2   1     0.00  -0.00   0.00     0.00  -0.00  -0.00    -0.00   0.00  -0.00
   3   1    -0.02   0.00   0.02    -0.01   0.00   0.01     0.00  -0.00  -0.00
   4   8    -0.00   0.00  -0.00    -0.02   0.01  -0.01     0.00  -0.00   0.00
   5   1     0.01  -0.01   0.01     0.07  -0.03   0.06    -0.02   0.01  -0.01
   6   1    -0.00  -0.00  -0.00    -0.00  -0.00  -0.00     0.00   0.00   0.00
   7   8    -0.00  -0.00   0.00     0.00   0.00  -0.00    -0.00   0.00  -0.00
   8   1     0.00  -0.00   0.00    -0.00   0.00  -0.00     0.00  -0.00   0.00
   9   1     0.00   0.00  -0.00    -0.02  -0.00   0.01     0.00   0.00  -0.00
  10   8     0.00   0.00  -0.00     0.00   0.00  -0.00    -0.00  -0.00   0.00
  11   1    -0.00   0.00   0.00    -0.00  -0.00   0.00    -0.00  -0.00  -0.00
  12   1    -0.00  -0.00   0.00    -0.00  -0.00   0.00     0.00   0.00  -0.00
  13   8     0.07   0.03   0.01    -0.19  -0.10  -0.04     0.01   0.01   0.00
  14   1     0.01   0.01   0.01    -0.02  -0.02  -0.02     0.00   0.00   0.00
  15   1    -0.27  -0.14  -0.06     0.80   0.41   0.17    -0.05  -0.03  -0.01
  16   8     0.00   0.00   0.00     0.00  -0.00  -0.00     0.00   0.00  -0.00
  17   1    -0.00  -0.00   0.00    -0.00  -0.00   0.00    -0.00   0.00   0.00
  18   1    -0.00  -0.00  -0.00     0.00   0.00   0.00    -0.00  -0.00  -0.00
  19   8     0.00   0.00   0.00     0.00   0.00   0.00     0.00   0.00   0.00
  20   1    -0.00  -0.00   0.00    -0.00  -0.00   0.00    -0.00   0.00  -0.00
  21   1    -0.00  -0.00   0.00     0.00  -0.00   0.00     0.00  -0.00   0.00
  22   8     0.00  -0.00   0.00     0.00   0.00  -0.00     0.00   0.00   0.00
  23   1     0.00   0.00  -0.00    -0.00  -0.00   0.00    -0.00   0.00   0.00
  24   1    -0.00   0.00  -0.00     0.00  -0.00   0.00    -0.00   0.00  -0.00
  25   8     0.00  -0.00  -0.00     0.00  -0.00   0.00     0.00  -0.00  -0.00
  26   1    -0.00   0.00  -0.00    -0.00   0.00  -0.00    -0.00  -0.00  -0.00
  27   1    -0.00   0.00   0.00    -0.00   0.00   0.00    -0.00   0.00   0.00
  28   8     0.00  -0.00  -0.00     0.00  -0.00  -0.00    -0.00   0.00   0.00
  29   1    -0.00   0.00   0.01    -0.00   0.00   0.01     0.01  -0.00  -0.01
  30   1     0.00   0.00  -0.00     0.00   0.00  -0.00    -0.00  -0.00   0.00
  31   8     0.00  -0.00  -0.00     0.00   0.00  -0.00     0.00   0.00  -0.00
  32   1    -0.00  -0.00   0.00    -0.00  -0.00   0.00    -0.00  -0.00   0.00
  33   1    -0.00   0.00  -0.00     0.00   0.00  -0.00     0.00  -0.00  -0.00
  34   8     0.00   0.00   0.00     0.00   0.00   0.00    -0.00  -0.00   0.00
  35   1     0.00   0.00  -0.00     0.00   0.00  -0.00     0.00  -0.00  -0.00
  36   1    -0.00  -0.00   0.00    -0.00  -0.00   0.00    -0.00   0.00  -0.00
  37   8    -0.18   0.13   0.01    -0.06   0.04   0.00     0.01  -0.01  -0.00
  38   1    -0.03   0.00  -0.01    -0.01   0.00  -0.00     0.00  -0.00   0.00
  39   1     0.76  -0.52  -0.03     0.25  -0.17  -0.01    -0.06   0.04   0.00
  40   8     0.00   0.00   0.00     0.00   0.00   0.00    -0.00  -0.00  -0.00
  41   1    -0.00   0.00   0.00    -0.00   0.00  -0.00    -0.00   0.00   0.00
  42   1    -0.00  -0.00  -0.00    -0.00  -0.00  -0.00     0.00   0.00   0.00
  43   8     0.00   0.00  -0.00     0.00   0.00  -0.00    -0.00   0.00  -0.00
  44   1    -0.00  -0.00   0.00    -0.00  -0.00   0.00    -0.00  -0.00   0.00
  45   1    -0.00   0.00  -0.00    -0.00   0.00  -0.00     0.00  -0.00   0.00
  46   8     0.00  -0.00   0.00     0.00  -0.00   0.00     0.00  -0.00  -0.00
  47   1    -0.00  -0.00   0.00    -0.00  -0.00   0.00     0.00  -0.00   0.00
  48   1    -0.00   0.00  -0.00    -0.00   0.00  -0.00    -0.01   0.02  -0.00
  49   8     0.00  -0.00   0.00     0.00  -0.00  -0.00    -0.00   0.00  -0.00
  50   1     0.00  -0.00   0.00     0.00  -0.00   0.00     0.00   0.00  -0.00
  51   1    -0.00   0.00  -0.00    -0.00   0.00  -0.00     0.00  -0.00   0.00
  52   8     0.00   0.00   0.00     0.00   0.00   0.00    -0.00  -0.00  -0.00
  53   1    -0.00   0.00   0.00    -0.00   0.00   0.00    -0.00   0.00   0.00
  54   1    -0.00  -0.00  -0.00    -0.00  -0.01  -0.00     0.00   0.00   0.00
  55   8    -0.00  -0.00   0.00    -0.00   0.00   0.01     0.00  -0.00  -0.00
  56   1     0.00   0.00  -0.01     0.01   0.00  -0.05    -0.00  -0.00   0.01
  57   1    -0.00  -0.00   0.00    -0.00  -0.00   0.00     0.00   0.00  -0.00
  58   8     0.00  -0.00   0.00     0.00  -0.00   0.00    -0.00   0.00  -0.00
  59   1     0.00  -0.00   0.00     0.00  -0.00   0.00    -0.00   0.00  -0.00
  60   1    -0.00   0.00  -0.00    -0.01   0.01  -0.00     0.01  -0.02   0.01
  61   8     0.00   0.00  -0.00     0.00   0.00  -0.00     0.01   0.00  -0.00
  62   1    -0.00  -0.00   0.00    -0.00  -0.00   0.00    -0.02  -0.01   0.00
  63   1     0.00   0.00   0.00     0.00   0.00   0.00     0.00   0.00   0.00
  64   8    -0.01   0.00   0.00    -0.02   0.01   0.00    -0.22   0.08   0.01
  65   1    -0.00   0.00  -0.00    -0.00   0.00  -0.00    -0.03   0.00  -0.01
  66   1     0.05  -0.02  -0.00     0.08  -0.03  -0.00     0.91  -0.32  -0.03
  67   8    -0.00   0.00  -0.00     0.00  -0.00   0.00    -0.00   0.00  -0.00
  68   1     0.01  -0.00   0.01    -0.02   0.01  -0.02     0.00  -0.00   0.00
  69   1    -0.00  -0.00  -0.00     0.00   0.00   0.00    -0.00  -0.00  -0.00
  70   8    -0.00  -0.00   0.00     0.00   0.00   0.00     0.00   0.00   0.00
  71   1     0.00   0.00  -0.00    -0.00   0.00  -0.00    -0.00  -0.00   0.00
  72   1    -0.00  -0.00  -0.00    -0.00  -0.00  -0.00    -0.00  -0.00  -0.00
  73   8    -0.00  -0.00   0.00    -0.00  -0.00   0.00     0.00   0.00  -0.00
  74   1     0.00   0.02  -0.00     0.00   0.01  -0.00    -0.00  -0.00   0.00
  75   1     0.00  -0.00   0.00     0.00  -0.00   0.00    -0.00   0.00  -0.00
