      -----------------------------------------------------------      
     |                   =====================                   |     
     |                           x T B                           |     
     |                   =====================                   |     
     |                         S. Grimme                         |     
     |          Mulliken Center for Theoretical Chemistry        |     
     |                    University of Bonn                     |     
      -----------------------------------------------------------      

   * xtb version 6.5.1 (579679a) compiled by 'ehlert@majestix' on 2022-07-11

   xtb is free software: you can redistribute it and/or modify it under
   the terms of the GNU Lesser General Public License as published by
   the Free Software Foundation, either version 3 of the License, or
   (at your option) any later version.
   
   xtb is distributed in the hope that it will be useful,
   but WITHOUT ANY WARRANTY; without even the implied warranty of
   MERCHANTABILITY or FITNESS FOR A PARTICULAR PURPOSE.  See the
   GNU Lesser General Public License for more details.
   
   Cite this work as:
   * C. Bannwarth, E. Caldeweyher, S. Ehlert, A. Hansen, P. Pracht,
     J. Seibert, S. Spicher, S. Grimme, WIREs Comput. Mol. Sci., 2020, 11,
     e01493. DOI: 10.1002/wcms.1493
   
   for GFN2-xTB:
   * C. Bannwarth, S. Ehlert and S. Grimme., J. Chem. Theory Comput., 2019,
     15, 1652-1671. DOI: 10.1021/acs.jctc.8b01176
   for GFN1-xTB:
   * S. Grimme, C. Bannwarth, P. Shushkov, J. Chem. Theory Comput., 2017,
     13, 1989-2009. DOI: 10.1021/acs.jctc.7b00118
   for GFN0-xTB:
   * P. Pracht, E. Caldeweyher, S. Ehlert, S. Grimme, ChemRxiv, 2019, preprint.
     DOI: 10.26434/chemrxiv.8326202.v1
   for GFN-FF:
   * S. Spicher and S. Grimme, Angew. Chem. Int. Ed., 2020, 59, 15665-15673.
     DOI: 10.1002/anie.202004239
   
   for ALPB and GBSA implicit solvation:
   * S. Ehlert, M. Stahn, S. Spicher, S. Grimme, J. Chem. Theory Comput.,
     2021, 17, 4250-4261. DOI: 10.1021/acs.jctc.1c00471
   
   for DFT-D4:
   * E. Caldeweyher, C. Bannwarth and S. Grimme, J. Chem. Phys., 2017,
     147, 034112. DOI: 10.1063/1.4993215
   * E. Caldeweyher, S. Ehlert, A. Hansen, H. Neugebauer, S. Spicher,
     C. Bannwarth and S. Grimme, J. Chem. Phys., 2019, 150, 154122.
     DOI: 10.1063/1.5090222
   * E. Caldeweyher, J.-M. Mewes, S. Ehlert and S. Grimme, Phys. Chem. Chem. Phys.
     2020, 22, 8499-8512. DOI: 10.1039/D0CP00502A
   
   for sTDA-xTB:
   * S. Grimme and C. Bannwarth, J. Chem. Phys., 2016, 145, 054103.
     DOI: 10.1063/1.4959605
   
   in the mass-spec context:
   * V. Asgeirsson, C. Bauer and S. Grimme, Chem. Sci., 2017, 8, 4879.
     DOI: 10.1039/c7sc00601b
   * J. Koopman and S. Grimme, ACS Omega 2019, 4, 12, 15120-15133.
     DOI: 10.1021/acsomega.9b02011
   
   for metadynamics refer to:
   * S. Grimme, J. Chem. Theory Comput., 2019, 155, 2847-2862
     DOI: 10.1021/acs.jctc.9b00143
   
   for SPH calculations refer to:
   * S. Spicher and S. Grimme, J. Chem. Theory Comput., 2021, 17, 1701-1714
     DOI: 10.1021/acs.jctc.0c01306
   
   with help from (in alphabetical order)
   P. Atkinson, C. Bannwarth, F. Bohle, G. Brandenburg, E. Caldeweyher
   M. Checinski, S. Dohm, S. Ehlert, S. Ehrlich, I. Gerasimov, C. Hölzer
   A. Katbashev, J. Koopman, C. Lavigne, S. Lehtola, F. März, M. Müller,
   F. Musil, H. Neugebauer, J. Pisarek, C. Plett, P. Pracht, F. Pultar,
   J. Seibert, P. Shushkov, S. Spicher, M. Stahn, M. Steiner, T. Strunk,
   J. Stückrath, T. Rose, and J. Unsleber
   
 * started run on 2022/10/12 at 01:33:02.581     

           -------------------------------------------------
          |                Calculation Setup                |
           -------------------------------------------------

          program call               : xtb solvent_cut.coord --gfn2 --ohess
          hostname                   : cn0943
          coordinate file            : solvent_cut.coord
          omp threads                :                     6

   ID    Z sym.   atoms
    1    8 o      1, 4, 7, 10, 13, 16, 19, 22, 25, 28, 31, 34, 37, 40, 43,
                  46, 49, 52, 55, 58, 61, 64, 67, 70, 73
    2    1 h      2, 3, 5, 6, 8, 9, 11, 12, 14, 15, 17, 18, 20, 21, 23, 24,
                  26, 27, 29, 30, 32, 33, 35, 36, 38, 39, 41, 42, 44, 45, 47,
                  48, 50, 51, 53, 54, 56, 57, 59, 60, 62, 63, 65, 66, 68, 69,
                  71, 72, 74, 75

molecular fragmentation (1/2 indicates fragments):
111222222222222222222222222222222222222222222222222222222222222222222222
222
# atoms in fragment 1/2:     3    72
 fragment masses (1/2) :       18.02      432.37
CMA distance (Bohr)    :   6.126
constraining FC (au)   :  0.0500

           -------------------------------------------------
          |                 G F N 2 - x T B                 |
           -------------------------------------------------

        Reference                      10.1021/acs.jctc.8b01176
      * Hamiltonian:
        H0-scaling (s, p, d)           1.850000    2.230000    2.230000
        zeta-weighting                 0.500000
      * Dispersion:
        s8                             2.700000
        a1                             0.520000
        a2                             5.000000
        s9                             5.000000
      * Repulsion:
        kExp                           1.500000    1.000000
        rExp                           1.000000
      * Coulomb:
        alpha                          2.000000
        third order                    shell-resolved
        anisotropic                    true
        a3                             3.000000
        a5                             4.000000
        cn-shift                       1.200000
        cn-exp                         4.000000
        max-rad                        5.000000


          ...................................................
          :                      SETUP                      :
          :.................................................:
          :  # basis functions                 150          :
          :  # atomic orbitals                 150          :
          :  # shells                          100          :
          :  # electrons                       200          :
          :  max. iterations                   250          :
          :  Hamiltonian                  GFN2-xTB          :
          :  restarted?                      false          :
          :  GBSA solvation                  false          :
          :  PC potential                    false          :
          :  electronic temp.          300.0000000     K    :
          :  accuracy                    1.0000000          :
          :  -> integral cutoff          0.2500000E+02      :
          :  -> integral neglect         0.1000000E-07      :
          :  -> SCF convergence          0.1000000E-05 Eh   :
          :  -> wf. convergence          0.1000000E-03 e    :
          :  Broyden damping             0.4000000          :
          ...................................................

 iter      E             dE          RMSdq      gap      omega  full diag
   1   -127.8885204 -0.127889E+03  0.402E+00   10.92       0.0  T
   2   -127.8974041 -0.888372E-02  0.239E+00   10.60       1.0  T
   3   -127.9007714 -0.336728E-02  0.228E-01   10.01       1.0  T
   4   -127.9013958 -0.624451E-03  0.530E-02   10.17       1.0  T
   5   -127.9014220 -0.261314E-04  0.335E-02   10.13       1.0  T
   6   -127.9014275 -0.558786E-05  0.262E-03   10.15       4.4  T
   7   -127.9014276 -0.757536E-07  0.857E-04   10.15      13.5  T
   8   -127.9014276 -0.403033E-08  0.458E-04   10.15      25.2  T

   *** convergence criteria satisfied after 8 iterations ***

         #    Occupation            Energy/Eh            Energy/eV
      -------------------------------------------------------------
         1        2.0000           -0.7038180             -19.1519
       ...           ...                  ...                  ...
        94        2.0000           -0.4229275             -11.5084
        95        2.0000           -0.4217474             -11.4763
        96        2.0000           -0.4193486             -11.4111
        97        2.0000           -0.4190051             -11.4017
        98        2.0000           -0.4162065             -11.3256
        99        2.0000           -0.4147583             -11.2861
       100        2.0000           -0.4091259             -11.1329 (HOMO)
       101                         -0.0362244              -0.9857 (LUMO)
       102                         -0.0180584              -0.4914
       103                          0.0048555               0.1321
       104                          0.0104106               0.2833
       105                          0.0318393               0.8664
       ...                                ...                  ...
       150                          0.3701148              10.0713
      -------------------------------------------------------------
                  HL-Gap            0.3729015 Eh           10.1472 eV
             Fermi-level           -0.2226752 Eh           -6.0593 eV

 SCC (total)                   0 d,  0 h,  0 min,  0.072 sec
 SCC setup                      ...        0 min,  0.001 sec (  0.733%)
 Dispersion                     ...        0 min,  0.005 sec (  7.259%)
 classical contributions        ...        0 min,  0.000 sec (  0.173%)
 integral evaluation            ...        0 min,  0.005 sec (  6.358%)
 iterations                     ...        0 min,  0.043 sec ( 59.586%)
 molecular gradient             ...        0 min,  0.018 sec ( 25.040%)
 printout                       ...        0 min,  0.001 sec (  0.760%)

         :::::::::::::::::::::::::::::::::::::::::::::::::::::
         ::                     SUMMARY                     ::
         :::::::::::::::::::::::::::::::::::::::::::::::::::::
         :: total energy            -127.139241636924 Eh    ::
         :: gradient norm              0.054519072038 Eh/a0 ::
         :: HOMO-LUMO gap             10.147165774388 eV    ::
         ::.................................................::
         :: SCC energy              -127.901427623806 Eh    ::
         :: -> isotropic ES            0.761934221748 Eh    ::
         :: -> anisotropic ES         -0.132973248752 Eh    ::
         :: -> anisotropic XC         -0.016070553177 Eh    ::
         :: -> dispersion             -0.037418262118 Eh    ::
         :: repulsion energy           0.759718682162 Eh    ::
         :: add. restraining           0.000000000000 Eh    ::
         :: total charge              -0.000000000000 e     ::
         :::::::::::::::::::::::::::::::::::::::::::::::::::::

      ----------------------------------------------------------- 
     |                   =====================                   |
     |                        A N C O P T                        |
     |                   =====================                   |
     |               Approximate Normal Coordinate               |
     |                Rational Function Optimizer                |
      ----------------------------------------------------------- 

          ...................................................
          :                      SETUP                      :
          :.................................................:
          :   optimization level            normal          :
          :   max. optcycles                   225          :
          :   ANC micro-cycles                  20          :
          :   degrees of freedom               219          :
          :.................................................:
          :   RF solver                   davidson          :
          :   write xtbopt.log                true          :
          :   linear?                        false          :
          :   energy convergence         0.5000000E-05 Eh   :
          :   grad. convergence          0.1000000E-02 Eh/α :
          :   maximium RF displ.         1.0000000          :
          :   Hlow (freq-cutoff)         0.1000000E-01      :
          :   Hmax (freq-cutoff)         5.0000000          :
          :   S6 in model hess.         20.0000000          :
          ...................................................

generating ANC from model Hessian ...
Using Lindh-Hessian (1995)
 Shifting diagonal of input Hessian by   1.013306657427084E-002
 Lowest  eigenvalues of input Hessian
    0.010000    0.010022    0.010040    0.010071    0.010116    0.000000
    0.000000    0.000000    0.000000    0.000000    0.000000    0.010134
    0.010159    0.010175    0.010205    0.010234    0.010270    0.010301
 Highest eigenvalues
    1.408845    1.409460    1.410779    1.416632    1.420536    1.429176
 

........................................................................
.............................. CYCLE    1 ..............................
........................................................................
   1   -127.9014276 -0.127901E+03  0.371E-05   10.15       0.0  T
   2   -127.9014276 -0.495959E-11  0.217E-05   10.15     531.5  T
   3   -127.9014276 -0.171951E-11  0.421E-06   10.15    2744.4  T
     SCC iter.                  ...        0 min,  0.014 sec
     gradient                   ...        0 min,  0.018 sec
 * total energy  :  -127.1392416 Eh     change       -0.2367358E-08 Eh
   gradient norm :     0.0545199 Eh/α   predicted     0.0000000E+00 (-100.00%)
   displ. norm   :     0.3716792 α      lambda       -0.5935727E-02
   maximum displ.:     0.1205967 α      in ANC's #51, #48, #132, ...

........................................................................
.............................. CYCLE    2 ..............................
........................................................................
   1   -127.9092135 -0.127909E+03  0.676E-02   10.31       0.0  T
   2   -127.9092421 -0.285963E-04  0.394E-02   10.32       1.0  T
   3   -127.9092461 -0.398787E-05  0.100E-02   10.33       1.1  T
   4   -127.9092467 -0.594417E-06  0.142E-03   10.33       8.1  T
   5   -127.9092467 -0.502563E-08  0.229E-04   10.33      50.5  T
   6   -127.9092467 -0.223224E-09  0.886E-05   10.33     130.4  T
     SCC iter.                  ...        0 min,  0.026 sec
     gradient                   ...        0 min,  0.018 sec
 * total energy  :  -127.1434591 Eh     change       -0.4217415E-02 Eh
   gradient norm :     0.0244696 Eh/α   predicted    -0.3378709E-02 ( -19.89%)
   displ. norm   :     0.4196103 α      lambda       -0.3112241E-02
   maximum displ.:     0.1000291 α      in ANC's #11, #18, #51, ...

........................................................................
.............................. CYCLE    3 ..............................
........................................................................
   1   -127.9163837 -0.127916E+03  0.583E-02   10.38       0.0  T
   2   -127.9164143 -0.306320E-04  0.329E-02   10.38       1.0  T
   3   -127.9164185 -0.424995E-05  0.102E-02   10.38       1.1  T
   4   -127.9164190 -0.435377E-06  0.132E-03   10.38       8.7  T
   5   -127.9164190 -0.575511E-08  0.262E-04   10.38      44.0  T
   6   -127.9164190 -0.330502E-09  0.862E-05   10.38     133.9  T
     SCC iter.                  ...        0 min,  0.025 sec
     gradient                   ...        0 min,  0.018 sec
 * total energy  :  -127.1453289 Eh     change       -0.1869855E-02 Eh
   gradient norm :     0.0153625 Eh/α   predicted    -0.1830114E-02 (  -2.13%)
   displ. norm   :     0.3891177 α      lambda       -0.1332118E-02
   maximum displ.:     0.1303470 α      in ANC's #51, #18, #11, ...

........................................................................
.............................. CYCLE    4 ..............................
........................................................................
   1   -127.9155060 -0.127916E+03  0.418E-02   10.37       0.0  T
   2   -127.9155113 -0.526026E-05  0.254E-02   10.37       1.0  T
   3   -127.9155124 -0.117692E-05  0.409E-03   10.37       2.8  T
   4   -127.9155126 -0.178352E-06  0.886E-04   10.37      13.0  T
   5   -127.9155126 -0.240276E-08  0.137E-04   10.37      84.5  T
     SCC iter.                  ...        0 min,  0.021 sec
     gradient                   ...        0 min,  0.018 sec
 * total energy  :  -127.1463831 Eh     change       -0.1054235E-02 Eh
   gradient norm :     0.0116342 Eh/α   predicted    -0.7669406E-03 ( -27.25%)
   displ. norm   :     0.5791868 α      lambda       -0.1491749E-02
   maximum displ.:     0.1653174 α      in ANC's #11, #51, #18, ...

........................................................................
.............................. CYCLE    5 ..............................
........................................................................
   1   -127.9137377 -0.127914E+03  0.543E-02   10.34       0.0  T
   2   -127.9137440 -0.634744E-05  0.330E-02   10.34       1.0  T
   3   -127.9137458 -0.181197E-05  0.455E-03   10.34       2.5  T
   4   -127.9137461 -0.215438E-06  0.110E-03   10.34      10.5  T
   5   -127.9137461 -0.379914E-08  0.168E-04   10.34      68.7  T
   6   -127.9137461 -0.134690E-09  0.664E-05   10.34     173.8  T
     SCC iter.                  ...        0 min,  0.025 sec
     gradient                   ...        0 min,  0.018 sec
 * total energy  :  -127.1474976 Eh     change       -0.1114457E-02 Eh
   gradient norm :     0.0096959 Eh/α   predicted    -0.9961275E-03 ( -10.62%)
   displ. norm   :     0.5586323 α      lambda       -0.1104666E-02
   maximum displ.:     0.1755599 α      in ANC's #11, #18, #6, ...

........................................................................
.............................. CYCLE    6 ..............................
........................................................................
   1   -127.9128885 -0.127913E+03  0.454E-02   10.32       0.0  T
   2   -127.9128926 -0.415847E-05  0.277E-02   10.32       1.0  T
   3   -127.9128938 -0.115803E-05  0.362E-03   10.32       3.2  T
   4   -127.9128939 -0.137286E-06  0.846E-04   10.32      13.7  T
   5   -127.9128939 -0.255099E-08  0.154E-04   10.32      75.0  T
     SCC iter.                  ...        0 min,  0.021 sec
     gradient                   ...        0 min,  0.018 sec
 * total energy  :  -127.1483416 Eh     change       -0.8440478E-03 Eh
   gradient norm :     0.0093841 Eh/α   predicted    -0.7247015E-03 ( -14.14%)
   displ. norm   :     0.5555429 α      lambda       -0.9880051E-03
   maximum displ.:     0.1738469 α      in ANC's #11, #6, #18, ...

........................................................................
.............................. CYCLE    7 ..............................
........................................................................
   1   -127.9116051 -0.127912E+03  0.445E-02   10.30       0.0  T
   2   -127.9116103 -0.521766E-05  0.269E-02   10.30       1.0  T
   3   -127.9116115 -0.116672E-05  0.411E-03   10.30       2.8  T
   4   -127.9116116 -0.169623E-06  0.860E-04   10.30      13.4  T
   5   -127.9116116 -0.250024E-08  0.159E-04   10.30      72.5  T
     SCC iter.                  ...        0 min,  0.021 sec
     gradient                   ...        0 min,  0.018 sec
 * total energy  :  -127.1490912 Eh     change       -0.7495606E-03 Eh
   gradient norm :     0.0088535 Eh/α   predicted    -0.6464750E-03 ( -13.75%)
   displ. norm   :     0.5805924 α      lambda       -0.9845109E-03
   maximum displ.:     0.1641829 α      in ANC's #11, #6, #18, ...

........................................................................
.............................. CYCLE    8 ..............................
........................................................................
   1   -127.9092852 -0.127909E+03  0.599E-02   10.29       0.0  T
   2   -127.9092950 -0.980892E-05  0.363E-02   10.29       1.0  T
   3   -127.9092974 -0.244614E-05  0.566E-03   10.29       2.0  T
   4   -127.9092977 -0.312014E-06  0.124E-03   10.29       9.3  T
   5   -127.9092977 -0.508290E-08  0.207E-04   10.29      55.8  T
   6   -127.9092977 -0.179597E-09  0.824E-05   10.29     140.1  T
     SCC iter.                  ...        0 min,  0.025 sec
     gradient                   ...        0 min,  0.018 sec
 * total energy  :  -127.1496028 Eh     change       -0.5115633E-03 Eh
   gradient norm :     0.0215676 Eh/α   predicted    -0.6581907E-03 (  28.66%)
   displ. norm   :     0.5241497 α      lambda       -0.1508253E-02
   maximum displ.:     0.1564740 α      in ANC's #11, #6, #20, ...

........................................................................
.............................. CYCLE    9 ..............................
........................................................................
   1   -127.9159360 -0.127916E+03  0.646E-02   10.29       0.0  T
   2   -127.9159551 -0.191927E-04  0.379E-02   10.29       1.0  T
   3   -127.9159595 -0.432461E-05  0.832E-03   10.29       1.4  T
   4   -127.9159600 -0.522539E-06  0.176E-03   10.29       6.6  T
   5   -127.9159600 -0.966583E-08  0.285E-04   10.29      40.5  T
   6   -127.9159600 -0.382812E-09  0.998E-05   10.29     115.7  T
     SCC iter.                  ...        0 min,  0.025 sec
     gradient                   ...        0 min,  0.018 sec
 * total energy  :  -127.1495978 Eh     change        0.4940110E-05 Eh
   gradient norm :     0.0321260 Eh/α   predicted    -0.9613113E-03 (*******%)
   displ. norm   :     0.2271251 α      lambda       -0.1480962E-02
   maximum displ.:     0.0713542 α      in ANC's #18, #22, #14, ...

........................................................................
.............................. CYCLE   10 ..............................
........................................................................
   1   -127.9088094 -0.127909E+03  0.464E-02   10.26       0.0  T
   2   -127.9088156 -0.626138E-05  0.275E-02   10.26       1.0  T
   3   -127.9088171 -0.143542E-05  0.475E-03   10.26       2.4  T
   4   -127.9088173 -0.198800E-06  0.104E-03   10.26      11.1  T
   5   -127.9088173 -0.298300E-08  0.135E-04   10.26      85.5  T
   6   -127.9088173 -0.126974E-09  0.497E-05   10.26     232.1  T
     SCC iter.                  ...        0 min,  0.025 sec
     gradient                   ...        0 min,  0.018 sec
 * total energy  :  -127.1504697 Eh     change       -0.8719108E-03 Eh
   gradient norm :     0.0085988 Eh/α   predicted    -0.7786810E-03 ( -10.69%)
   displ. norm   :     0.3596704 α      lambda       -0.5514380E-03
   maximum displ.:     0.1016480 α      in ANC's #11, #6, #22, ...

........................................................................
.............................. CYCLE   11 ..............................
........................................................................
   1   -127.9075667 -0.127908E+03  0.371E-02   10.26       0.0  T
   2   -127.9075702 -0.350693E-05  0.222E-02   10.26       1.0  T
   3   -127.9075711 -0.927081E-06  0.358E-03   10.26       3.2  T
   4   -127.9075712 -0.115627E-06  0.824E-04   10.26      14.0  T
   5   -127.9075712 -0.189517E-08  0.938E-05   10.26     123.1  T
     SCC iter.                  ...        0 min,  0.022 sec
     gradient                   ...        0 min,  0.018 sec
 * total energy  :  -127.1508329 Eh     change       -0.3631116E-03 Eh
   gradient norm :     0.0136119 Eh/α   predicted    -0.3113878E-03 ( -14.24%)
   displ. norm   :     0.4515926 α      lambda       -0.5665374E-03
   maximum displ.:     0.1350375 α      in ANC's #11, #6, #20, ...

........................................................................
.............................. CYCLE   12 ..............................
........................................................................
   1   -127.9081474 -0.127908E+03  0.335E-02   10.25       0.0  T
   2   -127.9081493 -0.191829E-05  0.203E-02   10.26       1.0  T
   3   -127.9081498 -0.565598E-06  0.246E-03   10.26       4.7  T
   4   -127.9081499 -0.649777E-07  0.633E-04   10.26      18.3  T
   5   -127.9081499 -0.130007E-08  0.871E-05   10.26     132.6  T
     SCC iter.                  ...        0 min,  0.022 sec
     gradient                   ...        0 min,  0.018 sec
 * total energy  :  -127.1513016 Eh     change       -0.4686965E-03 Eh
   gradient norm :     0.0121861 Eh/α   predicted    -0.3410391E-03 ( -27.24%)
   displ. norm   :     0.5625623 α      lambda       -0.6821819E-03
   maximum displ.:     0.1597548 α      in ANC's #11, #4, #6, ...

........................................................................
.............................. CYCLE   13 ..............................
........................................................................
   1   -127.9116126 -0.127912E+03  0.428E-02   10.27       0.0  T
   2   -127.9116149 -0.226974E-05  0.260E-02   10.27       1.0  T
   3   -127.9116158 -0.865411E-06  0.265E-03   10.27       4.4  T
   4   -127.9116158 -0.656177E-07  0.779E-04   10.27      14.8  T
   5   -127.9116158 -0.214511E-08  0.115E-04   10.27     100.7  T
     SCC iter.                  ...        0 min,  0.021 sec
     gradient                   ...        0 min,  0.018 sec
 * total energy  :  -127.1517987 Eh     change       -0.4971380E-03 Eh
   gradient norm :     0.0064585 Eh/α   predicted    -0.4490409E-03 (  -9.67%)
   displ. norm   :     0.6876189 α      lambda       -0.5541333E-03
   maximum displ.:     0.2183542 α      in ANC's #11, #6, #4, ...

........................................................................
.............................. CYCLE   14 ..............................
........................................................................
   1   -127.9067680 -0.127907E+03  0.545E-02   10.24       0.0  T
   2   -127.9067726 -0.452482E-05  0.332E-02   10.24       1.0  T
   3   -127.9067743 -0.169935E-05  0.365E-03   10.24       3.2  T
   4   -127.9067744 -0.135288E-06  0.112E-03   10.24      10.3  T
   5   -127.9067744 -0.447220E-08  0.165E-04   10.24      69.8  T
   6   -127.9067744 -0.131280E-09  0.668E-05   10.24     172.9  T
     SCC iter.                  ...        0 min,  0.026 sec
     gradient                   ...        0 min,  0.018 sec
 * total energy  :  -127.1521699 Eh     change       -0.3712300E-03 Eh
   gradient norm :     0.0135201 Eh/α   predicted    -0.4080691E-03 (   9.92%)
   displ. norm   :     0.5042940 α      lambda       -0.5996787E-03
   maximum displ.:     0.1778356 α      in ANC's #4, #1, #11, ...

........................................................................
.............................. CYCLE   15 ..............................
........................................................................
   1   -127.9128625 -0.127913E+03  0.406E-02   10.27       0.0  T
   2   -127.9128657 -0.325337E-05  0.245E-02   10.27       1.0  T
   3   -127.9128667 -0.920304E-06  0.319E-03   10.27       3.6  T
   4   -127.9128668 -0.107975E-06  0.835E-04   10.27      13.8  T
   5   -127.9128668 -0.226292E-08  0.112E-04   10.27     103.2  T
     SCC iter.                  ...        0 min,  0.022 sec
     gradient                   ...        0 min,  0.018 sec
 * total energy  :  -127.1525674 Eh     change       -0.3974803E-03 Eh
   gradient norm :     0.0089686 Eh/α   predicted    -0.3760974E-03 (  -5.38%)
   displ. norm   :     0.5263118 α      lambda       -0.6030701E-03
   maximum displ.:     0.1804468 α      in ANC's #4, #1, #11, ...

........................................................................
.............................. CYCLE   16 ..............................
........................................................................
   1   -127.9154769 -0.127915E+03  0.442E-02   10.28       0.0  T
   2   -127.9154800 -0.308128E-05  0.270E-02   10.28       1.0  T
   3   -127.9154813 -0.129537E-05  0.304E-03   10.28       3.8  T
   4   -127.9154813 -0.837230E-07  0.997E-04   10.28      11.6  T
   5   -127.9154813 -0.364108E-08  0.131E-04   10.28      88.5  T
     SCC iter.                  ...        0 min,  0.022 sec
     gradient                   ...        0 min,  0.018 sec
 * total energy  :  -127.1529502 Eh     change       -0.3827925E-03 Eh
   gradient norm :     0.0105291 Eh/α   predicted    -0.3850624E-03 (   0.59%)
   displ. norm   :     0.5473737 α      lambda       -0.5472386E-03
   maximum displ.:     0.1934812 α      in ANC's #4, #1, #3, ...

........................................................................
.............................. CYCLE   17 ..............................
........................................................................
   1   -127.9143883 -0.127914E+03  0.435E-02   10.27       0.0  T
   2   -127.9143909 -0.267242E-05  0.266E-02   10.26       1.0  T
   3   -127.9143922 -0.128736E-05  0.281E-03   10.26       4.1  T
   4   -127.9143923 -0.645342E-07  0.943E-04   10.26      12.2  T
   5   -127.9143923 -0.375680E-08  0.133E-04   10.26      86.7  T
     SCC iter.                  ...        0 min,  0.021 sec
     gradient                   ...        0 min,  0.018 sec
 * total energy  :  -127.1533525 Eh     change       -0.4023114E-03 Eh
   gradient norm :     0.0097198 Eh/α   predicted    -0.3556021E-03 ( -11.61%)
   displ. norm   :     0.5576842 α      lambda       -0.6334791E-03
   maximum displ.:     0.2029915 α      in ANC's #4, #3, #1, ...

........................................................................
.............................. CYCLE   18 ..............................
........................................................................
   1   -127.9141957 -0.127914E+03  0.437E-02   10.26       0.0  T
   2   -127.9141986 -0.296101E-05  0.265E-02   10.25       1.0  T
   3   -127.9141998 -0.112604E-05  0.305E-03   10.24       3.8  T
   4   -127.9141999 -0.852306E-07  0.892E-04   10.25      13.0  T
   5   -127.9141999 -0.307429E-08  0.142E-04   10.25      81.3  T
     SCC iter.                  ...        0 min,  0.021 sec
     gradient                   ...        0 min,  0.018 sec
 * total energy  :  -127.1537539 Eh     change       -0.4014065E-03 Eh
   gradient norm :     0.0099114 Eh/α   predicted    -0.4152515E-03 (   3.45%)
   displ. norm   :     0.5763556 α      lambda       -0.5891726E-03
   maximum displ.:     0.2033537 α      in ANC's #4, #1, #3, ...

........................................................................
.............................. CYCLE   19 ..............................
........................................................................
   1   -127.9131773 -0.127913E+03  0.465E-02   10.21       0.0  T
   2   -127.9131811 -0.375517E-05  0.284E-02   10.21       1.0  T
   3   -127.9131828 -0.172675E-05  0.339E-03   10.21       3.4  T
   4   -127.9131829 -0.994005E-07  0.110E-03   10.21      10.5  T
   5   -127.9131829 -0.445020E-08  0.118E-04   10.21      97.9  T
   6   -127.9131829 -0.658389E-10  0.549E-05   10.21     210.4  T
     SCC iter.                  ...        0 min,  0.027 sec
     gradient                   ...        0 min,  0.018 sec
 * total energy  :  -127.1540695 Eh     change       -0.3155851E-03 Eh
   gradient norm :     0.0136376 Eh/α   predicted    -0.3924481E-03 (  24.36%)
   displ. norm   :     0.4504491 α      lambda       -0.6611877E-03
   maximum displ.:     0.1754393 α      in ANC's #3, #1, #4, ...

........................................................................
.............................. CYCLE   20 ..............................
........................................................................
   1   -127.9189191 -0.127919E+03  0.346E-02   10.23       0.0  T
   2   -127.9189213 -0.211699E-05  0.207E-02   10.22       1.0  T
   3   -127.9189220 -0.722632E-06  0.265E-03   10.22       4.4  T
   4   -127.9189220 -0.640924E-07  0.759E-04   10.22      15.2  T
   5   -127.9189220 -0.217500E-08  0.114E-04   10.22     101.5  T
     SCC iter.                  ...        0 min,  0.021 sec
     gradient                   ...        0 min,  0.018 sec
 * total energy  :  -127.1544101 Eh     change       -0.3405751E-03 Eh
   gradient norm :     0.0158004 Eh/α   predicted    -0.3976730E-03 (  16.77%)
   displ. norm   :     0.5719860 α      lambda       -0.7647433E-03
   maximum displ.:     0.1859708 α      in ANC's #3, #4, #1, ...
 * RMSD in coord.:     0.9488736 α      energy gain  -0.1516843E-01 Eh

generating ANC from model Hessian ...
Using Lindh-Hessian (1995)
 Shifting diagonal of input Hessian by   1.014916590329439E-002
 Lowest  eigenvalues of input Hessian
    0.010000    0.010042    0.010043    0.010099    0.010112    0.010148
    0.000000    0.000000    0.000000    0.000000    0.000000    0.000000
    0.010175    0.010203    0.010245    0.010288    0.010308    0.010336
 Highest eigenvalues
    1.408960    1.409858    1.411041    1.414009    1.428179    1.441295
 

........................................................................
.............................. CYCLE   21 ..............................
........................................................................
   1   -127.9094746 -0.127909E+03  0.488E-02   10.17       0.0  T
   2   -127.9094781 -0.349909E-05  0.295E-02   10.17       1.0  T
   3   -127.9094795 -0.134569E-05  0.341E-03   10.17       3.4  T
   4   -127.9094796 -0.102250E-06  0.107E-03   10.17      10.8  T
   5   -127.9094796 -0.413614E-08  0.137E-04   10.17      84.2  T
   6   -127.9094796 -0.890594E-10  0.581E-05   10.17     198.8  T
     SCC iter.                  ...        0 min,  0.026 sec
     gradient                   ...        0 min,  0.018 sec
 * total energy  :  -127.1546873 Eh     change       -0.2772205E-03 Eh
   gradient norm :     0.0176352 Eh/α   predicted     0.0000000E+00 (-100.00%)
   displ. norm   :     0.1280912 α      lambda       -0.6184323E-03
   maximum displ.:     0.0316548 α      in ANC's #17, #9, #101, ...

........................................................................
.............................. CYCLE   22 ..............................
........................................................................
   1   -127.9141389 -0.127914E+03  0.239E-02   10.19       0.0  T
   2   -127.9141404 -0.145378E-05  0.143E-02   10.19       1.0  T
   3   -127.9141407 -0.329363E-06  0.214E-03   10.19       5.4  T
   4   -127.9141407 -0.446314E-07  0.502E-04   10.19      23.0  T
   5   -127.9141407 -0.466869E-09  0.587E-05   10.19     196.8  T
     SCC iter.                  ...        0 min,  0.022 sec
     gradient                   ...        0 min,  0.018 sec
 * total energy  :  -127.1551033 Eh     change       -0.4159687E-03 Eh
   gradient norm :     0.0051551 Eh/α   predicted    -0.3142924E-03 ( -24.44%)
   displ. norm   :     0.1788445 α      lambda       -0.3054294E-03
   maximum displ.:     0.0559912 α      in ANC's #17, #9, #22, ...

........................................................................
.............................. CYCLE   23 ..............................
........................................................................
   1   -127.9174740 -0.127917E+03  0.209E-02   10.19       0.0  T
   2   -127.9174749 -0.878913E-06  0.127E-02   10.19       1.0  T
   3   -127.9174751 -0.253965E-06  0.163E-03   10.19       7.1  T
   4   -127.9174751 -0.276599E-07  0.424E-04   10.19      27.2  T
   5   -127.9174751 -0.439783E-09  0.558E-05   10.19     206.8  T
     SCC iter.                  ...        0 min,  0.021 sec
     gradient                   ...        0 min,  0.018 sec
 * total energy  :  -127.1553084 Eh     change       -0.2051239E-03 Eh
   gradient norm :     0.0046274 Eh/α   predicted    -0.1576345E-03 ( -23.15%)
   displ. norm   :     0.2768624 α      lambda       -0.2741914E-03
   maximum displ.:     0.0892814 α      in ANC's #17, #9, #22, ...

........................................................................
.............................. CYCLE   24 ..............................
........................................................................
   1   -127.9186110 -0.127919E+03  0.261E-02   10.19       0.0  T
   2   -127.9186121 -0.101556E-05  0.160E-02   10.19       1.0  T
   3   -127.9186124 -0.363023E-06  0.171E-03   10.19       6.8  T
   4   -127.9186125 -0.306840E-07  0.486E-04   10.19      23.8  T
   5   -127.9186125 -0.638849E-09  0.646E-05   10.19     178.7  T
     SCC iter.                  ...        0 min,  0.021 sec
     gradient                   ...        0 min,  0.018 sec
 * total energy  :  -127.1555249 Eh     change       -0.2165252E-03 Eh
   gradient norm :     0.0083511 Eh/α   predicted    -0.1476075E-03 ( -31.83%)
   displ. norm   :     0.5178600 α      lambda       -0.4516723E-03
   maximum displ.:     0.1707009 α      in ANC's #17, #9, #19, ...

........................................................................
.............................. CYCLE   25 ..............................
........................................................................
   1   -127.9171120 -0.127917E+03  0.440E-02   10.16       0.0  T
   2   -127.9171147 -0.272842E-05  0.270E-02   10.17       1.0  T
   3   -127.9171158 -0.107929E-05  0.281E-03   10.17       4.1  T
   4   -127.9171159 -0.773036E-07  0.835E-04   10.17      13.8  T
   5   -127.9171159 -0.219858E-08  0.115E-04   10.17     100.2  T
     SCC iter.                  ...        0 min,  0.022 sec
     gradient                   ...        0 min,  0.018 sec
 * total energy  :  -127.1558981 Eh     change       -0.3731799E-03 Eh
   gradient norm :     0.0089840 Eh/α   predicted    -0.2864196E-03 ( -23.25%)
   displ. norm   :     0.6151526 α      lambda       -0.5246507E-03
   maximum displ.:     0.2131878 α      in ANC's #17, #9, #19, ...

........................................................................
.............................. CYCLE   26 ..............................
........................................................................
   1   -127.9145975 -0.127915E+03  0.441E-02   10.13       0.0  T
   2   -127.9146005 -0.299120E-05  0.268E-02   10.13       1.0  T
   3   -127.9146016 -0.107026E-05  0.303E-03   10.14       3.8  T
   4   -127.9146017 -0.904780E-07  0.858E-04   10.14      13.5  T
   5   -127.9146017 -0.254728E-08  0.126E-04   10.14      91.4  T
     SCC iter.                  ...        0 min,  0.021 sec
     gradient                   ...        0 min,  0.018 sec
 * total energy  :  -127.1563243 Eh     change       -0.4261870E-03 Eh
   gradient norm :     0.0079093 Eh/α   predicted    -0.3615928E-03 ( -15.16%)
   displ. norm   :     0.5586810 α      lambda       -0.5184126E-03
   maximum displ.:     0.2009293 α      in ANC's #9, #17, #19, ...

........................................................................
.............................. CYCLE   27 ..............................
........................................................................
   1   -127.9145253 -0.127915E+03  0.352E-02   10.11       0.0  T
   2   -127.9145279 -0.257125E-05  0.212E-02   10.11       1.0  T
   3   -127.9145286 -0.730580E-06  0.286E-03   10.11       4.0  T
   4   -127.9145287 -0.804439E-07  0.719E-04   10.11      16.1  T
   5   -127.9145287 -0.191565E-08  0.115E-04   10.11     100.0  T
     SCC iter.                  ...        0 min,  0.021 sec
     gradient                   ...        0 min,  0.018 sec
 * total energy  :  -127.1567270 Eh     change       -0.4027165E-03 Eh
   gradient norm :     0.0070911 Eh/α   predicted    -0.3401117E-03 ( -15.55%)
   displ. norm   :     0.5119795 α      lambda       -0.4261349E-03
   maximum displ.:     0.1896696 α      in ANC's #9, #17, #19, ...

........................................................................
.............................. CYCLE   28 ..............................
........................................................................
   1   -127.9150684 -0.127915E+03  0.355E-02   10.09       0.0  T
   2   -127.9150708 -0.233533E-05  0.214E-02   10.09       1.0  T
   3   -127.9150715 -0.696025E-06  0.271E-03   10.09       4.3  T
   4   -127.9150715 -0.743904E-07  0.698E-04   10.09      16.5  T
   5   -127.9150715 -0.183181E-08  0.112E-04   10.09     103.5  T
     SCC iter.                  ...        0 min,  0.022 sec
     gradient                   ...        0 min,  0.018 sec
 * total energy  :  -127.1570519 Eh     change       -0.3249411E-03 Eh
   gradient norm :     0.0070933 Eh/α   predicted    -0.2689230E-03 ( -17.24%)
   displ. norm   :     0.4287019 α      lambda       -0.3402464E-03
   maximum displ.:     0.1674845 α      in ANC's #9, #17, #19, ...

........................................................................
.............................. CYCLE   29 ..............................
........................................................................
   1   -127.9164322 -0.127916E+03  0.338E-02   10.08       0.0  T
   2   -127.9164342 -0.202277E-05  0.205E-02   10.08       1.0  T
   3   -127.9164349 -0.633428E-06  0.252E-03   10.08       4.6  T
   4   -127.9164349 -0.662468E-07  0.676E-04   10.08      17.1  T
   5   -127.9164349 -0.165615E-08  0.996E-05   10.08     115.9  T
     SCC iter.                  ...        0 min,  0.022 sec
     gradient                   ...        0 min,  0.018 sec
 * total energy  :  -127.1572923 Eh     change       -0.2403275E-03 Eh
   gradient norm :     0.0069277 Eh/α   predicted    -0.2013899E-03 ( -16.20%)
   displ. norm   :     0.3671823 α      lambda       -0.2237806E-03
   maximum displ.:     0.1454440 α      in ANC's #9, #17, #2, ...

........................................................................
.............................. CYCLE   30 ..............................
........................................................................
   1   -127.9168611 -0.127917E+03  0.267E-02   10.08       0.0  T
   2   -127.9168625 -0.134872E-05  0.162E-02   10.08       1.0  T
   3   -127.9168629 -0.416618E-06  0.209E-03   10.08       5.5  T
   4   -127.9168630 -0.457328E-07  0.560E-04   10.08      20.6  T
   5   -127.9168630 -0.107998E-08  0.764E-05   10.08     151.0  T
     SCC iter.                  ...        0 min,  0.022 sec
     gradient                   ...        0 min,  0.018 sec
 * total energy  :  -127.1574526 Eh     change       -0.1603722E-03 Eh
   gradient norm :     0.0046125 Eh/α   predicted    -0.1269826E-03 ( -20.82%)
   displ. norm   :     0.3101745 α      lambda       -0.2101710E-03
   maximum displ.:     0.1235364 α      in ANC's #9, #2, #3, ...

........................................................................
.............................. CYCLE   31 ..............................
........................................................................
   1   -127.9201318 -0.127920E+03  0.225E-02   10.10       0.0  T
   2   -127.9201327 -0.866749E-06  0.137E-02   10.10       1.0  T
   3   -127.9201330 -0.262315E-06  0.162E-03   10.10       7.1  T
   4   -127.9201330 -0.298021E-07  0.448E-04   10.10      25.8  T
   5   -127.9201330 -0.627551E-09  0.614E-05   10.10     188.0  T
     SCC iter.                  ...        0 min,  0.022 sec
     gradient                   ...        0 min,  0.018 sec
 * total energy  :  -127.1575949 Eh     change       -0.1422886E-03 Eh
   gradient norm :     0.0047727 Eh/α   predicted    -0.1151962E-03 ( -19.04%)
   displ. norm   :     0.3849774 α      lambda       -0.1803502E-03
   maximum displ.:     0.1581294 α      in ANC's #9, #2, #17, ...

........................................................................
.............................. CYCLE   32 ..............................
........................................................................
   1   -127.9188490 -0.127919E+03  0.277E-02   10.09       0.0  T
   2   -127.9188505 -0.151906E-05  0.168E-02   10.09       1.0  T
   3   -127.9188509 -0.430480E-06  0.216E-03   10.09       5.3  T
   4   -127.9188510 -0.537831E-07  0.576E-04   10.09      20.1  T
   5   -127.9188510 -0.108746E-08  0.713E-05   10.09     162.0  T
     SCC iter.                  ...        0 min,  0.022 sec
     gradient                   ...        0 min,  0.018 sec
 * total energy  :  -127.1577153 Eh     change       -0.1203892E-03 Eh
   gradient norm :     0.0057587 Eh/α   predicted    -0.1035400E-03 ( -14.00%)
   displ. norm   :     0.3252996 α      lambda       -0.1751233E-03
   maximum displ.:     0.1404844 α      in ANC's #2, #9, #3, ...

........................................................................
.............................. CYCLE   33 ..............................
........................................................................
   1   -127.9202522 -0.127920E+03  0.244E-02   10.10       0.0  T
   2   -127.9202532 -0.102703E-05  0.148E-02   10.10       1.0  T
   3   -127.9202535 -0.283713E-06  0.180E-03   10.10       6.4  T
   4   -127.9202536 -0.354967E-07  0.463E-04   10.10      24.9  T
   5   -127.9202536 -0.617575E-09  0.597E-05   10.10     193.3  T
     SCC iter.                  ...        0 min,  0.022 sec
     gradient                   ...        0 min,  0.018 sec
 * total energy  :  -127.1578273 Eh     change       -0.1120119E-03 Eh
   gradient norm :     0.0055451 Eh/α   predicted    -0.9682799E-04 ( -13.56%)
   displ. norm   :     0.3364640 α      lambda       -0.1675174E-03
   maximum displ.:     0.1457725 α      in ANC's #2, #9, #3, ...

........................................................................
.............................. CYCLE   34 ..............................
........................................................................
   1   -127.9191448 -0.127919E+03  0.254E-02   10.08       0.0  T
   2   -127.9191457 -0.933490E-06  0.155E-02   10.08       1.0  T
   3   -127.9191460 -0.319953E-06  0.165E-03   10.08       7.0  T
   4   -127.9191461 -0.303406E-07  0.479E-04   10.08      24.1  T
   5   -127.9191461 -0.730864E-09  0.633E-05   10.08     182.5  T
     SCC iter.                  ...        0 min,  0.022 sec
     gradient                   ...        0 min,  0.018 sec
 * total energy  :  -127.1579490 Eh     change       -0.1216564E-03 Eh
   gradient norm :     0.0042793 Eh/α   predicted    -0.9324140E-04 ( -23.36%)
   displ. norm   :     0.3527764 α      lambda       -0.1774094E-03
   maximum displ.:     0.1572348 α      in ANC's #2, #3, #9, ...

........................................................................
.............................. CYCLE   35 ..............................
........................................................................
   1   -127.9179511 -0.127918E+03  0.277E-02   10.07       0.0  T
   2   -127.9179520 -0.881884E-06  0.170E-02   10.07       1.0  T
   3   -127.9179524 -0.361603E-06  0.153E-03   10.06       7.5  T
   4   -127.9179524 -0.234384E-07  0.489E-04   10.06      23.6  T
   5   -127.9179524 -0.693774E-09  0.648E-05   10.06     178.1  T
     SCC iter.                  ...        0 min,  0.022 sec
     gradient                   ...        0 min,  0.018 sec
 * total energy  :  -127.1580709 Eh     change       -0.1218713E-03 Eh
   gradient norm :     0.0042565 Eh/α   predicted    -0.9974813E-04 ( -18.15%)
   displ. norm   :     0.3350572 α      lambda       -0.1392501E-03
   maximum displ.:     0.1592265 α      in ANC's #2, #3, #9, ...

........................................................................
.............................. CYCLE   36 ..............................
........................................................................
   1   -127.9174592 -0.127917E+03  0.256E-02   10.06       0.0  T
   2   -127.9174601 -0.885314E-06  0.157E-02   10.06       1.0  T
   3   -127.9174605 -0.333507E-06  0.158E-03   10.06       7.3  T
   4   -127.9174605 -0.272684E-07  0.502E-04   10.06      23.0  T
   5   -127.9174605 -0.832770E-09  0.669E-05   10.06     172.5  T
     SCC iter.                  ...        0 min,  0.022 sec
     gradient                   ...        0 min,  0.018 sec
 * total energy  :  -127.1581654 Eh     change       -0.9452683E-04 Eh
   gradient norm :     0.0061713 Eh/α   predicted    -0.7744429E-04 ( -18.07%)
   displ. norm   :     0.3226916 α      lambda       -0.1425323E-03
   maximum displ.:     0.1522347 α      in ANC's #2, #3, #9, ...

........................................................................
.............................. CYCLE   37 ..............................
........................................................................
   1   -127.9175038 -0.127918E+03  0.223E-02   10.05       0.0  T
   2   -127.9175045 -0.737153E-06  0.136E-02   10.05       1.0  T
   3   -127.9175047 -0.247271E-06  0.144E-03   10.05       8.0  T
   4   -127.9175048 -0.239169E-07  0.430E-04   10.05      26.9  T
   5   -127.9175048 -0.594881E-09  0.607E-05   10.05     190.2  T
     SCC iter.                  ...        0 min,  0.022 sec
     gradient                   ...        0 min,  0.018 sec
 * total energy  :  -127.1582695 Eh     change       -0.1041245E-03 Eh
   gradient norm :     0.0052543 Eh/α   predicted    -0.7868727E-04 ( -24.43%)
   displ. norm   :     0.3842772 α      lambda       -0.1757179E-03
   maximum displ.:     0.1836691 α      in ANC's #2, #3, #9, ...

........................................................................
.............................. CYCLE   38 ..............................
........................................................................
   1   -127.9182283 -0.127918E+03  0.267E-02   10.05       0.0  T
   2   -127.9182294 -0.112582E-05  0.162E-02   10.05       1.0  T
   3   -127.9182298 -0.390632E-06  0.184E-03   10.05       6.3  T
   4   -127.9182298 -0.353213E-07  0.524E-04   10.05      22.0  T
   5   -127.9182298 -0.964917E-09  0.803E-05   10.05     143.8  T
     SCC iter.                  ...        0 min,  0.022 sec
     gradient                   ...        0 min,  0.018 sec
 * total energy  :  -127.1583809 Eh     change       -0.1114174E-03 Eh
   gradient norm :     0.0051358 Eh/α   predicted    -0.1008359E-03 (  -9.50%)
   displ. norm   :     0.3651136 α      lambda       -0.1498580E-03
   maximum displ.:     0.1841509 α      in ANC's #2, #3, #9, ...

........................................................................
.............................. CYCLE   39 ..............................
........................................................................
   1   -127.9197461 -0.127920E+03  0.243E-02   10.06       0.0  T
   2   -127.9197467 -0.666595E-06  0.148E-02   10.06       1.0  T
   3   -127.9197470 -0.280291E-06  0.144E-03   10.06       8.0  T
   4   -127.9197470 -0.181739E-07  0.443E-04   10.06      26.1  T
   5   -127.9197470 -0.735568E-09  0.690E-05   10.06     167.3  T
     SCC iter.                  ...        0 min,  0.022 sec
     gradient                   ...        0 min,  0.018 sec
 * total energy  :  -127.1584825 Eh     change       -0.1016227E-03 Eh
   gradient norm :     0.0062165 Eh/α   predicted    -0.8492045E-04 ( -16.44%)
   displ. norm   :     0.4103476 α      lambda       -0.1678617E-03
   maximum displ.:     0.2053122 α      in ANC's #2, #3, #9, ...

........................................................................
.............................. CYCLE   40 ..............................
........................................................................
   1   -127.9191935 -0.127919E+03  0.277E-02   10.06       0.0  T
   2   -127.9191944 -0.907717E-06  0.169E-02   10.06       1.0  T
   3   -127.9191948 -0.381162E-06  0.165E-03   10.06       7.0  T
   4   -127.9191948 -0.250528E-07  0.527E-04   10.06      21.9  T
   5   -127.9191948 -0.111324E-08  0.805E-05   10.06     143.5  T
     SCC iter.                  ...        0 min,  0.022 sec
     gradient                   ...        0 min,  0.018 sec
 * total energy  :  -127.1586139 Eh     change       -0.1313354E-03 Eh
   gradient norm :     0.0061428 Eh/α   predicted    -0.9806796E-04 ( -25.33%)
   displ. norm   :     0.5032602 α      lambda       -0.2207975E-03
   maximum displ.:     0.2589952 α      in ANC's #2, #3, #5, ...

........................................................................
.............................. CYCLE   41 ..............................
........................................................................
   1   -127.9192013 -0.127919E+03  0.308E-02   10.06       0.0  T
   2   -127.9192026 -0.131416E-05  0.188E-02   10.06       1.0  T
   3   -127.9192031 -0.518837E-06  0.200E-03   10.07       5.8  T
   4   -127.9192031 -0.379622E-07  0.642E-04   10.07      18.0  T
   5   -127.9192031 -0.167192E-08  0.990E-05   10.07     116.6  T
     SCC iter.                  ...        0 min,  0.022 sec
     gradient                   ...        0 min,  0.018 sec
 * total energy  :  -127.1587862 Eh     change       -0.1723163E-03 Eh
   gradient norm :     0.0050806 Eh/α   predicted    -0.1383595E-03 ( -19.71%)
   displ. norm   :     0.6297925 α      lambda       -0.2638204E-03
   maximum displ.:     0.3247187 α      in ANC's #2, #3, #5, ...

........................................................................
.............................. CYCLE   42 ..............................
........................................................................
   1   -127.9176908 -0.127918E+03  0.399E-02   10.07       0.0  T
   2   -127.9176929 -0.212151E-05  0.244E-02   10.07       1.0  T
   3   -127.9176938 -0.899284E-06  0.254E-03   10.07       4.5  T
   4   -127.9176939 -0.573937E-07  0.826E-04   10.07      14.0  T
   5   -127.9176939 -0.261323E-08  0.126E-04   10.07      92.0  T
     SCC iter.                  ...        0 min,  0.022 sec
     gradient                   ...        0 min,  0.018 sec
 * total energy  :  -127.1589625 Eh     change       -0.1763279E-03 Eh
   gradient norm :     0.0091205 Eh/α   predicted    -0.1842326E-03 (   4.48%)
   displ. norm   :     0.5293758 α      lambda       -0.2908233E-03
   maximum displ.:     0.2676164 α      in ANC's #2, #3, #5, ...
 * RMSD in coord.:     0.8465695 α      energy gain  -0.4552451E-02 Eh

generating ANC from model Hessian ...
Using Lindh-Hessian (1995)
 Shifting diagonal of input Hessian by   1.013290548949035E-002
 Lowest  eigenvalues of input Hessian
    0.010000    0.010033    0.010041    0.010058    0.010105    0.010124
    0.000000    0.000000    0.000000    0.000000    0.000000    0.000000
    0.010145    0.010213    0.010245    0.010258    0.010297    0.010316
 Highest eigenvalues
    1.412505    1.413100    1.413882    1.417676    1.421137    1.421178
 

........................................................................
.............................. CYCLE   43 ..............................
........................................................................
   1   -127.9196062 -0.127920E+03  0.301E-02   10.07       0.0  T
   2   -127.9196078 -0.166990E-05  0.182E-02   10.07       1.0  T
   3   -127.9196083 -0.497270E-06  0.230E-03   10.08       5.0  T
   4   -127.9196084 -0.546705E-07  0.624E-04   10.07      18.5  T
   5   -127.9196084 -0.136417E-08  0.925E-05   10.07     124.8  T
     SCC iter.                  ...        0 min,  0.022 sec
     gradient                   ...        0 min,  0.018 sec
 * total energy  :  -127.1591747 Eh     change       -0.2121947E-03 Eh
   gradient norm :     0.0073951 Eh/α   predicted     0.0000000E+00 (-100.00%)
   displ. norm   :     0.0793673 α      lambda       -0.1521304E-03
   maximum displ.:     0.0309227 α      in ANC's #7, #2, #3, ...

........................................................................
.............................. CYCLE   44 ..............................
........................................................................
   1   -127.9198033 -0.127920E+03  0.141E-02   10.07       0.0  T
   2   -127.9198037 -0.428698E-06  0.850E-03   10.07       1.4  T
   3   -127.9198038 -0.110776E-06  0.116E-03   10.07       9.9  T
   4   -127.9198038 -0.146615E-07  0.296E-04   10.07      39.1  T
   5   -127.9198038 -0.253209E-09  0.350E-05   10.07     329.8  T
     SCC iter.                  ...        0 min,  0.022 sec
     gradient                   ...        0 min,  0.018 sec
 * total energy  :  -127.1592889 Eh     change       -0.1141721E-03 Eh
   gradient norm :     0.0028954 Eh/α   predicted    -0.7859093E-04 ( -31.16%)
   displ. norm   :     0.1502810 α      lambda       -0.1467508E-03
   maximum displ.:     0.0699662 α      in ANC's #7, #2, #3, ...

........................................................................
.............................. CYCLE   45 ..............................
........................................................................
   1   -127.9199197 -0.127920E+03  0.195E-02   10.07       0.0  T
   2   -127.9199205 -0.749883E-06  0.118E-02   10.07       1.0  T
   3   -127.9199207 -0.202578E-06  0.153E-03   10.07       7.6  T
   4   -127.9199207 -0.261617E-07  0.407E-04   10.07      28.4  T
   5   -127.9199207 -0.519563E-09  0.528E-05   10.07     218.7  T
     SCC iter.                  ...        0 min,  0.022 sec
     gradient                   ...        0 min,  0.018 sec
 * total energy  :  -127.1593866 Eh     change       -0.9775026E-04 Eh
   gradient norm :     0.0035649 Eh/α   predicted    -0.7503644E-04 ( -23.24%)
   displ. norm   :     0.1668513 α      lambda       -0.9560301E-04
   maximum displ.:     0.0768938 α      in ANC's #7, #3, #2, ...

........................................................................
.............................. CYCLE   46 ..............................
........................................................................
   1   -127.9199767 -0.127920E+03  0.168E-02   10.07       0.0  T
   2   -127.9199771 -0.407254E-06  0.102E-02   10.07       1.1  T
   3   -127.9199772 -0.132869E-06  0.110E-03   10.07      10.5  T
   4   -127.9199773 -0.135068E-07  0.319E-04   10.07      36.2  T
   5   -127.9199773 -0.311744E-09  0.433E-05   10.07     266.7  T
     SCC iter.                  ...        0 min,  0.022 sec
     gradient                   ...        0 min,  0.018 sec
 * total energy  :  -127.1594642 Eh     change       -0.7758616E-04 Eh
   gradient norm :     0.0052288 Eh/α   predicted    -0.4913362E-04 ( -36.67%)
   displ. norm   :     0.3302011 α      lambda       -0.1792963E-03
   maximum displ.:     0.1516058 α      in ANC's #7, #3, #2, ...

........................................................................
.............................. CYCLE   47 ..............................
........................................................................
   1   -127.9198964 -0.127920E+03  0.287E-02   10.08       0.0  T
   2   -127.9198973 -0.920343E-06  0.176E-02   10.07       1.0  T
   3   -127.9198977 -0.367375E-06  0.162E-03   10.07       7.1  T
   4   -127.9198977 -0.259338E-07  0.510E-04   10.07      22.6  T
   5   -127.9198977 -0.865555E-09  0.767E-05   10.07     150.5  T
     SCC iter.                  ...        0 min,  0.022 sec
     gradient                   ...        0 min,  0.018 sec
 * total energy  :  -127.1596131 Eh     change       -0.1488271E-03 Eh
   gradient norm :     0.0060780 Eh/α   predicted    -0.9942451E-04 ( -33.19%)
   displ. norm   :     0.4878406 α      lambda       -0.2645848E-03
   maximum displ.:     0.2224320 α      in ANC's #7, #3, #2, ...

........................................................................
.............................. CYCLE   48 ..............................
........................................................................
   1   -127.9196864 -0.127920E+03  0.362E-02   10.08       0.0  T
   2   -127.9196877 -0.123095E-05  0.222E-02   10.08       1.0  T
   3   -127.9196882 -0.571452E-06  0.189E-03   10.08       6.1  T
   4   -127.9196883 -0.288416E-07  0.600E-04   10.08      19.3  T
   5   -127.9196883 -0.137858E-08  0.981E-05   10.08     117.7  T
     SCC iter.                  ...        0 min,  0.021 sec
     gradient                   ...        0 min,  0.018 sec
 * total energy  :  -127.1598348 Eh     change       -0.2217301E-03 Eh
   gradient norm :     0.0056198 Eh/α   predicted    -0.1637766E-03 ( -26.14%)
   displ. norm   :     0.5862758 α      lambda       -0.3290586E-03
   maximum displ.:     0.2689644 α      in ANC's #7, #3, #2, ...

........................................................................
.............................. CYCLE   49 ..............................
........................................................................
   1   -127.9196887 -0.127920E+03  0.394E-02   10.09       0.0  T
   2   -127.9196901 -0.144068E-05  0.241E-02   10.09       1.0  T
   3   -127.9196908 -0.706776E-06  0.205E-03   10.09       5.6  T
   4   -127.9196909 -0.310152E-07  0.644E-04   10.09      17.9  T
   5   -127.9196909 -0.169098E-08  0.107E-04   10.09     108.1  T
     SCC iter.                  ...        0 min,  0.022 sec
     gradient                   ...        0 min,  0.018 sec
 * total energy  :  -127.1601222 Eh     change       -0.2874224E-03 Eh
   gradient norm :     0.0053587 Eh/α   predicted    -0.2210815E-03 ( -23.08%)
   displ. norm   :     0.6811080 α      lambda       -0.4284717E-03
   maximum displ.:     0.3118757 α      in ANC's #7, #3, #2, ...

........................................................................
.............................. CYCLE   50 ..............................
........................................................................
   1   -127.9202933 -0.127920E+03  0.423E-02   10.10       0.0  T
   2   -127.9202952 -0.190966E-05  0.259E-02   10.10       1.0  T
   3   -127.9202961 -0.892778E-06  0.238E-03   10.11       4.9  T
   4   -127.9202961 -0.468159E-07  0.778E-04   10.10      14.8  T
   5   -127.9202961 -0.239858E-08  0.117E-04   10.10      98.7  T
     SCC iter.                  ...        0 min,  0.022 sec
     gradient                   ...        0 min,  0.018 sec
 * total energy  :  -127.1605145 Eh     change       -0.3923044E-03 Eh
   gradient norm :     0.0064578 Eh/α   predicted    -0.3136246E-03 ( -20.06%)
   displ. norm   :     0.7423894 α      lambda       -0.5817215E-03
   maximum displ.:     0.3345523 α      in ANC's #7, #3, #2, ...

........................................................................
.............................. CYCLE   51 ..............................
........................................................................
   1   -127.9222855 -0.127922E+03  0.446E-02   10.11       0.0  T
   2   -127.9222882 -0.267903E-05  0.272E-02   10.12       1.0  T
   3   -127.9222893 -0.107330E-05  0.284E-03   10.12       4.1  T
   4   -127.9222894 -0.785098E-07  0.894E-04   10.12      12.9  T
   5   -127.9222894 -0.299808E-08  0.127E-04   10.12      91.1  T
     SCC iter.                  ...        0 min,  0.022 sec
     gradient                   ...        0 min,  0.018 sec
 * total energy  :  -127.1610454 Eh     change       -0.5308676E-03 Eh
   gradient norm :     0.0082668 Eh/α   predicted    -0.4511791E-03 ( -15.01%)
   displ. norm   :     0.8449658 α      lambda       -0.7602366E-03
   maximum displ.:     0.3770614 α      in ANC's #7, #2, #3, ...

........................................................................
.............................. CYCLE   52 ..............................
........................................................................
   1   -127.9205886 -0.127921E+03  0.594E-02   10.12       0.0  T
   2   -127.9205934 -0.482418E-05  0.363E-02   10.12       1.0  T
   3   -127.9205956 -0.211814E-05  0.386E-03   10.12       3.0  T
   4   -127.9205957 -0.136376E-06  0.131E-03   10.12       8.8  T
   5   -127.9205957 -0.655885E-08  0.161E-04   10.12      71.7  T
   6   -127.9205957 -0.116501E-09  0.703E-05   10.12     164.2  T
     SCC iter.                  ...        0 min,  0.026 sec
     gradient                   ...        0 min,  0.018 sec
 * total energy  :  -127.1616607 Eh     change       -0.6153505E-03 Eh
   gradient norm :     0.0152592 Eh/α   predicted    -0.6515112E-03 (   5.88%)
   displ. norm   :     0.6472489 α      lambda       -0.9837616E-03
   maximum displ.:     0.2299698 α      in ANC's #7, #2, #3, ...

........................................................................
.............................. CYCLE   53 ..............................
........................................................................
   1   -127.9255052 -0.127926E+03  0.513E-02   10.12       0.0  T
   2   -127.9255119 -0.666421E-05  0.307E-02   10.13       1.0  T
   3   -127.9255137 -0.182860E-05  0.472E-03   10.13       2.4  T
   4   -127.9255139 -0.211516E-06  0.115E-03   10.13      10.0  T
   5   -127.9255139 -0.518088E-08  0.189E-04   10.13      61.2  T
   6   -127.9255139 -0.173685E-09  0.717E-05   10.13     161.0  T
     SCC iter.                  ...        0 min,  0.026 sec
     gradient                   ...        0 min,  0.018 sec
 * total energy  :  -127.1622986 Eh     change       -0.6378557E-03 Eh
   gradient norm :     0.0128255 Eh/α   predicted    -0.6979470E-03 (   9.42%)
   displ. norm   :     0.7953795 α      lambda       -0.1027212E-02
   maximum displ.:     0.3601169 α      in ANC's #7, #2, #3, ...

........................................................................
.............................. CYCLE   54 ..............................
........................................................................
   1   -127.9186221 -0.127919E+03  0.539E-02   10.10       0.0  T
   2   -127.9186248 -0.274971E-05  0.327E-02   10.10       1.0  T
   3   -127.9186260 -0.116107E-05  0.290E-03   10.11       4.0  T
   4   -127.9186260 -0.698163E-07  0.893E-04   10.11      12.9  T
   5   -127.9186260 -0.345955E-08  0.153E-04   10.11      75.2  T
     SCC iter.                  ...        0 min,  0.022 sec
     gradient                   ...        0 min,  0.018 sec
 * total energy  :  -127.1631012 Eh     change       -0.8026208E-03 Eh
   gradient norm :     0.0157930 Eh/α   predicted    -0.8385454E-03 (   4.48%)
   displ. norm   :     0.5679825 α      lambda       -0.1186368E-02
   maximum displ.:     0.2627552 α      in ANC's #7, #2, #3, ...

........................................................................
.............................. CYCLE   55 ..............................
........................................................................
   1   -127.9195976 -0.127920E+03  0.454E-02   10.09       0.0  T
   2   -127.9196035 -0.587913E-05  0.271E-02   10.09       1.0  T
   3   -127.9196047 -0.122337E-05  0.439E-03   10.09       2.6  T
   4   -127.9196049 -0.178972E-06  0.887E-04   10.09      13.0  T
   5   -127.9196049 -0.229554E-08  0.142E-04   10.09      81.4  T
     SCC iter.                  ...        0 min,  0.022 sec
     gradient                   ...        0 min,  0.018 sec
 * total energy  :  -127.1638105 Eh     change       -0.7093363E-03 Eh
   gradient norm :     0.0131671 Eh/α   predicted    -0.7845487E-03 (  10.60%)
   displ. norm   :     0.7159487 α      lambda       -0.1143777E-02
   maximum displ.:     0.3181930 α      in ANC's #7, #2, #3, ...

........................................................................
.............................. CYCLE   56 ..............................
........................................................................
   1   -127.9182997 -0.127918E+03  0.545E-02   10.07       0.0  T
   2   -127.9183037 -0.396646E-05  0.334E-02   10.07       1.0  T
   3   -127.9183058 -0.216202E-05  0.350E-03   10.07       3.3  T
   4   -127.9183059 -0.843246E-07  0.119E-03   10.07       9.7  T
   5   -127.9183059 -0.637027E-08  0.160E-04   10.07      72.2  T
   6   -127.9183059 -0.123350E-09  0.666E-05   10.07     173.4  T
     SCC iter.                  ...        0 min,  0.025 sec
     gradient                   ...        0 min,  0.018 sec
 * total energy  :  -127.1645099 Eh     change       -0.6993365E-03 Eh
   gradient norm :     0.0171828 Eh/α   predicted    -0.8650293E-03 (  23.69%)
   displ. norm   :     0.3389484 α      lambda       -0.8916224E-03
   maximum displ.:     0.1074004 α      in ANC's #19, #23, #11, ...

........................................................................
.............................. CYCLE   57 ..............................
........................................................................
   1   -127.9295316 -0.127930E+03  0.472E-02   10.11       0.0  T
   2   -127.9295377 -0.611320E-05  0.283E-02   10.11       1.0  T
   3   -127.9295392 -0.148961E-05  0.432E-03   10.11       2.7  T
   4   -127.9295394 -0.189558E-06  0.102E-03   10.11      11.3  T
   5   -127.9295394 -0.348956E-08  0.162E-04   10.11      71.3  T
   6   -127.9295394 -0.123578E-09  0.638E-05   10.11     181.0  T
     SCC iter.                  ...        0 min,  0.026 sec
     gradient                   ...        0 min,  0.018 sec
 * total energy  :  -127.1646098 Eh     change       -0.9991122E-04 Eh
   gradient norm :     0.0173788 Eh/α   predicted    -0.4970320E-03 ( 397.47%)
   displ. norm   :     0.5667391 α      lambda       -0.1214223E-02
   maximum displ.:     0.2783275 α      in ANC's #7, #2, #3, ...

........................................................................
.............................. CYCLE   58 ..............................
........................................................................
   1   -127.9237779 -0.127924E+03  0.513E-02   10.08       0.0  T
   2   -127.9237882 -0.102762E-04  0.299E-02   10.08       1.0  T
   3   -127.9237900 -0.182020E-05  0.584E-03   10.07       2.0  T
   4   -127.9237903 -0.269779E-06  0.108E-03   10.07      10.7  T
   5   -127.9237903 -0.385909E-08  0.176E-04   10.07      65.5  T
   6   -127.9237903 -0.137419E-09  0.726E-05   10.07     158.9  T
     SCC iter.                  ...        0 min,  0.026 sec
     gradient                   ...        0 min,  0.018 sec
 * total energy  :  -127.1651301 Eh     change       -0.5202913E-03 Eh
   gradient norm :     0.0132196 Eh/α   predicted    -0.8021174E-03 (  54.17%)
   displ. norm   :     0.1731492 α      lambda       -0.6979381E-03
   maximum displ.:     0.0679783 α      in ANC's #7, #6, #42, ...

........................................................................
.............................. CYCLE   59 ..............................
........................................................................
   1   -127.9199195 -0.127920E+03  0.342E-02   10.05       0.0  T
   2   -127.9199234 -0.393043E-05  0.206E-02   10.04       1.0  T
   3   -127.9199245 -0.104230E-05  0.359E-03   10.04       3.2  T
   4   -127.9199246 -0.121593E-06  0.921E-04   10.04      12.5  T
   5   -127.9199246 -0.224135E-08  0.945E-05   10.04     122.2  T
     SCC iter.                  ...        0 min,  0.021 sec
     gradient                   ...        0 min,  0.018 sec
 * total energy  :  -127.1653752 Eh     change       -0.2451265E-03 Eh
   gradient norm :     0.0141702 Eh/α   predicted    -0.3594368E-03 (  46.63%)
   displ. norm   :     0.3167540 α      lambda       -0.5607770E-03
   maximum displ.:     0.1596187 α      in ANC's #7, #2, #6, ...

........................................................................
.............................. CYCLE   60 ..............................
........................................................................
   1   -127.9227888 -0.127923E+03  0.326E-02   10.04       0.0  T
   2   -127.9227904 -0.154997E-05  0.197E-02   10.04       1.0  T
   3   -127.9227909 -0.511289E-06  0.218E-03   10.04       5.3  T
   4   -127.9227909 -0.469967E-07  0.651E-04   10.04      17.7  T
   5   -127.9227909 -0.120970E-08  0.826E-05   10.04     139.9  T
     SCC iter.                  ...        0 min,  0.022 sec
     gradient                   ...        0 min,  0.018 sec
 * total energy  :  -127.1656779 Eh     change       -0.3026508E-03 Eh
   gradient norm :     0.0131658 Eh/α   predicted    -0.3085242E-03 (   1.94%)
   displ. norm   :     0.3565411 α      lambda       -0.6815759E-03
   maximum displ.:     0.1821969 α      in ANC's #7, #2, #21, ...

........................................................................
.............................. CYCLE   61 ..............................
........................................................................
   1   -127.9281469 -0.127928E+03  0.396E-02   10.06       0.0  T
   2   -127.9281494 -0.247423E-05  0.240E-02   10.06       1.0  T
   3   -127.9281502 -0.814949E-06  0.265E-03   10.07       4.4  T
   4   -127.9281503 -0.708220E-07  0.797E-04   10.07      14.5  T
   5   -127.9281503 -0.209509E-08  0.116E-04   10.07      99.5  T
     SCC iter.                  ...        0 min,  0.022 sec
     gradient                   ...        0 min,  0.018 sec
 * total energy  :  -127.1658358 Eh     change       -0.1579931E-03 Eh
   gradient norm :     0.0191577 Eh/α   predicted    -0.3841098E-03 ( 143.12%)
   displ. norm   :     0.3538177 α      lambda       -0.7654676E-03
   maximum displ.:     0.1984879 α      in ANC's #7, #2, #6, ...

........................................................................
.............................. CYCLE   62 ..............................
........................................................................
   1   -127.9272167 -0.127927E+03  0.336E-02   10.06       0.0  T
   2   -127.9272180 -0.130984E-05  0.204E-02   10.06       1.0  T
   3   -127.9272186 -0.593156E-06  0.200E-03   10.06       5.8  T
   4   -127.9272186 -0.286764E-07  0.651E-04   10.06      17.7  T
   5   -127.9272186 -0.147999E-08  0.812E-05   10.06     142.1  T
     SCC iter.                  ...        0 min,  0.022 sec
     gradient                   ...        0 min,  0.018 sec
 * total energy  :  -127.1662718 Eh     change       -0.4359677E-03 Eh
   gradient norm :     0.0087449 Eh/α   predicted    -0.4306508E-03 (  -1.22%)
   displ. norm   :     0.4767435 α      lambda       -0.5785093E-03
   maximum displ.:     0.2804153 α      in ANC's #7, #2, #10, ...

........................................................................
.............................. CYCLE   63 ..............................
........................................................................
   1   -127.9238980 -0.127924E+03  0.439E-02   10.03       0.0  T
   2   -127.9239002 -0.221269E-05  0.269E-02   10.02       1.0  T
   3   -127.9239012 -0.977203E-06  0.248E-03   10.02       4.7  T
   4   -127.9239012 -0.586317E-07  0.846E-04   10.02      13.6  T
   5   -127.9239012 -0.232473E-08  0.937E-05   10.02     123.3  T
     SCC iter.                  ...        0 min,  0.022 sec
     gradient                   ...        0 min,  0.018 sec
 * total energy  :  -127.1666091 Eh     change       -0.3372349E-03 Eh
   gradient norm :     0.0109356 Eh/α   predicted    -0.3549990E-03 (   5.27%)
   displ. norm   :     0.4813189 α      lambda       -0.4667006E-03
   maximum displ.:     0.2900417 α      in ANC's #7, #2, #6, ...

........................................................................
.............................. CYCLE   64 ..............................
........................................................................
   1   -127.9242838 -0.127924E+03  0.360E-02   10.00       0.0  T
   2   -127.9242851 -0.128270E-05  0.220E-02   10.00       1.0  T
   3   -127.9242857 -0.583521E-06  0.190E-03   10.00       6.1  T
   4   -127.9242857 -0.326591E-07  0.650E-04   10.00      17.8  T
   5   -127.9242857 -0.152966E-08  0.775E-05   10.00     148.9  T
     SCC iter.                  ...        0 min,  0.022 sec
     gradient                   ...        0 min,  0.018 sec
 * total energy  :  -127.1669870 Eh     change       -0.3779428E-03 Eh
   gradient norm :     0.0099244 Eh/α   predicted    -0.2874111E-03 ( -23.95%)
   displ. norm   :     0.6088968 α      lambda       -0.6893483E-03
   maximum displ.:     0.3651946 α      in ANC's #7, #10, #6, ...

........................................................................
.............................. CYCLE   65 ..............................
........................................................................
   1   -127.9312515 -0.127931E+03  0.423E-02   10.01       0.0  T
   2   -127.9312538 -0.236030E-05  0.257E-02   10.01       1.0  T
   3   -127.9312547 -0.817418E-06  0.267E-03   10.01       4.3  T
   4   -127.9312547 -0.769262E-07  0.811E-04   10.01      14.2  T
   5   -127.9312547 -0.225909E-08  0.974E-05   10.01     118.5  T
     SCC iter.                  ...        0 min,  0.022 sec
     gradient                   ...        0 min,  0.018 sec
 * total energy  :  -127.1674400 Eh     change       -0.4529618E-03 Eh
   gradient norm :     0.0085371 Eh/α   predicted    -0.4724673E-03 (   4.31%)
   displ. norm   :     0.6674281 α      lambda       -0.6042508E-03
   maximum displ.:     0.4274983 α      in ANC's #7, #10, #2, ...

........................................................................
.............................. CYCLE   66 ..............................
........................................................................
   1   -127.9273406 -0.127927E+03  0.554E-02    9.98       0.0  T
   2   -127.9273437 -0.304618E-05  0.339E-02    9.98       1.0  T
   3   -127.9273451 -0.142433E-05  0.296E-03    9.98       3.9  T
   4   -127.9273452 -0.777444E-07  0.102E-03    9.98      11.4  T
   5   -127.9273452 -0.398012E-08  0.128E-04    9.98      90.0  T
   6   -127.9273452 -0.846967E-10  0.563E-05    9.98     205.0  T
     SCC iter.                  ...        0 min,  0.026 sec
     gradient                   ...        0 min,  0.018 sec
 * total energy  :  -127.1678237 Eh     change       -0.3837359E-03 Eh
   gradient norm :     0.0120053 Eh/α   predicted    -0.4367189E-03 (  13.81%)
   displ. norm   :     0.4886952 α      lambda       -0.6766092E-03
   maximum displ.:     0.2608868 α      in ANC's #7, #12, #10, ...
 * RMSD in coord.:     1.1197685 α      energy gain  -0.8861171E-02 Eh

generating ANC from model Hessian ...
Using Lindh-Hessian (1995)
 Shifting diagonal of input Hessian by   1.011896143810412E-002
 Lowest  eigenvalues of input Hessian
    0.010000    0.010044    0.010103    0.000000    0.000000    0.000000
    0.000000    0.000000    0.000000    0.010180    0.010196    0.010223
    0.010271    0.010286    0.010392    0.010416    0.010431    0.010488
 Highest eigenvalues
    1.408353    1.414040    1.415605    1.417693    1.421911    1.425719
 

........................................................................
.............................. CYCLE   67 ..............................
........................................................................
   1   -127.9309541 -0.127931E+03  0.499E-02    9.99       0.0  T
   2   -127.9309576 -0.354857E-05  0.304E-02    9.99       1.0  T
   3   -127.9309592 -0.156794E-05  0.333E-03    9.99       3.5  T
   4   -127.9309593 -0.875090E-07  0.106E-03    9.99      10.9  T
   5   -127.9309593 -0.459730E-08  0.155E-04    9.99      74.7  T
   6   -127.9309593 -0.112806E-09  0.647E-05    9.99     178.6  T
     SCC iter.                  ...        0 min,  0.026 sec
     gradient                   ...        0 min,  0.018 sec
 * total energy  :  -127.1680065 Eh     change       -0.1827818E-03 Eh
   gradient norm :     0.0187058 Eh/α   predicted     0.0000000E+00 (-100.00%)
   displ. norm   :     0.1393475 α      lambda       -0.6780396E-03
   maximum displ.:     0.0433505 α      in ANC's #13, #20, #24, ...

........................................................................
.............................. CYCLE   68 ..............................
........................................................................
   1   -127.9308640 -0.127931E+03  0.260E-02    9.98       0.0  T
   2   -127.9308649 -0.992397E-06  0.158E-02    9.98       1.0  T
   3   -127.9308653 -0.358115E-06  0.167E-03    9.98       6.9  T
[...]
    64   8 o       66   1 h                                       0.9566104 (min)
    67   8 o       68   1 h                                       0.9709867
    67   8 o       69   1 h                                       0.9681504
    70   8 o       71   1 h                                       0.9731626
    70   8 o       72   1 h                                       0.9641574
    73   8 o       74   1 h                                       0.9733360
    73   8 o       75   1 h                                       0.9730471

 * 1 distinct bonds (by element types)

   Z      Z             #   av. dist./Å        max./Å        min./Å
   1 H    8 O          48     0.9742378     0.9977863     0.9566104

           -------------------------------------------------
          |               Frequency Printout                |
           -------------------------------------------------
 projected vibrational frequencies (cm⁻¹)
eigval :       -0.00    -0.00     0.00     0.00     0.00     0.00
eigval :       24.22    32.35    33.34    36.72    37.28    41.68
eigval :       44.16    44.95    48.43    51.14    53.69    55.88
eigval :       57.94    60.25    61.35    63.64    66.07    67.67
eigval :       72.03    73.57    74.68    82.89    83.83    86.13
eigval :       89.92    92.25    97.89   115.81   131.60   140.22
eigval :      141.96   145.05   146.36   151.17   165.04   166.69
eigval :      169.08   171.55   177.91   178.67   185.57   203.11
eigval :      209.37   212.64   217.09   221.81   225.51   227.36
eigval :      230.46   235.23   239.36   242.80   249.50   257.56
eigval :      262.24   271.29   276.38   281.67   282.24   283.71
eigval :      291.63   293.29   294.97   297.83   300.11   308.09
eigval :      321.61   327.25   331.26   345.66   353.93   365.86
eigval :      369.72   376.50   382.07   408.10   412.83   413.40
eigval :      415.20   426.55   440.67   449.12   452.97   465.51
eigval :      466.05   477.36   478.75   486.25   493.67   496.49
eigval :      501.55   505.15   511.47   519.92   528.96   535.08
eigval :      538.92   545.12   553.28   559.36   562.43   565.17
eigval :      576.37   581.96   588.69   594.63   598.14   608.91
eigval :      620.47   624.78   630.40   642.26   648.69   653.92
eigval :      659.58   667.73   679.16   680.00   688.49   695.36
eigval :      699.10   711.14   720.81   734.06   740.08   745.20
eigval :      754.85   761.25   775.25   781.71   797.28   811.90
eigval :      838.09   849.26   856.89   875.02   878.16   897.64
eigval :      910.75   932.34   934.11   971.90   978.08  1056.55
eigval :     1493.37  1495.74  1505.91  1515.51  1517.86  1521.84
eigval :     1523.11  1524.35  1525.84  1527.25  1530.55  1531.73
eigval :     1535.08  1535.86  1540.20  1543.59  1548.38  1552.31
eigval :     1552.87  1556.83  1559.15  1561.51  1565.81  1568.36
eigval :     1579.42  2777.43  2842.37  2853.30  2915.68  2917.12
eigval :     2927.86  3008.62  3027.94  3108.29  3114.37  3145.75
eigval :     3179.35  3188.57  3192.14  3209.87  3220.54  3238.81
eigval :     3261.73  3300.67  3332.11  3345.24  3350.16  3357.54
eigval :     3361.24  3367.54  3379.84  3400.65  3406.41  3406.85
eigval :     3414.35  3418.90  3433.26  3443.19  3454.81  3459.03
eigval :     3465.36  3487.30  3495.04  3518.41  3523.26  3537.59
eigval :     3555.12  3675.99  3678.66  3678.81  3681.37  3684.75
eigval :     3686.81  3687.40  3688.81
 reduced masses (amu)
   1: 14.30   2: 14.33   3: 14.31   4: 14.27   5: 14.29   6: 14.31   7: 14.26   8: 14.33
   9: 14.30  10: 14.32  11: 14.46  12: 14.31  13: 14.34  14: 14.45  15: 14.49  16: 14.18
  17: 14.32  18: 14.26  19: 14.45  20: 14.36  21: 14.48  22: 14.27  23: 14.37  24: 14.33
  25: 14.10  26: 14.57  27: 14.52  28: 14.51  29: 14.47  30: 14.51  31: 14.61  32: 14.52
  33: 14.70  34: 13.76  35: 12.14  36: 13.97  37: 13.32  38: 13.36  39: 10.90  40: 13.69
  41: 10.88  42: 13.66  43:  9.24  44: 10.65  45: 11.66  46: 11.66  47: 10.84  48: 12.88
  49: 11.95  50: 12.60  51:  8.48  52: 12.83  53: 11.94  54: 13.73  55: 11.86  56: 10.23
  57: 13.63  58:  9.87  59: 10.80  60: 12.71  61:  9.75  62: 11.62  63: 10.75  64: 12.19
  65: 11.87  66: 13.48  67: 12.77  68:  9.80  69: 10.28  70:  9.77  71: 13.84  72: 10.87
  73: 12.72  74: 13.12  75: 13.23  76: 13.43  77: 12.36  78: 13.65  79: 12.89  80: 13.44
  81: 12.87  82:  4.43  83:  6.73  84:  9.50  85:  9.41  86:  3.62  87:  2.05  88:  2.63
  89:  2.11  90:  1.74  91:  1.76  92:  1.87  93:  1.76  94:  1.59  95:  2.21  96:  1.78
  97:  1.89  98:  2.11  99:  1.88 100:  1.80 101:  1.59 102:  1.78 103:  1.65 104:  1.60
 105:  1.97 106:  1.98 107:  1.85 108:  1.85 109:  1.76 110:  1.84 111:  1.77 112:  1.75
 113:  1.56 114:  1.67 115:  1.71 116:  1.69 117:  1.75 118:  1.88 119:  1.68 120:  1.80
 121:  1.70 122:  1.85 123:  2.11 124:  2.04 125:  2.03 126:  1.86 127:  2.11 128:  1.99
 129:  2.04 130:  1.86 131:  2.09 132:  2.15 133:  2.02 134:  2.03 135:  1.70 136:  2.08
 137:  2.01 138:  2.14 139:  2.10 140:  2.21 141:  2.10 142:  2.03 143:  1.89 144:  1.77
 145:  1.71 146:  1.65 147:  2.03 148:  1.76 149:  2.04 150:  1.75 151:  2.02 152:  1.99
 153:  2.05 154:  2.02 155:  2.00 156:  2.08 157:  2.04 158:  2.01 159:  2.04 160:  2.02
 161:  2.04 162:  2.05 163:  2.03 164:  2.04 165:  2.02 166:  2.02 167:  2.05 168:  2.05
 169:  2.05 170:  2.04 171:  2.09 172:  2.05 173:  2.05 174:  2.10 175:  1.93 176:  1.90
 177:  2.04 178:  1.96 179:  1.87 180:  1.89 181:  1.90 182:  1.96 183:  1.90 184:  1.84
 185:  1.83 186:  1.92 187:  1.99 188:  1.93 189:  1.98 190:  1.93 191:  1.98 192:  1.87
 193:  2.01 194:  1.97 195:  1.91 196:  1.77 197:  2.00 198:  2.06 199:  2.00 200:  1.93
 201:  1.93 202:  1.77 203:  1.80 204:  1.75 205:  1.77 206:  1.79 207:  1.66 208:  1.68
 209:  1.76 210:  1.72 211:  1.75 212:  1.66 213:  1.72 214:  1.76 215:  1.75 216:  1.76
 217:  1.80 218:  1.84 219:  1.84 220:  1.84 221:  1.84 222:  1.84 223:  1.84 224:  1.84
 225:  1.84
 IR intensities (km·mol⁻¹)
   1:  0.01   2:  0.01   3:  0.02   4:  0.01   5:  0.03   6:  0.02   7:  0.63   8:  0.49
   9:  0.97  10:  0.54  11:  0.10  12:  2.88  13:  2.87  14:  0.74  15:  0.51  16:  1.25
  17:  1.72  18:  0.50  19:  1.80  20:  0.47  21:  1.05  22:  1.88  23:  1.25  24:  1.49
  25:  5.66  26:  3.36  27:  1.56  28:  0.96  29:  0.64  30:  2.23  31:  1.89  32:  1.71
  33:  2.33  34:  2.06  35:  2.29  36:  2.18  37: 11.95  38:  7.86  39: 13.10  40:  5.34
  41:  6.64  42:  2.05  43:  3.97  44:  4.87  45:  7.80  46:  5.93  47: 10.61  48: 26.53
  49:  6.07  50:  4.42  51: 25.34  52: 23.71  53: 19.75  54:  5.36  55: 19.57  56: 21.83
  57: 22.74  58: 12.87  59: 14.60  60: 18.29  61: 79.86  62: 30.20  63:  3.62  64: 22.79
  65: 11.44  66: 42.08  67: 31.97  68: 22.25  69: 55.08  70:109.18  71: 20.38  72: 48.41
  73:149.84  74: 32.45  75: 73.03  76: 18.14  77:  0.33  78: 32.33  79: 24.52  80: 20.28
  81: 63.82  82: 26.36  83: 14.96  84: 24.43  85: 26.94  86: 15.77  87: 24.44  88:  6.11
  89:106.09  90: 35.08  91: 19.68  92:  3.29  93: 20.81  94: 55.10  95: 20.98  96: 73.89
  97: 55.82  98: 28.13  99: 23.27 100: 62.81 101: 52.81 102: 29.83 103: 18.13 104: 38.79
 105: 24.74 106:194.53 107: 29.41 108: 78.90 109: 46.57 110: 19.57 111: 52.55 112: 27.51
 113: 72.22 114: 11.89 115: 54.58 116: 66.43 117: 48.74 118:181.21 119: 33.80 120:119.23
 121: 38.65 122:135.51 123:162.71 124:239.50 125:156.65 126: 96.52 127:148.25 128:163.85
 129:633.19 130:642.15 131:228.53 132:211.12 133:239.24 134: 66.92 135:182.32 136:878.59
 137:172.60 138:****** 139:109.20 140:382.53 141:288.80 142:208.14 143: 79.21 144:241.19
 145:218.09 146:115.06 147:398.50 148:454.58 149:192.43 150:219.49 151: 69.52 152: 14.69
 153: 86.78 154:204.28 155: 12.02 156:101.67 157:207.73 158:391.95 159:137.40 160:205.34
 161:152.38 162:465.69 163: 27.13 164:408.83 165: 37.05 166:242.17 167:134.13 168:553.69
 169:237.04 170:195.07 171:298.35 172:225.62 173:195.73 174: 62.56 175: 70.40 176:******
 177:613.17 178:****** 179:568.10 180:963.67 181:776.31 182:****** 183:564.62 184:******
 185:677.93 186:****** 187:243.55 188:977.06 189:872.25 190:850.49 191:****** 192:******
 193:488.15 194:775.65 195:895.30 196:148.60 197:719.16 198:****** 199:452.12 200:189.70
 201:374.75 202: 21.59 203:529.96 204: 39.25 205:284.22 206:460.96 207:473.93 208:405.09
 209:349.49 210:209.82 211:190.38 212:226.44 213:240.33 214:179.31 215:124.17 216:121.49
 217:174.66 218: 13.57 219: 16.15 220: 10.27 221: 11.73 222:  8.93 223:  9.86 224: 14.05
 225:  7.14
 Raman intensities (amu)
   1:  0.00   2:  0.00   3:  0.00   4:  0.00   5:  0.00   6:  0.00   7:  0.00   8:  0.00
   9:  0.00  10:  0.00  11:  0.00  12:  0.00  13:  0.00  14:  0.00  15:  0.00  16:  0.00
  17:  0.00  18:  0.00  19:  0.00  20:  0.00  21:  0.00  22:  0.00  23:  0.00  24:  0.00
  25:  0.00  26:  0.00  27:  0.00  28:  0.00  29:  0.00  30:  0.00  31:  0.00  32:  0.00
  33:  0.00  34:  0.00  35:  0.00  36:  0.00  37:  0.00  38:  0.00  39:  0.00  40:  0.00
  41:  0.00  42:  0.00  43:  0.00  44:  0.00  45:  0.00  46:  0.00  47:  0.00  48:  0.00
  49:  0.00  50:  0.00  51:  0.00  52:  0.00  53:  0.00  54:  0.00  55:  0.00  56:  0.00
  57:  0.00  58:  0.00  59:  0.00  60:  0.00  61:  0.00  62:  0.00  63:  0.00  64:  0.00
  65:  0.00  66:  0.00  67:  0.00  68:  0.00  69:  0.00  70:  0.00  71:  0.00  72:  0.00
  73:  0.00  74:  0.00  75:  0.00  76:  0.00  77:  0.00  78:  0.00  79:  0.00  80:  0.00
  81:  0.00  82:  0.00  83:  0.00  84:  0.00  85:  0.00  86:  0.00  87:  0.00  88:  0.00
  89:  0.00  90:  0.00  91:  0.00  92:  0.00  93:  0.00  94:  0.00  95:  0.00  96:  0.00
  97:  0.00  98:  0.00  99:  0.00 100:  0.00 101:  0.00 102:  0.00 103:  0.00 104:  0.00
 105:  0.00 106:  0.00 107:  0.00 108:  0.00 109:  0.00 110:  0.00 111:  0.00 112:  0.00
 113:  0.00 114:  0.00 115:  0.00 116:  0.00 117:  0.00 118:  0.00 119:  0.00 120:  0.00
 121:  0.00 122:  0.00 123:  0.00 124:  0.00 125:  0.00 126:  0.00 127:  0.00 128:  0.00
 129:  0.00 130:  0.00 131:  0.00 132:  0.00 133:  0.00 134:  0.00 135:  0.00 136:  0.00
 137:  0.00 138:  0.00 139:  0.00 140:  0.00 141:  0.00 142:  0.00 143:  0.00 144:  0.00
 145:  0.00 146:  0.00 147:  0.00 148:  0.00 149:  0.00 150:  0.00 151:  0.00 152:  0.00
 153:  0.00 154:  0.00 155:  0.00 156:  0.00 157:  0.00 158:  0.00 159:  0.00 160:  0.00
 161:  0.00 162:  0.00 163:  0.00 164:  0.00 165:  0.00 166:  0.00 167:  0.00 168:  0.00
 169:  0.00 170:  0.00 171:  0.00 172:  0.00 173:  0.00 174:  0.00 175:  0.00 176:  0.00
 177:  0.00 178:  0.00 179:  0.00 180:  0.00 181:  0.00 182:  0.00 183:  0.00 184:  0.00
 185:  0.00 186:  0.00 187:  0.00 188:  0.00 189:  0.00 190:  0.00 191:  0.00 192:  0.00
 193:  0.00 194:  0.00 195:  0.00 196:  0.00 197:  0.00 198:  0.00 199:  0.00 200:  0.00
 201:  0.00 202:  0.00 203:  0.00 204:  0.00 205:  0.00 206:  0.00 207:  0.00 208:  0.00
 209:  0.00 210:  0.00 211:  0.00 212:  0.00 213:  0.00 214:  0.00 215:  0.00 216:  0.00
 217:  0.00 218:  0.00 219:  0.00 220:  0.00 221:  0.00 222:  0.00 223:  0.00 224:  0.00
 225:  0.00
 output can be read by thermo (or use thermo option).
 writing <g98.out> molden fake output.
 recommended (thermochemical) frequency scaling factor: 1.0
           -------------------------------------------------
          |             Thermodynamic Functions             |
           -------------------------------------------------

Molecule has no symmetry elements
It seems to be the C1 point group
c1  symmetry found (for desy threshold:  0.10E+00) used in thermo

          ...................................................
          :                      SETUP                      :
          :.................................................:
          :  # frequencies                         219      :
          :  # imaginary freq.                       0      :
          :  linear?                             false      :
          :  only rotor calc.                    false      :
          :  symmetry                               c1      :
          :  rotational number                       1      :
          :  scaling factor                  1.0000000      :
          :  rotor cutoff                   50.0000000 cm⁻¹ :
          :  imag. cutoff                  -20.0000000 cm⁻¹ :
          :.................................................:

    mode    ω/cm⁻¹     T·S(HO)/kcal·mol⁻¹    T·S(FR)/kcal·mol⁻¹   T·S(vib)
   ------------------------------------------------------------------------
       1     24.22    -1.86465 (  5.22%)    -1.27123 ( 94.78%)    -1.30220
       2     32.35    -1.69348 ( 14.91%)    -1.18552 ( 85.09%)    -1.26125
       3     33.34    -1.67566 ( 16.50%)    -1.17660 ( 83.50%)    -1.25895
       4     36.72    -1.61854 ( 22.53%)    -1.14797 ( 77.47%)    -1.25401
       5     37.28    -1.60956 ( 23.61%)    -1.14347 ( 76.39%)    -1.25353
       6     41.68    -1.54371 ( 32.56%)    -1.11045 ( 67.44%)    -1.25152
       7     44.16    -1.50958 ( 37.83%)    -1.09332 ( 62.17%)    -1.25079
       8     44.95    -1.49906 ( 39.52%)    -1.08804 ( 60.48%)    -1.25047
       9     48.43    -1.45507 ( 46.82%)    -1.06595 ( 53.18%)    -1.24815
      10     51.14    -1.42306 ( 52.24%)    -1.04988 ( 47.76%)    -1.24484
      11     53.69    -1.39436 ( 57.07%)    -1.03545 ( 42.93%)    -1.24027
      12     55.88    -1.37078 ( 60.94%)    -1.02359 ( 39.06%)    -1.23517
      13     57.94    -1.34949 ( 64.32%)    -1.01288 ( 35.68%)    -1.22940
      14     60.25    -1.32648 ( 67.83%)    -1.00130 ( 32.17%)    -1.22186
      15     61.35    -1.31584 ( 69.38%)    -0.99594 ( 30.62%)    -1.21790
      16     63.64    -1.29429 ( 72.41%)    -0.98508 ( 27.59%)    -1.20897
      17     66.07    -1.27228 ( 75.30%)    -0.97399 ( 24.70%)    -1.19859
      18     67.67    -1.25817 ( 77.04%)    -0.96688 ( 22.96%)    -1.19129
      19     72.03    -1.22158 ( 81.15%)    -0.94840 ( 18.85%)    -1.17009
      20     73.57    -1.20910 ( 82.42%)    -0.94210 ( 17.58%)    -1.16217
      21     74.68    -1.20034 ( 83.27%)    -0.93767 ( 16.73%)    -1.15640
      22     82.89    -1.13928 ( 88.31%)    -0.90678 ( 11.69%)    -1.11210
      23     83.83    -1.13272 ( 88.77%)    -0.90345 ( 11.23%)    -1.10697
      24     86.13    -1.11688 ( 89.80%)    -0.89542 ( 10.20%)    -1.09430
      25     89.92    -1.09180 ( 91.27%)    -0.88269 (  8.73%)    -1.07355
      26     92.25    -1.07684 ( 92.06%)    -0.87509 (  7.94%)    -1.06082
      27     97.89    -1.04229 ( 93.63%)    -0.85751 (  6.37%)    -1.03051
      28    115.81    -0.94490 ( 96.64%)    -0.80773 (  3.36%)    -0.94029
      29    131.60    -0.87135 ( 97.96%)    -0.76986 (  2.04%)    -0.86928
      30    140.22    -0.83506 ( 98.41%)    -0.75105 (  1.59%)    -0.83373
      31    141.96    -0.82806 ( 98.48%)    -0.74741 (  1.52%)    -0.82683
      32    145.05    -0.81577 ( 98.61%)    -0.74102 (  1.39%)    -0.81473
      33    146.36    -0.81067 ( 98.66%)    -0.73836 (  1.34%)    -0.80970
      34    151.17    -0.79233 ( 98.82%)    -0.72879 (  1.18%)    -0.79158
      35    165.04    -0.74277 ( 99.16%)    -0.70279 (  0.84%)    -0.74243
      36    166.69    -0.73718 ( 99.20%)    -0.69984 (  0.80%)    -0.73688
      37    169.08    -0.72920 ( 99.24%)    -0.69563 (  0.76%)    -0.72894
      38    171.55    -0.72107 ( 99.28%)    -0.69133 (  0.72%)    -0.72085
      39    177.91    -0.70071 ( 99.38%)    -0.68053 (  0.62%)    -0.70058
      40    178.67    -0.69836 ( 99.39%)    -0.67928 (  0.61%)    -0.69824
      41    185.57    -0.67730 ( 99.48%)    -0.66806 (  0.52%)    -0.67725
      42    203.11    -0.62752 ( 99.63%)    -0.64129 (  0.37%)    -0.62757
      43    209.37    -0.61097 ( 99.68%)    -0.63231 (  0.32%)    -0.61103
      44    212.64    -0.60253 ( 99.70%)    -0.62771 (  0.30%)    -0.60261
      45    217.09    -0.59131 ( 99.72%)    -0.62158 (  0.28%)    -0.59139
      46    221.81    -0.57969 ( 99.74%)    -0.61521 (  0.26%)    -0.57978
      47    225.51    -0.57079 ( 99.76%)    -0.61031 (  0.24%)    -0.57089
      48    227.36    -0.56638 ( 99.77%)    -0.60788 (  0.23%)    -0.56648
      49    230.46    -0.55913 ( 99.78%)    -0.60387 (  0.22%)    -0.55923
      50    235.23    -0.54819 ( 99.80%)    -0.59780 (  0.20%)    -0.54829
      51    239.36    -0.53896 ( 99.81%)    -0.59265 (  0.19%)    -0.53906
      52    242.80    -0.53139 ( 99.82%)    -0.58842 (  0.18%)    -0.53149
      53    249.50    -0.51703 ( 99.84%)    -0.58036 (  0.16%)    -0.51713
      54    257.56    -0.50037 ( 99.86%)    -0.57094 (  0.14%)    -0.50047
      55    262.24    -0.49100 ( 99.87%)    -0.56561 (  0.13%)    -0.49110
      56    271.29    -0.47346 ( 99.88%)    -0.55556 (  0.12%)    -0.47356
      57    276.38    -0.46392 ( 99.89%)    -0.55005 (  0.11%)    -0.46401
      58    281.67    -0.45423 ( 99.90%)    -0.54443 (  0.10%)    -0.45432
      59    282.24    -0.45320 ( 99.90%)    -0.54383 (  0.10%)    -0.45329
      60    283.71    -0.45057 ( 99.90%)    -0.54229 (  0.10%)    -0.45065
      61    291.63    -0.43663 ( 99.91%)    -0.53413 (  0.09%)    -0.43672
      62    293.29    -0.43377 ( 99.92%)    -0.53245 (  0.08%)    -0.43385
      63    294.97    -0.43092 ( 99.92%)    -0.53076 (  0.08%)    -0.43100
      64    297.83    -0.42608 ( 99.92%)    -0.52791 (  0.08%)    -0.42616
   ------------------------------------------------------------------------

   temp. (K)  partition function   enthalpy   heat capacity  entropy
                                   cal/mol     cal/K/mol   cal/K/mol   J/K/mol
 298.15  VIB  0.125E+28            35646.634    194.793    228.689
         ROT  0.239E+08              888.752      2.981     36.743
         INT  0.298E+35            36535.386    197.773    265.432
         TR   0.925E+28             1481.254      4.968     44.184
         TOT                       38016.6402   202.7416   309.6160  1295.4333

       T/K    H(0)-H(T)+PV         H(T)/Eh          T*S/Eh         G(T)/Eh
   ------------------------------------------------------------------------
    298.15    0.605834E-01    0.660399E+00    0.147109E+00    0.513291E+00
   ------------------------------------------------------------------------

         :::::::::::::::::::::::::::::::::::::::::::::::::::::
         ::                  THERMODYNAMIC                  ::
         :::::::::::::::::::::::::::::::::::::::::::::::::::::
         :: total free energy        -126.671783871676 Eh   ::
         ::.................................................::
         :: total energy             -127.185074380029 Eh   ::
         :: zero point energy           0.599815678010 Eh   ::
         :: G(RRHO) w/o ZPVE           -0.086525169657 Eh   ::
         :: G(RRHO) contrib.            0.513290508353 Eh   ::
         :::::::::::::::::::::::::::::::::::::::::::::::::::::

optimized geometry written to: xtbopt.coord


           -------------------------------------------------
          | TOTAL ENERGY             -127.185074380029 Eh   |
          | TOTAL ENTHALPY           -126.524675329563 Eh   |
          | TOTAL FREE ENERGY        -126.671783871676 Eh   |
          | GRADIENT NORM               0.000518657783 Eh/α |
          | HOMO-LUMO GAP               9.839170201522 eV   |
           -------------------------------------------------

------------------------------------------------------------------------
 * finished run on 2022/10/12 at 01:33:18.946     
------------------------------------------------------------------------
 total:
 * wall-time:     0 d,  0 h,  0 min, 16.366 sec
 *  cpu-time:     0 d,  0 h,  1 min, 37.786 sec
 * ratio c/w:     5.975 speedup
 SCF:
 * wall-time:     0 d,  0 h,  0 min,  0.073 sec
 *  cpu-time:     0 d,  0 h,  0 min,  0.428 sec
 * ratio c/w:     5.854 speedup
 ANC optimizer:
 * wall-time:     0 d,  0 h,  0 min,  7.969 sec
 *  cpu-time:     0 d,  0 h,  0 min, 47.699 sec
 * ratio c/w:     5.985 speedup
 analytical hessian:
 * wall-time:     0 d,  0 h,  0 min,  8.205 sec
 *  cpu-time:     0 d,  0 h,  0 min, 49.013 sec
 * ratio c/w:     5.973 speedup

