75
 energy: -127.139241639291 gnorm: 0.054519920874 xtb: 6.5.1 (579679a)
o           -2.20819894842971        2.29719401687317       -0.87977742967697
h           -1.42782400433076        2.45495975583594       -0.31760834853334
h           -2.92508899831887        2.07379992729906       -0.25895092717538
o           -2.16835106832691        0.60279365937474       -2.94026255481122
h           -3.02026080388891        0.77255279592498       -3.34389910456268
h           -2.12177095154852        1.18218799712033       -2.14401236218491
o           -1.19472790465680       -1.99093656438691       -3.06213715830396
h           -1.52551898156672       -1.07762112522153       -3.08507805437572
h           -1.67442897185143       -2.41214772900785       -2.33379797377719
o           -0.40476194364759        1.71186919897758        4.21033536417722
h           -0.54551222028909        0.75051898176931        4.22023405095901
h            0.41756932015929        1.85981084275210        3.72525014958237
o           -3.05983990921721       -2.81117424798739       -1.02665478505023
h           -3.46920859403675       -2.12517900093202       -0.45079070817688
h           -3.78843048492063       -3.27327913201465       -1.44381472594713
o            1.40297881033555       -1.72229731341028       -3.75912145244000
h            1.46118900333540       -2.18921355119115       -4.59328709534850
h            0.47931423633037       -1.84490242273560       -3.44627162426516
o            3.82978258008400       -1.01897112696305       -2.44386977016503
h            3.00296102789435       -1.45912273882694       -2.69557013001296
h            3.84782656090997       -0.21135094919123       -2.96580330454166
o            0.16242710853069       -4.70658808633681        1.91872840238597
h           -0.78811766648098       -4.54835883771643        1.70023133625744
h            0.43692317376352       -5.45822679390153        1.39360440450542
o            2.09835677272041        0.96987857131738       -4.05737688366827
h            1.25670212120711        1.42750143356081       -4.29351241476044
h            1.84103081099478        0.04078781471600       -3.93049894153993
o            3.06715613273811        2.59251710957376       -2.26599370246791
h            3.67749831231276        3.09369911847583       -2.80846464933906
h            2.64387438140884        1.93251686350661       -2.88383970184600
o            1.81297160589772        1.88821991531640        2.31590008103742
h            2.54780892992155        2.18344256472654        1.74395306360118
h            2.08281917206206        0.97780129918251        2.55109146731741
o           -2.18926387758647        2.91785272619041        2.60832886990702
h           -1.51327299400297        3.17706416304155        1.96265873851003
h           -1.67369055701988        2.47794926820336        3.32088370739833
o           -3.92107386541438        1.62960646600974        1.16431776497821
h           -3.28803362284575        2.08330500251709        1.79913239058167
h           -4.75729613483207        2.08428696702603        1.26865915269734
o           -0.29450049837713        2.05440963009800       -4.42282808896275
h           -0.45843389456766        2.89329259256876       -3.94860989055953
h           -0.90548820689172        1.42118102384673       -4.01392189760012
o           -0.10531290102949        2.92299099001367        0.77479843851663
h            0.38869182493814        3.50965056698474        0.17512117165257
h            0.57059479686167        2.54790478091267        1.38559905694796
o            3.77652912342492        2.14750422706100        0.43717332614054
h            3.51143017521960        2.29553553162699       -0.48144100103328
h            4.02648930473419        1.21068361517653        0.48072086850017
o           -0.85641752674402       -0.99075715548043        3.67605028104709
h           -0.89518052124764       -0.56070468347937        2.76288600826730
h           -0.08793421084147       -1.58472816347369        3.64543942398672
o            1.35743810586110        4.29394251692044       -1.07735401054633
h            1.93611922747264        3.62894424781707       -1.51463935597646
h            1.93719553827266        4.96188505325095       -0.70930716879263
o           -3.10434648938787       -2.22428150323754        3.07687360133673
h           -3.60041777346364       -2.38633620840256        3.87901106811672
h           -2.25933089718572       -1.77370000014114        3.35589891164931
o            1.26469838646488       -2.75692159192085        3.39831142051490
h            0.89719820186036       -3.44049687260098        2.80170725836603
h            1.52241003265531       -3.21040867954796        4.20169483497922
o            2.88086136802202       -0.57882799759817        2.67297777890886
h            3.35834798142228       -0.73210277017781        1.84683033895665
h            2.37449506710146       -1.38016072315286        2.87108968042856
o            4.38297556036042       -0.60019070221607        0.19293041480031
h            4.15783649704803       -0.79128889508650       -0.74274010069100
h            5.30643422458485       -0.83048086275053        0.30000762406609
o           -2.36944480096995       -4.21788073697766        1.29121483660501
h           -2.51061952357193       -3.79857384597929        0.42494206927487
h           -2.68521803917338       -3.57688539974682        1.95140804165401
o           -0.93921668466243        4.07600305314035       -2.71437993616788
h           -1.53932972168561        3.59883313001082       -2.12535128051622
h           -0.16326869335257        4.29469220215130       -2.18027839812002
o           -4.21904035646984       -1.16417313669137        0.75358442288458
h           -4.19469949822816       -0.20021710042454        0.84172577000727
h           -3.89426450680154       -1.52138651875041        1.59869318547776
75
 energy: -127.143459054703 gnorm: 0.024469591359 xtb: 6.5.1 (579679a)
o           -2.20344582349210        2.29502559436179       -0.87631975156982
h           -1.41926747911893        2.43159550379846       -0.31282960525118
h           -2.91672452822940        2.05552312495669       -0.25704003125026
o           -2.16631940977918        0.61026760735060       -2.94603647707013
h           -3.02414486935802        0.77140811703017       -3.34099376912171
h           -2.12549419218744        1.17755390089771       -2.14052963862315
o           -1.19463066027672       -1.98592067574999       -3.05602045763398
h           -1.51425540985937       -1.06847417292881       -3.07283259085126
h           -1.66935946487062       -2.40007249957314       -2.32143134922784
o           -0.39573473563069        1.72499049632289        4.21666044043151
h           -0.52520497294726        0.76495222271366        4.25024265169910
h            0.42415446620081        1.87553323484505        3.72653341722735
o           -3.04863312232839       -2.80981205331976       -1.01268999663095
h           -3.46211382476284       -2.11468218242105       -0.45070722202765
h           -3.77525419223547       -3.26294884117874       -1.44380536255163
o            1.40340126891195       -1.72741642699336       -3.73264178693597
h            1.45286404751146       -2.17999452712875       -4.57619661963765
h            0.47653628821692       -1.83707657789012       -3.42430229277915
o            3.82267901248751       -1.01481811758138       -2.43352729174128
h            3.00347774670582       -1.46127720661338       -2.69546414575497
h            3.83956719830803       -0.20587133162796       -2.95353776982200
o            0.16090384859665       -4.70705984318811        1.93099873968837
h           -0.78452201651837       -4.54463532394729        1.69455301008376
h            0.44701914823408       -5.44218270885242        1.38891972305235
o            2.09152178660696        0.96612394651483       -4.04912893763315
h            1.25271185549309        1.42738131821915       -4.29027061462448
h            1.82817741635340        0.03898077899439       -3.92146692575045
o            3.06682354416642        2.59074157430808       -2.26341939708212
h            3.67673324512485        3.09156732940766       -2.80688525170632
h            2.64445000621506        1.92981941974902       -2.88049962159482
o            1.81136361548573        1.88131586000503        2.32125925018573
h            2.53593158070287        2.18800565745205        1.74117090255525
h            2.09796797743819        0.97602022160864        2.55299547293544
o           -2.19166667061036        2.92107734456153        2.60610700908367
h           -1.51885945410263        3.16990905082026        1.95173151438621
h           -1.67239694621522        2.49944780827934        3.32482001164950
o           -3.92408451310230        1.62060246651827        1.16436925109510
h           -3.27777973961887        2.06432799614883        1.79021708301305
h           -4.75073736692118        2.09257106208883        1.27116391985795
o           -0.29533357858945        2.05796097618011       -4.42578647431989
h           -0.45828589711713        2.89441402622770       -3.94655986272688
h           -0.90192855210616        1.42171093879355       -4.01447912463820
o           -0.12382773650956        2.92522895408739        0.77696186338073
h            0.38721712858520        3.49192935795887        0.17282481373449
h            0.54565161808436        2.49838080420458        1.35862984127161
o            3.77172688286946        2.14434560112355        0.43921262155273
h            3.50857950195589        2.29560456949707       -0.47949365246411
h            4.02813389789008        1.20914557197519        0.47695925416722
o           -0.84216305295660       -0.97707226572055        3.60118778842229
h           -0.81511674840562       -0.55857716903391        2.71520553350676
h           -0.07985367249094       -1.58871410890520        3.62348676533851
o            1.35811266539921        4.30073289438786       -1.08155907836810
h            1.93472205588994        3.63088447876959       -1.51304517145210
h            1.94005426050705        4.96269442102942       -0.70623384869592
o           -3.12234562881615       -2.23697593455034        3.08660270204810
h           -3.62423791970819       -2.39593201147070        3.88560290864778
h           -2.28782888251120       -1.78218653226190        3.36702431134682
o            1.22817990781473       -2.74942388391457        3.40181781305551
h            0.90096741800037       -3.44922944500554        2.79718309912928
h            1.52486104674222       -3.20084015603561        4.19455377587027
o            2.86880027864709       -0.58595906982376        2.66610848911114
h            3.35161058030513       -0.72880716646201        1.84124242435562
h            2.36837351961474       -1.39195787974870        2.85525311007847
o            4.37021401487360       -0.60566438744543        0.20025278762711
h            4.13423781031385       -0.78362479047463       -0.73525735704712
h            5.29773112431198       -0.82896301633108        0.29085351657452
o           -2.36655885767343       -4.21859304457519        1.28973412117982
h           -2.50327505123987       -3.79745977735800        0.42370744490958
h           -2.69411132891149       -3.58225911347421        1.94693992750204
o           -0.94197846938230        4.07804708387790       -2.71306291984094
h           -1.53838247657935        3.59452705445443       -2.12499420874178
h           -0.16472689043670        4.29314830441095       -2.17948127396572
o           -4.21581589767300       -1.15736343886154        0.75007883092494
h           -4.14589854194391       -0.19334973850562        0.82867269700172
h           -3.90136096030017       -1.51860480176221        1.59544488649361
75
 energy: -127.145328909758 gnorm: 0.015362528540 xtb: 6.5.1 (579679a)
o           -2.19562651992967        2.27348913078972       -0.87529844101598
h           -1.41101769865631        2.40246134129778       -0.30852700885597
h           -2.91259753636872        2.04501670129075       -0.25702120580883
o           -2.16636245636402        0.61219641473253       -2.95320547989793
h           -3.02843370063080        0.77062520477507       -3.34010611564975
h           -2.12172614907851        1.17775019130329       -2.14689052794085
o           -1.18705942302197       -1.97306084218377       -3.03533207559064
h           -1.51180720588003       -1.05772118507146       -3.05906841853967
h           -1.66272688967888       -2.38535522468443       -2.30099622708713
o           -0.37721107530161        1.74282969258918        4.22983281341888
h           -0.50333377415967        0.78541002234027        4.26522977222772
h            0.43418909329528        1.90049251785861        3.72619972896285
o           -3.02604539900584       -2.79856831121064       -1.00061243144090
h           -3.44334410386701       -2.10014569847312       -0.44413312858587
h           -3.75120447007741       -3.24700159644110       -1.43959560906194
o            1.40188927434418       -1.72860168717542       -3.69478709645796
h            1.44540177714784       -2.16849904350428       -4.54606917986804
h            0.47460593554782       -1.83835145219516       -3.38713988654205
o            3.80942970787792       -1.00673883072064       -2.41680646809084
h            2.99906605263886       -1.46154092364792       -2.69088467991178
h            3.82378177725564       -0.19536414452740       -2.93321998196516
o            0.16165199154247       -4.70864384670378        1.94575860201588
h           -0.78105462975101       -4.54297014168784        1.69869923118121
h            0.46201865800010       -5.41775743695909        1.37478712271985
o            2.08170584645273        0.96061286037498       -4.03451870905900
h            1.24603971177018        1.42514002108193       -4.28301251356031
h            1.81198301495262        0.03628449418596       -3.90042284510490
o            3.06796495577899        2.58694066371130       -2.25825487561623
h            3.67577776138048        3.08846667442016       -2.80355748182901
h            2.64179133151301        1.92923945873755       -2.87556845428945
o            1.80071123972846        1.86196849131969        2.31854452492531
h            2.52685190749973        2.18762759996064        1.75029839801995
h            2.10436463069232        0.96260194504437        2.55073311534056
o           -2.18812891741665        2.92268640551652        2.60197529950575
h           -1.51668474610279        3.15466636695768        1.93808544216359
h           -1.66939577693120        2.51801873300488        3.32800590420396
o           -3.91538721306292        1.60958677037371        1.15988742760107
h           -3.27167217154077        2.05090899926790        1.78579219885822
h           -4.73981911258860        2.08574103346110        1.26427951611999
o           -0.29368596020271        2.06169708511378       -4.42603607061154
h           -0.46177973995135        2.89804810932211       -3.94798821979147
h           -0.90690924192584        1.42646375378524       -4.02229482236928
o           -0.13689930969934        2.89928428170636        0.75965944426682
h            0.37353217083669        3.47754608545651        0.16814962861794
h            0.52604454533538        2.47140851955245        1.33934838124297
o            3.76241332397028        2.14166020253457        0.44130893784784
h            3.50492301721290        2.29488858931914       -0.47870472357188
h            4.02334658120553        1.20760434099596        0.47621607537363
o           -0.81057468662622       -0.96525587622572        3.52050899682525
h           -0.76955196755505       -0.57332233340537        2.65509928368923
h           -0.06019204550118       -1.59822431024198        3.56672493057596
o            1.35801772264807        4.30229476674592       -1.07776745584615
h            1.93397002370739        3.63807255399467       -1.51687718683273
h            1.93921517962254        4.96302026689987       -0.69922842718514
o           -3.13501577970538       -2.24186960651923        3.09640958603142
h           -3.63416758645650       -2.39601882679393        3.89855220182104
h           -2.30912079460839       -1.77639842256180        3.36214668815951
o            1.20942648306315       -2.74838342568151        3.39616175484827
h            0.87370954337075       -3.44955177417728        2.79661127313752
h            1.51144104297709       -3.19651386358902        4.18813371147210
o            2.85763841146263       -0.59746674320321        2.65627820538100
h            3.34183728700123       -0.72456100985504        1.82911868518812
h            2.35349957594752       -1.40437440118234        2.82703864479811
o            4.35054196078788       -0.60755271848544        0.20846905130100
h            4.10264451900226       -0.78085571164750       -0.72502382394790
h            5.28072994229484       -0.82745026367456        0.28331169013223
o           -2.35987581791415       -4.22023946873175        1.28621609789909
h           -2.49210211215120       -3.79083062172083        0.42282250978511
h           -2.69795308636629       -3.59221128314959        1.94478590664628
o           -0.94343079931374        4.07305225423518       -2.70902373048466
h           -1.53688732694126        3.58956814805285       -2.11752658058790
h           -0.16814620055836        4.29546067825944       -2.17561931604226
o           -4.19671140996791       -1.14303232604513        0.74168107949018
h           -4.09509888344625       -0.18054025472426        0.82578379525694
h           -3.91161605050792       -1.51616131034298        1.59122738702645
75
 energy: -127.146383145091 gnorm: 0.011634204987 xtb: 6.5.1 (579679a)
o           -2.19107774788540        2.25436823084944       -0.88018054840125
h           -1.40410363060183        2.37906355231367       -0.31371028881364
h           -2.90719649273091        2.02770950770282       -0.26056592314030
o           -2.16817790972421        0.61344420290799       -2.96378842415845
h           -3.03481164985428        0.76857130323878       -3.34191718799963
h           -2.12091076204953        1.17398530790252       -2.15348317400535
o           -1.18265206585912       -1.96275886087182       -3.01662055014197
h           -1.50672570879278       -1.04694946945584       -3.04688642241508
h           -1.65383724900617       -2.36798912419228       -2.27501548557210
o           -0.36116066793437        1.75272250237973        4.23581585389818
h           -0.48761488533738        0.79610041048020        4.25348175307116
h            0.44515785142075        1.91855632500581        3.72600599659106
o           -3.00222632939060       -2.78722427141158       -0.99142812694238
h           -3.41819882515349       -2.08630373318509       -0.43541920430086
h           -3.72837156460682       -3.23041924902589       -1.43400654941325
o            1.39984515516617       -1.72935077546443       -3.65981184098270
h            1.43676809609387       -2.16193332418908       -4.51512524657406
h            0.47204155057254       -1.83615889658154       -3.35001667490420
o            3.79956849504425       -1.00132732029212       -2.40492098374438
h            2.98931275555236       -1.45653339079149       -2.67835328574197
h            3.80536736953644       -0.18254765044706       -2.91010990389384
o            0.16135505143177       -4.71277596937042        1.95421095684247
h           -0.78122150912614       -4.54615140686554        1.70654847638902
h            0.47306740862563       -5.39661917311470        1.35631270700470
o            2.07136197115164        0.95644790328820       -4.02150698870295
h            1.23730350256246        1.42299765484598       -4.27311283044441
h            1.79716758916635        0.03489992898227       -3.87560394992546
o            3.06612594331556        2.58741066632469       -2.25577254459345
h            3.67482215935496        3.08569007146987       -2.80308457576721
h            2.63877365588794        1.92774230903111       -2.87023424182732
o            1.79043404896624        1.84772415955027        2.31750334773704
h            2.51506503818738        2.18090762881412        1.75257200938515
h            2.09853457750435        0.94822858891334        2.54482419200168
o           -2.18232937006673        2.92349127958351        2.60075698420467
h           -1.51236312392304        3.14196432643449        1.93001712011823
h           -1.66424918686701        2.52824921883380        3.33092309502578
o           -3.90471948398863        1.60344819298276        1.15749074132090
h           -3.26533577360212        2.04287169600061        1.78706131364010
h           -4.73011875105417        2.07796986445482        1.26025643411409
o           -0.29583771379283        2.06737433011345       -4.42946379266958
h           -0.46186868744386        2.90106397799095       -3.94578312177546
h           -0.91047452601154        1.43144509297676       -4.02871150690056
o           -0.14413084176350        2.87783272076190        0.74610635457865
h            0.36930407007464        3.46343349342245        0.16454991505415
h            0.51349453225066        2.43714174526349        1.32091925545053
o            3.75872684482094        2.14285561646333        0.44216358452302
h            3.50031503857377        2.29529937258102       -0.47773436126633
h            4.01058814949125        1.20645905725462        0.47904717738529
o           -0.79974312480931       -0.95627438850752        3.45151408070325
h           -0.69541296666516       -0.55265177166016        2.59005931696591
h           -0.05912580289672       -1.60410791831042        3.53686696558414
o            1.35588569017697        4.30358060231510       -1.07382129482562
h            1.93284871314196        3.63989715522107       -1.51158731040962
h            1.93623216476956        4.96270666458532       -0.69113788662613
o           -3.15040066272142       -2.24392569930341        3.09927930663503
h           -3.63527670783066       -2.39164984069973        3.91180033947534
h           -2.32247231184439       -1.77422822485819        3.34007990046467
o            1.20004216568260       -2.75142996968836        3.38891367273841
h            0.85684685842977       -3.45794583478147        2.79789274149929
h            1.49699897259709       -3.18962071777207        4.18734861139479
o            2.85099953482450       -0.60667705097201        2.64768137446843
h            3.33161223169439       -0.72405055387326        1.81649777426387
h            2.34057693739017       -1.41200155080207        2.80677284000052
o            4.33256541698338       -0.60669788061161        0.21362571154361
h            4.07718679380580       -0.78012461122059       -0.71824261002497
h            5.26292112393415       -0.82780263381689        0.28002715059606
o           -2.35480473689459       -4.22216263062634        1.28410605247885
h           -2.48020314492105       -3.78289748652624        0.42376625582129
h           -2.69968547163665       -3.60182567634283        1.94582686894596
o           -0.94768642851024        4.07090956195139       -2.70348907117767
h           -1.53515845551980        3.58124752270181       -2.11082071554857
h           -0.17160702784167        4.29591641417907       -2.17238206584028
o           -4.17688766840791       -1.13076508588458        0.73314206908367
h           -4.06358168540946       -0.17002587976825        0.82329739952155
h           -3.91565857665202       -1.51012368555493        1.58753683398429
75
 energy: -127.147497601682 gnorm: 0.009695936174 xtb: 6.5.1 (579679a)
o           -2.18625504610380        2.22309277950924       -0.89242252615020
h           -1.39505012470458        2.34386731685340       -0.32831746409563
h           -2.89985491472102        1.99900311177503       -0.26894529724249
o           -2.17184458456116        0.61450772909270       -2.98542341834976
h           -3.04526080916746        0.76313769857692       -3.35043667357445
h           -2.12309358958663        1.16509842162406       -2.16657889205721
o           -1.17355292847461       -1.94520140134563       -2.98153731219382
h           -1.50563911120540       -1.03204201378732       -3.03208468680926
h           -1.64292703531215       -2.34054842188511       -2.23215450773708
o           -0.33708121401211        1.76385057915378        4.23901577918271
h           -0.47142623243939        0.80795058200961        4.22075364268073
h            0.46481507088605        1.93756733677235        3.72454349284682
o           -2.96043529060241       -2.76822538481387       -0.97365864089842
h           -3.37696854802674       -2.06357345024248       -0.41951359386989
h           -3.68589221413972       -3.20320939392848       -1.42550018797516
o            1.39542936945592       -1.72865162829315       -3.60251960296751
h            1.42610243557206       -2.15456644195956       -4.46075281651002
h            0.46613036467358       -1.83261397003618       -3.29033669066130
o            3.78180342260846       -0.98954178907939       -2.38317107325697
h            2.97420974070447       -1.44933725168963       -2.65948551205636
h            3.77693098699715       -0.16319133335381       -2.87638853625669
o            0.16010479942796       -4.72218630402515        1.96032081897793
h           -0.78363484495428       -4.55556845083312        1.71610829839546
h            0.48634901263807       -5.36989653189597        1.32938920484731
o            2.05324111585308        0.95095218681885       -3.99665030857444
h            1.22227397720299        1.41847330323801       -4.25866045020214
h            1.77446825796491        0.03286178090603       -3.83452731456839
o            3.06245565558815        2.58920891122955       -2.25065333273962
h            3.67287354851234        3.08137442921782       -2.80156026427948
h            2.62838842431511        1.92956713686650       -2.86108572585929
o            1.77063313573558        1.82241730233741        2.31107538510114
h            2.49986484006780        2.16793942595774        1.76119671927305
h            2.08379500808495        0.92317317730269        2.53668793285124
o           -2.16981457605941        2.92450406010513        2.59911473112671
h           -1.50171717295096        3.12461686278101        1.92051796395177
h           -1.65344820035667        2.54124353685204        3.33529308822310
o           -3.88736128968729        1.59790364247379        1.15491784364259
h           -3.25300849731391        2.03508770736292        1.78963048216140
h           -4.71557854776632        2.06763189052568        1.25630901082082
o           -0.29878404176615        2.07742638205137       -4.43414936123819
h           -0.46469997139240        2.90731559304922       -3.94366201531298
h           -0.92053146428485        1.44133787276729       -4.04413695232633
o           -0.15008469206608        2.84161839483023        0.72463286709519
h            0.36409329997722        3.44085288164220        0.15705374872035
h            0.50256133278406        2.38886303573528        1.29497325509712
o            3.74548736779791        2.14448759088541        0.44619220140373
h            3.49439302421399        2.29808122430413       -0.47568247129846
h            3.99852771343804        1.20809346493674        0.48290585624681
o           -0.78514575792596       -0.94510457791365        3.35997254636182
h           -0.62578853556007       -0.51152958254128        2.51293712104753
h           -0.05181734319723       -1.59368979061673        3.46085076362013
o            1.35199225882050        4.30329535485922       -1.06311557470647
h            1.93089967960503        3.64372956938675       -1.50392466836866
h            1.93052471154791        4.96161907924737       -0.67634723612140
o           -3.16273205549667       -2.24236189836428        3.09751250217984
h           -3.61761933439975       -2.37252873319058        3.93204758108026
h           -2.32954103934357       -1.75871147422577        3.28825468967030
o            1.18817442760524       -2.76123592270282        3.37591910790213
h            0.84503456729431       -3.48269389698957        2.79806191274458
h            1.47367665186319       -3.17810940976285        4.18979300261985
o            2.83413248658786       -0.62059921733115        2.63033100600156
h            3.32003912691740       -0.73208544145612        1.80088867973440
h            2.32585454991840       -1.42789026315263        2.78427766927529
o            4.30174180470288       -0.60423786959646        0.22167096533231
h            4.04354554506019       -0.77981126758876       -0.70976996491919
h            5.23086731484301       -0.82842811572952        0.28409839783963
o           -2.34786636927281       -4.22507733491422        1.28426890413235
h           -2.46334414721009       -3.77480870614842        0.42705585338506
h           -2.70289097863044       -3.61384541335348        1.94814456413008
o           -0.95396255954418        4.06725375501106       -2.69281129749390
h           -1.53342438198929        3.56615820297413       -2.10130448947972
h           -0.17773172249576        4.29565748326291       -2.16357485426733
o           -4.14726976300854       -1.11488944096659        0.72196548732392
h           -4.02392730032312       -0.15639473216237        0.81950419705471
h           -3.91261057015051       -1.49873748516280        1.58141028536290
75
 energy: -127.148341649513 gnorm: 0.009384222251 xtb: 6.5.1 (579679a)
o           -2.18323239864450        2.19141284440864       -0.90671193282430
h           -1.38749241925391        2.30990703564409       -0.34667829208824
h           -2.89435325108203        1.97338281765246       -0.27791846698874
o           -2.18035698179870        0.61270558972105       -3.01140101079249