      -----------------------------------------------------------      
     |                   =====================                   |     
     |                           x T B                           |     
     |                   =====================                   |     
     |                         S. Grimme                         |     
     |          Mulliken Center for Theoretical Chemistry        |     
     |                    University of Bonn                     |     
      -----------------------------------------------------------      

   * xtb version 6.5.1 (579679a) compiled by 'ehlert@majestix' on 2022-07-11

   xtb is free software: you can redistribute it and/or modify it under
   the terms of the GNU Lesser General Public License as published by
   the Free Software Foundation, either version 3 of the License, or
   (at your option) any later version.
   
   xtb is distributed in the hope that it will be useful,
   but WITHOUT ANY WARRANTY; without even the implied warranty of
   MERCHANTABILITY or FITNESS FOR A PARTICULAR PURPOSE.  See the
   GNU Lesser General Public License for more details.
   
   Cite this work as:
   * C. Bannwarth, E. Caldeweyher, S. Ehlert, A. Hansen, P. Pracht,
     J. Seibert, S. Spicher, S. Grimme, WIREs Comput. Mol. Sci., 2020, 11,
     e01493. DOI: 10.1002/wcms.1493
   
   for GFN2-xTB:
   * C. Bannwarth, S. Ehlert and S. Grimme., J. Chem. Theory Comput., 2019,
     15, 1652-1671. DOI: 10.1021/acs.jctc.8b01176
   for GFN1-xTB:
   * S. Grimme, C. Bannwarth, P. Shushkov, J. Chem. Theory Comput., 2017,
     13, 1989-2009. DOI: 10.1021/acs.jctc.7b00118
   for GFN0-xTB:
   * P. Pracht, E. Caldeweyher, S. Ehlert, S. Grimme, ChemRxiv, 2019, preprint.
     DOI: 10.26434/chemrxiv.8326202.v1
   for GFN-FF:
   * S. Spicher and S. Grimme, Angew. Chem. Int. Ed., 2020, 59, 15665-15673.
     DOI: 10.1002/anie.202004239
   
   for ALPB and GBSA implicit solvation:
   * S. Ehlert, M. Stahn, S. Spicher, S. Grimme, J. Chem. Theory Comput.,
     2021, 17, 4250-4261. DOI: 10.1021/acs.jctc.1c00471
   
   for DFT-D4:
   * E. Caldeweyher, C. Bannwarth and S. Grimme, J. Chem. Phys., 2017,
     147, 034112. DOI: 10.1063/1.4993215
   * E. Caldeweyher, S. Ehlert, A. Hansen, H. Neugebauer, S. Spicher,
     C. Bannwarth and S. Grimme, J. Chem. Phys., 2019, 150, 154122.
     DOI: 10.1063/1.5090222
   * E. Caldeweyher, J.-M. Mewes, S. Ehlert and S. Grimme, Phys. Chem. Chem. Phys.
     2020, 22, 8499-8512. DOI: 10.1039/D0CP00502A
   
   for sTDA-xTB:
   * S. Grimme and C. Bannwarth, J. Chem. Phys., 2016, 145, 054103.
     DOI: 10.1063/1.4959605
   
   in the mass-spec context:
   * V. Asgeirsson, C. Bauer and S. Grimme, Chem. Sci., 2017, 8, 4879.
     DOI: 10.1039/c7sc00601b
   * J. Koopman and S. Grimme, ACS Omega 2019, 4, 12, 15120-15133.
     DOI: 10.1021/acsomega.9b02011
   
   for metadynamics refer to:
   * S. Grimme, J. Chem. Theory Comput., 2019, 155, 2847-2862
     DOI: 10.1021/acs.jctc.9b00143
   
   for SPH calculations refer to:
   * S. Spicher and S. Grimme, J. Chem. Theory Comput., 2021, 17, 1701-1714
     DOI: 10.1021/acs.jctc.0c01306
   
   with help from (in alphabetical order)
   P. Atkinson, C. Bannwarth, F. Bohle, G. Brandenburg, E. Caldeweyher
   M. Checinski, S. Dohm, S. Ehlert, S. Ehrlich, I. Gerasimov, C. Hölzer
   A. Katbashev, J. Koopman, C. Lavigne, S. Lehtola, F. März, M. Müller,
   F. Musil, H. Neugebauer, J. Pisarek, C. Plett, P. Pracht, F. Pultar,
   J. Seibert, P. Shushkov, S. Spicher, M. Stahn, M. Steiner, T. Strunk,
   J. Stückrath, T. Rose, and J. Unsleber
   
 * started run on 2022/10/12 at 01:33:02.581     

           -------------------------------------------------
          |                Calculation Setup                |
           -------------------------------------------------

          program call               : xtb solvent_cut.coord --gfn2 --ohess
          hostname                   : cn0943
          coordinate file            : solvent_cut.coord
          omp threads                :                     6

   ID    Z sym.   atoms
    1    8 o      1, 4, 7, 10, 13, 16, 19, 22, 25, 28, 31, 34, 37, 40, 43,
                  46, 49, 52, 55, 58, 61, 64, 67, 70, 73
    2    1 h      2, 3, 5, 6, 8, 9, 11, 12, 14, 15, 17, 18, 20, 21, 23, 24,
                  26, 27, 29, 30, 32, 33, 35, 36, 38, 39, 41, 42, 44, 45, 47,
                  48, 50, 51, 53, 54, 56, 57, 59, 60, 62, 63, 65, 66, 68, 69,
                  71, 72, 74, 75

molecular fragmentation (1/2 indicates fragments):
111222222222222222222222222222222222222222222222222222222222222222222222
222
# atoms in fragment 1/2:     3    72
 fragment masses (1/2) :       18.02      432.37
CMA distance (Bohr)    :   8.935
constraining FC (au)   :  0.0500

           -------------------------------------------------
          |                 G F N 2 - x T B                 |
           -------------------------------------------------

        Reference                      10.1021/acs.jctc.8b01176
      * Hamiltonian:
        H0-scaling (s, p, d)           1.850000    2.230000    2.230000
        zeta-weighting                 0.500000
      * Dispersion:
        s8                             2.700000
        a1                             0.520000
        a2                             5.000000
        s9                             5.000000
      * Repulsion:
        kExp                           1.500000    1.000000
        rExp                           1.000000
      * Coulomb:
        alpha                          2.000000
        third order                    shell-resolved
        anisotropic                    true
        a3                             3.000000
        a5                             4.000000
        cn-shift                       1.200000
        cn-exp                         4.000000
        max-rad                        5.000000


          ...................................................
          :                      SETUP                      :
          :.................................................:
          :  # basis functions                 150          :
          :  # atomic orbitals                 150          :
          :  # shells                          100          :
          :  # electrons                       200          :
          :  max. iterations                   250          :
          :  Hamiltonian                  GFN2-xTB          :
          :  restarted?                      false          :
          :  GBSA solvation                  false          :
          :  PC potential                    false          :
          :  electronic temp.          300.0000000     K    :
          :  accuracy                    1.0000000          :
          :  -> integral cutoff          0.2500000E+02      :
          :  -> integral neglect         0.1000000E-07      :
          :  -> SCF convergence          0.1000000E-05 Eh   :
          :  -> wf. convergence          0.1000000E-03 e    :
          :  Broyden damping             0.4000000          :
          ...................................................

 iter      E             dE          RMSdq      gap      omega  full diag
   1   -127.8908917 -0.127891E+03  0.402E+00   10.59       0.0  T
   2   -127.9006017 -0.970999E-02  0.238E+00   10.33       1.0  T
   3   -127.9039408 -0.333906E-02  0.234E-01    9.88       1.0  T
   4   -127.9046104 -0.669607E-03  0.538E-02   10.02       1.0  T
   5   -127.9046394 -0.289980E-04  0.332E-02    9.99       1.0  T
   6   -127.9046450 -0.563362E-05  0.328E-03   10.00       3.5  T
   7   -127.9046452 -0.142857E-06  0.810E-04   10.00      14.3  T
   8   -127.9046452 -0.311162E-08  0.450E-04   10.00      25.6  T

   *** convergence criteria satisfied after 8 iterations ***

         #    Occupation            Energy/Eh            Energy/eV
      -------------------------------------------------------------
         1        2.0000           -0.7073876             -19.2490
       ...           ...                  ...                  ...
        94        2.0000           -0.4254222             -11.5763
        95        2.0000           -0.4252512             -11.5717
        96        2.0000           -0.4226920             -11.5020
        97        2.0000           -0.4225210             -11.4974
        98        2.0000           -0.4202770             -11.4363
        99        2.0000           -0.4189139             -11.3992
       100        2.0000           -0.4184636             -11.3870 (HOMO)
       101                         -0.0509364              -1.3860 (LUMO)
       102                         -0.0247140              -0.6725
       103                         -0.0043003              -0.1170
       104                          0.0004852               0.0132
       105                          0.0247436               0.6733
       ...                                ...                  ...
       150                          0.3557888               9.6815
      -------------------------------------------------------------
                  HL-Gap            0.3675273 Eh           10.0009 eV
             Fermi-level           -0.2347000 Eh           -6.3865 eV

 SCC (total)                   0 d,  0 h,  0 min,  0.067 sec
 SCC setup                      ...        0 min,  0.001 sec (  0.774%)
 Dispersion                     ...        0 min,  0.001 sec (  1.319%)
 classical contributions        ...        0 min,  0.000 sec (  0.180%)
 integral evaluation            ...        0 min,  0.005 sec (  6.986%)
 iterations                     ...        0 min,  0.042 sec ( 62.750%)
 molecular gradient             ...        0 min,  0.018 sec ( 27.113%)
 printout                       ...        0 min,  0.001 sec (  0.786%)

         :::::::::::::::::::::::::::::::::::::::::::::::::::::
         ::                     SUMMARY                     ::
         :::::::::::::::::::::::::::::::::::::::::::::::::::::
         :: total energy            -127.145624912788 Eh    ::
         :: gradient norm              0.043556801028 Eh/a0 ::
         :: HOMO-LUMO gap             10.000926170112 eV    ::
         ::.................................................::
         :: SCC energy              -127.904645165906 Eh    ::
         :: -> isotropic ES            0.760474830550 Eh    ::
         :: -> anisotropic ES         -0.129960639047 Eh    ::
         :: -> anisotropic XC         -0.015963495875 Eh    ::
         :: -> dispersion             -0.041055584041 Eh    ::
         :: repulsion energy           0.756355305286 Eh    ::
         :: add. restraining           0.000000000000 Eh    ::
         :: total charge               0.000000000000 e     ::
         :::::::::::::::::::::::::::::::::::::::::::::::::::::

      ----------------------------------------------------------- 
     |                   =====================                   |
     |                        A N C O P T                        |
     |                   =====================                   |
     |               Approximate Normal Coordinate               |
     |                Rational Function Optimizer                |
      ----------------------------------------------------------- 

          ...................................................
          :                      SETUP                      :
          :.................................................:
          :   optimization level            normal          :
          :   max. optcycles                   225          :
          :   ANC micro-cycles                  20          :
          :   degrees of freedom               219          :
          :.................................................:
          :   RF solver                   davidson          :
          :   write xtbopt.log                true          :
          :   linear?                        false          :
          :   energy convergence         0.5000000E-05 Eh   :
          :   grad. convergence          0.1000000E-02 Eh/α :
          :   maximium RF displ.         1.0000000          :
          :   Hlow (freq-cutoff)         0.1000000E-01      :
          :   Hmax (freq-cutoff)         5.0000000          :
          :   S6 in model hess.         20.0000000          :
          ...................................................

generating ANC from model Hessian ...
Using Lindh-Hessian (1995)
 Shifting diagonal of input Hessian by   1.021291378888502E-002
 Lowest  eigenvalues of input Hessian
    0.010000    0.010052    0.010086    0.010101    0.010124    0.010138
    0.010180    0.010196    0.000000    0.000000    0.000000    0.000000
    0.000000    0.000000    0.010237    0.010280    0.010348    0.010435
 Highest eigenvalues
    1.409343    1.413594    1.414939    1.416837    1.419939    1.426111
 

........................................................................
.............................. CYCLE    1 ..............................
........................................................................
   1   -127.9046452 -0.127905E+03  0.437E-05   10.00       0.0  T
   2   -127.9046452 -0.980549E-11  0.249E-05   10.00     463.1  T
   3   -127.9046452 -0.228795E-11  0.613E-06   10.00    1882.4  T
     SCC iter.                  ...        0 min,  0.013 sec
     gradient                   ...        0 min,  0.018 sec
 * total energy  :  -127.1456249 Eh     change       -0.2330765E-08 Eh
   gradient norm :     0.0435578 Eh/α   predicted     0.0000000E+00 (-100.00%)
   displ. norm   :     0.2934375 α      lambda       -0.3508265E-02
   maximum displ.:     0.0831877 α      in ANC's #30, #31, #50, ...

........................................................................
.............................. CYCLE    2 ..............................
........................................................................
   1   -127.9104188 -0.127910E+03  0.567E-02   10.04       0.0  T
   2   -127.9104451 -0.262612E-04  0.324E-02   10.04       1.0  T
   3   -127.9104489 -0.382196E-05  0.974E-03   10.05       1.2  T
   4   -127.9104494 -0.464307E-06  0.139E-03   10.05       8.3  T
   5   -127.9104494 -0.640465E-08  0.239E-04   10.05      48.2  T
   6   -127.9104494 -0.293923E-09  0.824E-05   10.05     140.2  T
     SCC iter.                  ...        0 min,  0.024 sec
     gradient                   ...        0 min,  0.018 sec
 * total energy  :  -127.1482788 Eh     change       -0.2653836E-02 Eh
   gradient norm :     0.0190714 Eh/α   predicted    -0.1905432E-02 ( -28.20%)
   displ. norm   :     0.4393781 α      lambda       -0.2605993E-02
   maximum displ.:     0.1418700 α      in ANC's #30, #50, #31, ...

........................................................................
.............................. CYCLE    3 ..............................
........................................................................
   1   -127.9153245 -0.127915E+03  0.586E-02   10.08       0.0  T
   2   -127.9153630 -0.385532E-04  0.325E-02   10.08       1.0  T
   3   -127.9153683 -0.527172E-05  0.114E-02   10.08       1.0  T
   4   -127.9153687 -0.428802E-06  0.134E-03   10.08       8.6  T
   5   -127.9153687 -0.667231E-08  0.304E-04   10.08      38.0  T
   6   -127.9153687 -0.408917E-09  0.953E-05   10.08     121.1  T
     SCC iter.                  ...        0 min,  0.024 sec
     gradient                   ...        0 min,  0.018 sec
 * total energy  :  -127.1498737 Eh     change       -0.1594938E-02 Eh
   gradient norm :     0.0145244 Eh/α   predicted    -0.1554988E-02 (  -2.50%)
   displ. norm   :     0.3573085 α      lambda       -0.1057708E-02
   maximum displ.:     0.1294693 α      in ANC's #31, #30, #50, ...

........................................................................
.............................. CYCLE    4 ..............................
........................................................................
   1   -127.9151901 -0.127915E+03  0.379E-02   10.09       0.0  T
   2   -127.9151980 -0.793162E-05  0.227E-02   10.09       1.0  T
   3   -127.9151994 -0.135691E-05  0.541E-03   10.09       2.1  T
   4   -127.9151996 -0.198102E-06  0.791E-04   10.09      14.6  T
   5   -127.9151996 -0.192182E-08  0.140E-04   10.09      82.6  T
     SCC iter.                  ...        0 min,  0.021 sec
     gradient                   ...        0 min,  0.018 sec
 * total energy  :  -127.1506734 Eh     change       -0.7996978E-03 Eh
   gradient norm :     0.0086331 Eh/α   predicted    -0.5964693E-03 ( -25.41%)
   displ. norm   :     0.4763321 α      lambda       -0.9885151E-03
   maximum displ.:     0.1784175 α      in ANC's #31, #30, #50, ...

........................................................................
.............................. CYCLE    5 ..............................
........................................................................
   1   -127.9135640 -0.127914E+03  0.418E-02   10.09       0.0  T
   2   -127.9135692 -0.519561E-05  0.255E-02   10.09       1.0  T
   3   -127.9135704 -0.121395E-05  0.421E-03   10.09       2.7  T
   4   -127.9135706 -0.170973E-06  0.854E-04   10.09      13.5  T
   5   -127.9135706 -0.180420E-08  0.130E-04   10.09      89.1  T
     SCC iter.                  ...        0 min,  0.021 sec
     gradient                   ...        0 min,  0.018 sec
 * total energy  :  -127.1513272 Eh     change       -0.6538204E-03 Eh
   gradient norm :     0.0100792 Eh/α   predicted    -0.6064466E-03 (  -7.25%)
   displ. norm   :     0.4296203 α      lambda       -0.7424623E-03
   maximum displ.:     0.1605751 α      in ANC's #31, #30, #5, ...

........................................................................
.............................. CYCLE    6 ..............................
........................................................................
   1   -127.9135004 -0.127914E+03  0.321E-02   10.09       0.0  T
   2   -127.9135047 -0.423791E-05  0.191E-02   10.09       1.0  T
   3   -127.9135054 -0.754700E-06  0.387E-03   10.09       3.0  T
   4   -127.9135056 -0.116761E-06  0.638E-04   10.09      18.1  T
   5   -127.9135056 -0.126245E-08  0.117E-04   10.09      98.3  T
     SCC iter.                  ...        0 min,  0.021 sec
     gradient                   ...        0 min,  0.018 sec
 * total energy  :  -127.1518557 Eh     change       -0.5285413E-03 Eh
   gradient norm :     0.0069188 Eh/α   predicted    -0.4397746E-03 ( -16.79%)
   displ. norm   :     0.4323734 α      lambda       -0.5747954E-03
   maximum displ.:     0.1626470 α      in ANC's #31, #5, #30, ...

........................................................................
.............................. CYCLE    7 ..............................
........................................................................
   1   -127.9109469 -0.127911E+03  0.329E-02   10.08       0.0  T
   2   -127.9109505 -0.360662E-05  0.198E-02   10.08       1.0  T
   3   -127.9109512 -0.678118E-06  0.347E-03   10.09       3.3  T
   4   -127.9109513 -0.113037E-06  0.646E-04   10.09      17.9  T
   5   -127.9109513 -0.122294E-08  0.106E-04   10.09     109.1  T
     SCC iter.                  ...        0 min,  0.021 sec
     gradient                   ...        0 min,  0.018 sec
 * total energy  :  -127.1522945 Eh     change       -0.4387850E-03 Eh
   gradient norm :     0.0061037 Eh/α   predicted    -0.3411263E-03 ( -22.26%)
   displ. norm   :     0.4523378 α      lambda       -0.5148270E-03
   maximum displ.:     0.1915663 α      in ANC's #5, #8, #31, ...

........................................................................
.............................. CYCLE    8 ..............................
........................................................................
   1   -127.9094212 -0.127909E+03  0.350E-02   10.08       0.0  T
   2   -127.9094246 -0.338381E-05  0.211E-02   10.08       1.0  T
   3   -127.9094253 -0.708995E-06  0.322E-03   10.09       3.6  T
   4   -127.9094254 -0.114344E-06  0.697E-04   10.09      16.6  T
   5   -127.9094254 -0.172615E-08  0.115E-04   10.09     100.8  T
     SCC iter.                  ...        0 min,  0.021 sec
     gradient                   ...        0 min,  0.018 sec
 * total energy  :  -127.1526887 Eh     change       -0.3941346E-03 Eh
   gradient norm :     0.0067485 Eh/α   predicted    -0.3100892E-03 ( -21.32%)
   displ. norm   :     0.4718645 α      lambda       -0.4587543E-03
   maximum displ.:     0.2192339 α      in ANC's #5, #8, #31, ...

........................................................................
.............................. CYCLE    9 ..............................
........................................................................
   1   -127.9074465 -0.127907E+03  0.403E-02   10.08       0.0  T
   2   -127.9074492 -0.275942E-05  0.246E-02   10.09       1.0  T
   3   -127.9074500 -0.738393E-06  0.278E-03   10.09       4.2  T
   4   -127.9074501 -0.971222E-07  0.723E-04   10.09      16.0  T
   5   -127.9074501 -0.167483E-08  0.111E-04   10.09     104.1  T
     SCC iter.                  ...        0 min,  0.021 sec
     gradient                   ...        0 min,  0.018 sec
 * total energy  :  -127.1530547 Eh     change       -0.3660218E-03 Eh
   gradient norm :     0.0077008 Eh/α   predicted    -0.2804496E-03 ( -23.38%)
   displ. norm   :     0.5064210 α      lambda       -0.4905195E-03
   maximum displ.:     0.2499052 α      in ANC's #5, #8, #19, ...

........................................................................
.............................. CYCLE   10 ..............................
........................................................................
   1   -127.9072118 -0.127907E+03  0.439E-02   10.09       0.0  T
   2   -127.9072142 -0.245941E-05  0.267E-02   10.09       1.0  T
   3   -127.9072150 -0.737492E-06  0.261E-03   10.08       4.4  T
   4   -127.9072150 -0.837576E-07  0.724E-04   10.08      15.9  T
   5   -127.9072150 -0.168535E-08  0.109E-04   10.08     105.6  T
     SCC iter.                  ...        0 min,  0.021 sec
     gradient                   ...        0 min,  0.018 sec
 * total energy  :  -127.1534434 Eh     change       -0.3886881E-03 Eh
   gradient norm :     0.0092464 Eh/α   predicted    -0.3081635E-03 ( -20.72%)
   displ. norm   :     0.5141933 α      lambda       -0.5238691E-03
   maximum displ.:     0.2640202 α      in ANC's #5, #8, #2, ...

........................................................................
.............................. CYCLE   11 ..............................
........................................................................
   1   -127.9078547 -0.127908E+03  0.408E-02   10.09       0.0  T
   2   -127.9078566 -0.189452E-05  0.248E-02   10.09       1.0  T
   3   -127.9078571 -0.567919E-06  0.233E-03   10.09       4.9  T
   4   -127.9078572 -0.644679E-07  0.646E-04   10.09      17.9  T
   5   -127.9078572 -0.125847E-08  0.939E-05   10.09     123.0  T
     SCC iter.                  ...        0 min,  0.021 sec
     gradient                   ...        0 min,  0.018 sec
 * total energy  :  -127.1538650 Eh     change       -0.4216012E-03 Eh
   gradient norm :     0.0081092 Eh/α   predicted    -0.3311931E-03 ( -21.44%)
   displ. norm   :     0.5475183 α      lambda       -0.5467468E-03
   maximum displ.:     0.2862986 α      in ANC's #5, #8, #2, ...

........................................................................
.............................. CYCLE   12 ..............................
........................................................................
   1   -127.9095023 -0.127910E+03  0.459E-02   10.09       0.0  T
   2   -127.9095047 -0.236921E-05  0.279E-02   10.08       1.0  T
   3   -127.9095053 -0.678192E-06  0.255E-03   10.08       4.5  T
   4   -127.9095054 -0.810222E-07  0.677E-04   10.08      17.1  T
   5   -127.9095054 -0.114014E-08  0.942E-05   10.08     122.6  T
     SCC iter.                  ...        0 min,  0.021 sec
     gradient                   ...        0 min,  0.018 sec
 * total energy  :  -127.1542891 Eh     change       -0.4241526E-03 Eh
   gradient norm :     0.0102549 Eh/α   predicted    -0.3553260E-03 ( -16.23%)
   displ. norm   :     0.5597075 α      lambda       -0.5984150E-03
   maximum displ.:     0.2940796 α      in ANC's #5, #8, #2, ...

........................................................................
.............................. CYCLE   13 ..............................
........................................................................
   1   -127.9121451 -0.127912E+03  0.411E-02   10.10       0.0  T
   2   -127.9121480 -0.286311E-05  0.249E-02   10.10       1.0  T
   3   -127.9121488 -0.845963E-06  0.304E-03   10.10       3.8  T
   4   -127.9121489 -0.988793E-07  0.826E-04   10.10      14.0  T
   5   -127.9121489 -0.241471E-08  0.119E-04   10.10      97.0  T
     SCC iter.                  ...        0 min,  0.021 sec
     gradient                   ...        0 min,  0.018 sec
 * total energy  :  -127.1547024 Eh     change       -0.4132818E-03 Eh
   gradient norm :     0.0113605 Eh/α   predicted    -0.3929420E-03 (  -4.92%)
   displ. norm   :     0.6108938 α      lambda       -0.7378328E-03
   maximum displ.:     0.3246858 α      in ANC's #5, #8, #2, ...

........................................................................
.............................. CYCLE   14 ..............................
........................................................................
   1   -127.9108433 -0.127911E+03  0.576E-02   10.11       0.0  T
   2   -127.9108476 -0.426487E-05  0.349E-02   10.10       1.0  T
   3   -127.9108488 -0.122926E-05  0.356E-03   10.10       3.2  T
   4   -127.9108489 -0.147943E-06  0.925E-04   10.10      12.5  T
   5   -127.9108489 -0.243789E-08  0.135E-04   10.10      85.5  T
     SCC iter.                  ...        0 min,  0.021 sec
     gradient                   ...        0 min,  0.018 sec
 * total energy  :  -127.1551848 Eh     change       -0.4824263E-03 Eh
   gradient norm :     0.0151064 Eh/α   predicted    -0.5065961E-03 (   5.01%)
   displ. norm   :     0.4766913 α      lambda       -0.7021776E-03
   maximum displ.:     0.2457167 α      in ANC's #5, #8, #2, ...

........................................................................
.............................. CYCLE   15 ..............................
........................................................................
   1   -127.9140481 -0.127914E+03  0.356E-02   10.10       0.0  T
   2   -127.9140500 -0.190665E-05  0.216E-02   10.10       1.0  T
   3   -127.9140506 -0.602039E-06  0.241E-03   10.10       4.8  T
   4   -127.9140506 -0.634735E-07  0.685E-04   10.10      16.9  T
   5   -127.9140506 -0.167876E-08  0.973E-05   10.10     118.7  T
     SCC iter.                  ...        0 min,  0.021 sec
     gradient                   ...        0 min,  0.018 sec
 * total energy  :  -127.1557123 Eh     change       -0.5274942E-03 Eh
   gradient norm :     0.0118585 Eh/α   predicted    -0.4308692E-03 ( -18.32%)
   displ. norm   :     0.6466003 α      lambda       -0.8856648E-03
   maximum displ.:     0.3338658 α      in ANC's #5, #8, #2, ...

........................................................................
.............................. CYCLE   16 ..............................
........................................................................
   1   -127.9128470 -0.127913E+03  0.538E-02   10.09       0.0  T
   2   -127.9128519 -0.490686E-05  0.326E-02   10.09       1.0  T
   3   -127.9128533 -0.145211E-05  0.397E-03   10.09       2.9  T
   4   -127.9128535 -0.173326E-06  0.113E-03   10.09      10.2  T
   5   -127.9128535 -0.459609E-08  0.146E-04   10.09      79.1  T
   6   -127.9128535 -0.111683E-09  0.611E-05   10.09     188.9  T
     SCC iter.                  ...        0 min,  0.024 sec
     gradient                   ...        0 min,  0.018 sec
 * total energy  :  -127.1563499 Eh     change       -0.6375910E-03 Eh
   gradient norm :     0.0112564 Eh/α   predicted    -0.6279783E-03 (  -1.51%)
   displ. norm   :     0.6692321 α      lambda       -0.8827125E-03
   maximum displ.:     0.3516764 α      in ANC's #5, #8, #2, ...

........................................................................
.............................. CYCLE   17 ..............................
........................................................................
   1   -127.9122749 -0.127912E+03  0.517E-02   10.09       0.0  T
   2   -127.9122786 -0.374137E-05  0.314E-02   10.09       1.0  T
   3   -127.9122798 -0.122576E-05  0.336E-03   10.09       3.4  T
   4   -127.9122799 -0.121586E-06  0.984E-04   10.09      11.7  T
   5   -127.9122800 -0.303797E-08  0.132E-04   10.09      87.4  T
     SCC iter.                  ...        0 min,  0.020 sec
     gradient                   ...        0 min,  0.018 sec
 * total energy  :  -127.1569675 Eh     change       -0.6175667E-03 Eh
   gradient norm :     0.0147423 Eh/α   predicted    -0.6390298E-03 (   3.48%)
   displ. norm   :     0.6286206 α      lambda       -0.1055184E-02
   maximum displ.:     0.3023314 α      in ANC's #5, #2, #8, ...

........................................................................
.............................. CYCLE   18 ..............................
........................................................................
   1   -127.9185761 -0.127919E+03  0.486E-02   10.10       0.0  T
   2   -127.9185810 -0.491184E-05  0.290E-02   10.10       1.0  T
   3   -127.9185823 -0.130135E-05  0.400E-03   10.10       2.9  T
   4   -127.9185825 -0.157933E-06  0.101E-03   10.10      11.5  T
   5   -127.9185825 -0.315268E-08  0.139E-04   10.10      83.3  T
   6   -127.9185825 -0.953975E-10  0.561E-05   10.10     206.0  T
     SCC iter.                  ...        0 min,  0.024 sec
     gradient                   ...        0 min,  0.018 sec
 * total energy  :  -127.1574824 Eh     change       -0.5148717E-03 Eh
   gradient norm :     0.0181113 Eh/α   predicted    -0.7360802E-03 (  42.96%)
   displ. norm   :     0.6297951 α      lambda       -0.1250263E-02
   maximum displ.:     0.3293878 α      in ANC's #5, #8, #2, ...

........................................................................
.............................. CYCLE   19 ..............................
........................................................................
   1   -127.9085614 -0.127909E+03  0.609E-02   10.07       0.0  T
   2   -127.9085664 -0.497899E-05  0.368E-02   10.06       1.0  T
   3   -127.9085678 -0.138251E-05  0.397E-03   10.05       2.9  T
   4   -127.9085680 -0.165662E-06  0.106E-03   10.05      10.9  T
   5   -127.9085680 -0.289037E-08  0.139E-04   10.05      83.3  T
   6   -127.9085680 -0.880789E-10  0.592E-05   10.05     195.2  T
     SCC iter.                  ...        0 min,  0.026 sec
     gradient                   ...        0 min,  0.018 sec
 * total energy  :  -127.1581112 Eh     change       -0.6288801E-03 Eh
   gradient norm :     0.0208968 Eh/α   predicted    -0.8730849E-03 (  38.83%)
   displ. norm   :     0.4126000 α      lambda       -0.1216060E-02
   maximum displ.:     0.1882466 α      in ANC's #2, #5, #8, ...

........................................................................
.............................. CYCLE   20 ..............................
........................................................................
   1   -127.9132967 -0.127913E+03  0.426E-02   10.08       0.0  T
   2   -127.9133020 -0.528183E-05  0.252E-02   10.08       1.0  T
   3   -127.9133033 -0.134814E-05  0.430E-03   10.08       2.7  T
   4   -127.9133035 -0.156383E-06  0.106E-03   10.08      10.9  T
   5   -127.9133035 -0.368890E-08  0.150E-04   10.08      76.7  T
   6   -127.9133035 -0.116003E-09  0.592E-05   10.08     195.0  T
     SCC iter.                  ...        0 min,  0.024 sec
     gradient                   ...        0 min,  0.018 sec
 * total energy  :  -127.1586477 Eh     change       -0.5364854E-03 Eh
   gradient norm :     0.0187337 Eh/α   predicted    -0.7115428E-03 (  32.63%)
   displ. norm   :     0.5572504 α      lambda       -0.1396447E-02
   maximum displ.:     0.2715629 α      in ANC's #5, #2, #8, ...
 * RMSD in coord.:     0.9852885 α      energy gain  -0.1302282E-01 Eh

generating ANC from model Hessian ...
Using Lindh-Hessian (1995)
 Shifting diagonal of input Hessian by   1.033999344616436E-002
 Lowest  eigenvalues of input Hessian
    0.010000    0.010172    0.010226    0.010308    0.010313    0.000000
    0.000000    0.000000    0.000000    0.000000    0.000000    0.010345
    0.010409    0.010453    0.010502    0.010525    0.010580    0.010676
 Highest eigenvalues
    1.406127    1.412400    1.412630    1.416443    1.420928    1.447265
 

........................................................................
.............................. CYCLE   21 ..............................
........................................................................
   1   -127.9150586 -0.127915E+03  0.521E-02   10.08       0.0  T
   2   -127.9150647 -0.603675E-05  0.316E-02   10.08       1.0  T
   3   -127.9150671 -0.238263E-05  0.444E-03   10.08       2.6  T
   4   -127.9150672 -0.174508E-06  0.144E-03   10.08       8.0  T
   5   -127.9150672 -0.773682E-08  0.189E-04   10.08      61.1  T
   6   -127.9150672 -0.180478E-09  0.752E-05   10.08     153.5  T
     SCC iter.                  ...        0 min,  0.024 sec
     gradient                   ...        0 min,  0.018 sec
 * total energy  :  -127.1593167 Eh     change       -0.6690179E-03 Eh
   gradient norm :     0.0192134 Eh/α   predicted     0.0000000E+00 (-100.00%)
   displ. norm   :     0.1779437 α      lambda       -0.8851796E-03
   maximum displ.:     0.0994681 α      in ANC's #1, #8, #3, ...

........................................................................
.............................. CYCLE   22 ..............................
........................................................................
   1   -127.9161782 -0.127916E+03  0.351E-02   10.08       0.0  T
   2   -127.9161796 -0.145992E-05  0.214E-02   10.08       1.0  T
   3   -127.9161803 -0.634816E-06  0.204E-03   10.08       5.7  T
   4   -127.9161803 -0.320613E-07  0.644E-04   10.08      17.9  T
   5   -127.9161803 -0.126101E-08  0.861E-05   10.08     134.1  T
     SCC iter.                  ...        0 min,  0.021 sec
     gradient                   ...        0 min,  0.018 sec
 * total energy  :  -127.1599381 Eh     change       -0.6213236E-03 Eh
   gradient norm :     0.0069451 Eh/α   predicted    -0.4566139E-03 ( -26.51%)
   displ. norm   :     0.2772078 α      lambda       -0.6222503E-03
   maximum displ.:     0.1814807 α      in ANC's #1, #3, #8, ...

........................................................................
.............................. CYCLE   23 ..............................
........................................................................
   1   -127.9165837 -0.127917E+03  0.361E-02   10.07       0.0  T
   2   -127.9165850 -0.129201E-05  0.220E-02   10.08       1.0  T
   3   -127.9165855 -0.516457E-06  0.195E-03   10.08       5.9  T
   4   -127.9165856 -0.331958E-07  0.624E-04   10.08      18.5  T
   5   -127.9165856 -0.127309E-08  0.862E-05   10.08     133.9  T
     SCC iter.                  ...        0 min,  0.021 sec
     gradient                   ...        0 min,  0.018 sec
 * total energy  :  -127.1603539 Eh     change       -0.4158456E-03 Eh
   gradient norm :     0.0081408 Eh/α   predicted    -0.3350335E-03 ( -19.43%)
   displ. norm   :     0.2862551 α      lambda       -0.4078703E-03
   maximum displ.:     0.1893486 α      in ANC's #1, #3, #4, ...

........................................................................
.............................. CYCLE   24 ..............................
........................................................................
   1   -127.9165066 -0.127917E+03  0.273E-02   10.07       0.0  T
   2   -127.9165075 -0.894073E-06  0.165E-02   10.07       1.0  T
   3   -127.9165078 -0.283560E-06  0.162E-03   10.07       7.1  T
   4   -127.9165078 -0.270769E-07  0.443E-04   10.07      26.1  T
   5   -127.9165078 -0.670184E-09  0.720E-05   10.07     160.3  T
     SCC iter.                  ...        0 min,  0.021 sec
     gradient                   ...        0 min,  0.018 sec
 * total energy  :  -127.1607037 Eh     change       -0.3497492E-03 Eh
   gradient norm :     0.0110650 Eh/α   predicted    -0.2206466E-03 ( -36.91%)
   displ. norm   :     0.4441412 α      lambda       -0.6318263E-03
   maximum displ.:     0.2750935 α      in ANC's #1, #3, #4, ...

........................................................................
.............................. CYCLE   25 ..............................
........................................................................
   1   -127.9163078 -0.127916E+03  0.382E-02   10.07       0.0  T
   2   -127.9163100 -0.212541E-05  0.231E-02   10.07       1.0  T
   3   -127.9163106 -0.618638E-06  0.261E-03   10.07       4.4  T
   4   -127.9163106 -0.684582E-07  0.669E-04   10.07      17.2  T
   5   -127.9163107 -0.157156E-08  0.114E-04   10.07     101.3  T
     SCC iter.                  ...        0 min,  0.021 sec
     gradient                   ...        0 min,  0.018 sec
 * total energy  :  -127.1612223 Eh     change       -0.5186754E-03 Eh
   gradient norm :     0.0083037 Eh/α   predicted    -0.3782354E-03 ( -27.08%)
   displ. norm   :     0.5082016 α      lambda       -0.5674894E-03
   maximum displ.:     0.3076130 α      in ANC's #1, #3, #4, ...

........................................................................
.............................. CYCLE   26 ..............................
........................................................................
   1   -127.9154359 -0.127915E+03  0.429E-02   10.06       0.0  T
   2   -127.9154392 -0.326000E-05  0.261E-02   10.06       1.0  T
   3   -127.9154401 -0.970997E-06  0.322E-03   10.06       3.6  T
   4   -127.9154403 -0.105134E-06  0.819E-04   10.06      14.1  T
   5   -127.9154403 -0.199528E-08  0.126E-04   10.06      91.8  T
     SCC iter.                  ...        0 min,  0.021 sec
     gradient                   ...        0 min,  0.018 sec
 * total energy  :  -127.1616199 Eh     change       -0.3975312E-03 Eh
   gradient norm :     0.0076479 Eh/α   predicted    -0.3570282E-03 ( -10.19%)
   displ. norm   :     0.3440504 α      lambda       -0.3151413E-03
   maximum displ.:     0.1778096 α      in ANC's #1, #3, #4, ...

........................................................................
.............................. CYCLE   27 ..............................
........................................................................
   1   -127.9174310 -0.127917E+03  0.268E-02   10.06       0.0  T
   2   -127.9174328 -0.183499E-05  0.160E-02   10.06       1.0  T
   3   -127.9174332 -0.380216E-06  0.252E-03   10.06       4.6  T
   4   -127.9174332 -0.599566E-07  0.512E-04   10.06      22.6  T
   5   -127.9174332 -0.731561E-09  0.794E-05   10.06     145.4  T
     SCC iter.                  ...        0 min,  0.020 sec
     gradient                   ...        0 min,  0.018 sec
 * total energy  :  -127.1617866 Eh     change       -0.1667041E-03 Eh
   gradient norm :     0.0073153 Eh/α   predicted    -0.1762231E-03 (   5.71%)
   displ. norm   :     0.3768171 α      lambda       -0.3657239E-03
   maximum displ.:     0.1667817 α      in ANC's #1, #3, #4, ...

........................................................................
.............................. CYCLE   28 ..............................
........................................................................
   1   -127.9164086 -0.127916E+03  0.404E-02   10.05       0.0  T
   2   -127.9164108 -0.226878E-05  0.249E-02   10.05       1.0  T
   3   -127.9164119 -0.103100E-05  0.255E-03   10.05       4.5  T
   4   -127.9164119 -0.511378E-07  0.774E-04   10.05      14.9  T
   5   -127.9164119 -0.151067E-08  0.943E-05   10.05     122.4  T
     SCC iter.                  ...        0 min,  0.020 sec
     gradient                   ...        0 min,  0.018 sec
 * total energy  :  -127.1619362 Eh     change       -0.1495813E-03 Eh
   gradient norm :     0.0137599 Eh/α   predicted    -0.2088318E-03 (  39.61%)
   displ. norm   :     0.1246430 α      lambda       -0.2524696E-03
   maximum displ.:     0.0461965 α      in ANC's #3, #29, #25, ...

........................................................................
.............................. CYCLE   29 ..............................
........................................................................
   1   -127.9176768 -0.127918E+03  0.138E-02   10.05       0.0  T
   2   -127.9176774 -0.557128E-06  0.823E-03   10.05       1.4  T
   3   -127.9176775 -0.130736E-06  0.137E-03   10.05       8.4  T
   4   -127.9176776 -0.172158E-07  0.332E-04   10.05      34.8  T
   5   -127.9176776 -0.417842E-09  0.511E-05   10.05     225.9  T
     SCC iter.                  ...        0 min,  0.021 sec
     gradient                   ...        0 min,  0.018 sec
 * total energy  :  -127.1621166 Eh     change       -0.1804075E-03 Eh
   gradient norm :     0.0061747 Eh/α   predicted    -0.1281987E-03 ( -28.94%)
   displ. norm   :     0.3157332 α      lambda       -0.2590817E-03
   maximum displ.:     0.1592959 α      in ANC's #3, #4, #8, ...

........................................................................
.............................. CYCLE   30 ..............................
........................................................................
   1   -127.9170359 -0.127917E+03  0.263E-02   10.04       0.0  T
   2   -127.9170369 -0.923495E-06  0.161E-02   10.04       1.0  T
   3   -127.9170372 -0.298919E-06  0.161E-03   10.04       7.2  T
   4   -127.9170372 -0.300248E-07  0.460E-04   10.04      25.1  T
   5   -127.9170372 -0.630422E-09  0.644E-05   10.04     179.2  T
     SCC iter.                  ...        0 min,  0.021 sec
     gradient                   ...        0 min,  0.018 sec
 * total energy  :  -127.1623037 Eh     change       -0.1871152E-03 Eh
   gradient norm :     0.0034656 Eh/α   predicted    -0.1424554E-03 ( -23.87%)
   displ. norm   :     0.3754927 α      lambda       -0.2078545E-03
   maximum displ.:     0.2025459 α      in ANC's #3, #4, #8, ...

........................................................................
.............................. CYCLE   31 ..............................
........................................................................
   1   -127.9170115 -0.127917E+03  0.298E-02   10.03       0.0  T
   2   -127.9170125 -0.101212E-05  0.183E-02   10.03       1.0  T
   3   -127.9170129 -0.392762E-06  0.169E-03   10.03       6.8  T
   4   -127.9170129 -0.290219E-07  0.506E-04   10.03      22.8  T
   5   -127.9170129 -0.746567E-09  0.686E-05   10.03     168.3  T
     SCC iter.                  ...        0 min,  0.021 sec
     gradient                   ...        0 min,  0.018 sec
 * total energy  :  -127.1624544 Eh     change       -0.1507246E-03 Eh
   gradient norm :     0.0043385 Eh/α   predicted    -0.1185814E-03 ( -21.33%)
   displ. norm   :     0.3704776 α      lambda       -0.1680077E-03
   maximum displ.:     0.2095799 α      in ANC's #3, #4, #8, ...

........................................................................
.............................. CYCLE   32 ..............................
........................................................................
   1   -127.9155370 -0.127916E+03  0.296E-02   10.02       0.0  T
   2   -127.9155379 -0.852268E-06  0.181E-02   10.02       1.0  T
   3   -127.9155382 -0.355914E-06  0.154E-03   10.02       7.5  T
   4   -127.9155383 -0.220410E-07  0.480E-04   10.02      24.0  T
   5   -127.9155383 -0.642871E-09  0.665E-05   10.02     173.7  T
     SCC iter.                  ...        0 min,  0.020 sec
     gradient                   ...        0 min,  0.018 sec
 * total energy  :  -127.1625678 Eh     change       -0.1133697E-03 Eh
   gradient norm :     0.0054413 Eh/α   predicted    -0.9553445E-04 ( -15.73%)
   displ. norm   :     0.3023174 α      lambda       -0.1771359E-03
   maximum displ.:     0.1926239 α      in ANC's #3, #4, #8, ...

........................................................................
.............................. CYCLE   33 ..............................
........................................................................
   1   -127.9181554 -0.127918E+03  0.235E-02   10.02       0.0  T
   2   -127.9181562 -0.745596E-06  0.143E-02   10.02       1.0  T
   3   -127.9181564 -0.280651E-06  0.155E-03   10.02       7.5  T
   4   -127.9181565 -0.213622E-07  0.449E-04   10.02      25.7  T
   5   -127.9181565 -0.646921E-09  0.661E-05   10.02     174.8  T
     SCC iter.                  ...        0 min,  0.020 sec
     gradient                   ...        0 min,  0.018 sec
 * total energy  :  -127.1626358 Eh     change       -0.6803334E-04 Eh
   gradient norm :     0.0088869 Eh/α   predicted    -0.9666328E-04 (  42.08%)
   displ. norm   :     0.2312122 α      lambda       -0.1501842E-03
   maximum displ.:     0.1373633 α      in ANC's #3, #4, #1, ...

........................................................................
.............................. CYCLE   34 ..............................
........................................................................
   1   -127.9181096 -0.127918E+03  0.198E-02   10.02       0.0  T
   2   -127.9181103 -0.658781E-06  0.121E-02   10.02       1.0  T
   3   -127.9181105 -0.209587E-06  0.142E-03   10.01       8.1  T
   4   -127.9181105 -0.212267E-07  0.386E-04   10.02      29.9  T
   5   -127.9181105 -0.374996E-09  0.490E-05   10.02     235.7  T
     SCC iter.                  ...        0 min,  0.021 sec
     gradient                   ...        0 min,  0.018 sec
 * total energy  :  -127.1627360 Eh     change       -0.1002017E-03 Eh
   gradient norm :     0.0041989 Eh/α   predicted    -0.7910717E-04 ( -21.05%)
   displ. norm   :     0.2587798 α      lambda       -0.1142185E-03
   maximum displ.:     0.1665518 α      in ANC's #3, #4, #8, ...

........................................................................
.............................. CYCLE   35 ..............................
........................................................................
   1   -127.9174801 -0.127917E+03  0.195E-02   10.01       0.0  T
   2   -127.9174808 -0.659167E-06  0.119E-02   10.01       1.0  T
   3   -127.9174809 -0.178012E-06  0.141E-03   10.01       8.2  T
   4   -127.9174810 -0.230284E-07  0.358E-04   10.01      32.3  T
   5   -127.9174810 -0.330175E-09  0.486E-05   10.01     237.6  T
     SCC iter.                  ...        0 min,  0.021 sec
     gradient                   ...        0 min,  0.018 sec
 * total energy  :  -127.1628225 Eh     change       -0.8653988E-04 Eh
   gradient norm :     0.0055964 Eh/α   predicted    -0.6093499E-04 ( -29.59%)
   displ. norm   :     0.3285667 α      lambda       -0.1602544E-03
   maximum displ.:     0.2129187 α      in ANC's #3, #4, #20, ...

........................................................................
.............................. CYCLE   36 ..............................
........................................................................
   1   -127.9189233 -0.127919E+03  0.223E-02   10.01       0.0  T
   2   -127.9189246 -0.133197E-05  0.134E-02   10.01       1.0  T
   3   -127.9189249 -0.307075E-06  0.211E-03   10.01       5.5  T
   4   -127.9189250 -0.450676E-07  0.473E-04   10.01      24.4  T
   5   -127.9189250 -0.694612E-09  0.648E-05   10.01     178.1  T
     SCC iter.                  ...        0 min,  0.021 sec
     gradient                   ...        0 min,  0.018 sec
 * total energy  :  -127.1629356 Eh     change       -0.1130637E-03 Eh
   gradient norm :     0.0053811 Eh/α   predicted    -0.8877828E-04 ( -21.48%)
   displ. norm   :     0.4036339 α      lambda       -0.1750527E-03
   maximum displ.:     0.2604095 α      in ANC's #3, #4, #10, ...

........................................................................
.............................. CYCLE   37 ..............................
........................................................................
   1   -127.9178417 -0.127918E+03  0.291E-02   10.00       0.0  T
   2   -127.9178428 -0.105724E-05  0.177E-02   10.00       1.0  T
   3   -127.9178431 -0.363966E-06  0.173E-03   10.00       6.7  T
   4   -127.9178432 -0.323592E-07  0.513E-04   10.00      22.5  T
   5   -127.9178432 -0.761560E-09  0.729E-05   10.00     158.5  T
     SCC iter.                  ...        0 min,  0.021 sec
     gradient                   ...        0 min,  0.018 sec
 * total energy  :  -127.1630482 Eh     change       -0.1125979E-03 Eh
   gradient norm :     0.0056174 Eh/α   predicted    -0.1017874E-03 (  -9.60%)
   displ. norm   :     0.3243910 α      lambda       -0.1483514E-03
   maximum displ.:     0.2036841 α      in ANC's #3, #4, #10, ...

........................................................................
.............................. CYCLE   38 ..............................
........................................................................
   1   -127.9185462 -0.127919E+03  0.197E-02   10.00       0.0  T
   2   -127.9185467 -0.525484E-06  0.120E-02   10.00       1.0  T
   3   -127.9185469 -0.170982E-06  0.125E-03   10.00       9.2  T
   4   -127.9185469 -0.166960E-07  0.358E-04   10.00      32.3  T
   5   -127.9185469 -0.423128E-09  0.546E-05   10.00     211.6  T
     SCC iter.                  ...        0 min,  0.021 sec
     gradient                   ...        0 min,  0.018 sec
 * total energy  :  -127.1631669 Eh     change       -0.1187008E-03 Eh
   gradient norm :     0.0046592 Eh/α   predicted    -0.8198349E-04 ( -30.93%)
   displ. norm   :     0.4923436 α      lambda       -0.2019301E-03
   maximum displ.:     0.3110024 α      in ANC's #3, #4, #10, ...

........................................................................
.............................. CYCLE   39 ..............................
........................................................................
   1   -127.9188206 -0.127919E+03  0.301E-02   10.00       0.0  T
   2   -127.9188219 -0.120647E-05  0.184E-02   10.00       1.0  T
   3   -127.9188222 -0.378319E-06  0.183E-03   10.00       6.3  T
   4   -127.9188223 -0.389266E-07  0.509E-04   10.00      22.7  T
   5   -127.9188223 -0.767116E-09  0.759E-05   10.00     152.0  T
     SCC iter.                  ...        0 min,  0.021 sec
     gradient                   ...        0 min,  0.019 sec
 * total energy  :  -127.1633242 Eh     change       -0.1573019E-03 Eh
   gradient norm :     0.0052947 Eh/α   predicted    -0.1254438E-03 ( -20.25%)
   displ. norm   :     0.5989798 α      lambda       -0.2444537E-03
   maximum displ.:     0.3732598 α      in ANC's #3, #4, #10, ...

........................................................................
.............................. CYCLE   40 ..............................
........................................................................
   1   -127.9186441 -0.127919E+03  0.354E-02   10.00       0.0  T
   2   -127.9186459 -0.182467E-05  0.216E-02   10.00       1.0  T
   3   -127.9186464 -0.564355E-06  0.232E-03   10.00       5.0  T
   4   -127.9186465 -0.586318E-07  0.672E-04   10.00      17.2  T
   5   -127.9186465 -0.136716E-08  0.101E-04   10.00     114.3  T
     SCC iter.                  ...        0 min,  0.021 sec
     gradient                   ...        0 min,  0.019 sec
 * total energy  :  -127.1634913 Eh     change       -0.1670732E-03 Eh
   gradient norm :     0.0084807 Eh/α   predicted    -0.1660810E-03 (  -0.59%)
   displ. norm   :     0.5921067 α      lambda       -0.2635200E-03
   maximum displ.:     0.3643609 α      in ANC's #3, #4, #10, ...

........................................................................
.............................. CYCLE   41 ..............................
........................................................................
   1   -127.9191912 -0.127919E+03  0.340E-02   10.00       0.0  T
   2   -127.9191928 -0.163399E-05  0.207E-02   10.01       1.0  T
   3   -127.9191933 -0.514686E-06  0.216E-03   10.01       5.3  T
   4   -127.9191934 -0.532456E-07  0.609E-04   10.01      19.0  T
   5   -127.9191934 -0.101781E-08  0.818E-05   10.01     141.2  T
     SCC iter.                  ...        0 min,  0.021 sec
     gradient                   ...        0 min,  0.019 sec
 * total energy  :  -127.1636990 Eh     change       -0.2076877E-03 Eh
   gradient norm :     0.0064759 Eh/α   predicted    -0.1779599E-03 ( -14.31%)
   displ. norm   :     0.5911341 α      lambda       -0.3158708E-03
   maximum displ.:     0.3441980 α      in ANC's #3, #4, #2, ...

........................................................................
.............................. CYCLE   42 ..............................
........................................................................
   1   -127.9208052 -0.127921E+03  0.331E-02   10.01       0.0  T
   2   -127.9208066 -0.137085E-05  0.202E-02   10.01       1.0  T
   3   -127.9208071 -0.498763E-06  0.196E-03   10.01       5.9  T
   4   -127.9208071 -0.414374E-07  0.593E-04   10.01      19.5  T
   5   -127.9208071 -0.110008E-08  0.815E-05   10.01     141.7  T
     SCC iter.                  ...        0 min,  0.021 sec
     gradient                   ...        0 min,  0.019 sec
 * total energy  :  -127.1639653 Eh     change       -0.2663130E-03 Eh
   gradient norm :     0.0065105 Eh/α   predicted    -0.2131280E-03 ( -19.97%)
   displ. norm   :     0.6690312 α      lambda       -0.4466989E-03
   maximum displ.:     0.3661624 α      in ANC's #3, #4, #2, ...
 * RMSD in coord.:     0.8002068 α      energy gain  -0.5317558E-02 Eh

generating ANC from model Hessian ...
Using Lindh-Hessian (1995)
 Shifting diagonal of input Hessian by   1.009343921835377E-002
 Lowest  eigenvalues of input Hessian
    0.010000    0.010058    0.000000    0.000000    0.000000    0.000000
    0.000000    0.000000    0.010096    0.010144    0.010229    0.010235
    0.010303    0.010339    0.010435    0.010455    0.010461    0.010504
 Highest eigenvalues
    1.408040    1.409695    1.418931    1.423586    1.426630    1.433866
 

........................................................................
.............................. CYCLE   43 ..............................
........................................................................
   1   -127.9209794 -0.127921E+03  0.402E-02   10.01       0.0  T
   2   -127.9209817 -0.234536E-05  0.245E-02   10.01       1.0  T
   3   -127.9209824 -0.692606E-06  0.261E-03   10.01       4.4  T
   4   -127.9209825 -0.791407E-07  0.692E-04   10.01      16.7  T
   5   -127.9209825 -0.138935E-08  0.975E-05   10.01     118.5  T
     SCC iter.                  ...        0 min,  0.021 sec
     gradient                   ...        0 min,  0.019 sec
 * total energy  :  -127.1643016 Eh     change       -0.3362723E-03 Eh
   gradient norm :     0.0106508 Eh/α   predicted     0.0000000E+00 (-100.00%)
   displ. norm   :     0.1323036 α      lambda       -0.3986733E-03
   maximum displ.:     0.0300122 α      in ANC's #59, #37, #13, ...

........................................................................
.............................. CYCLE   44 ..............................
........................................................................
   1   -127.9203807 -0.127920E+03  0.326E-02   10.00       0.0  T
   2   -127.9203819 -0.126183E-05  0.202E-02   10.00       1.0  T
   3   -127.9203825 -0.569421E-06  0.183E-03   10.00       6.3  T
   4   -127.9203825 -0.298459E-07  0.579E-04   10.00      19.9  T
   5   -127.9203825 -0.692538E-09  0.622E-05   10.00     185.6  T
     SCC iter.                  ...        0 min,  0.021 sec
     gradient                   ...        0 min,  0.019 sec
 * total energy  :  -127.1646232 Eh     change       -0.3216412E-03 Eh
   gradient norm :     0.0043579 Eh/α   predicted    -0.2028266E-03 ( -36.94%)
   displ. norm   :     0.3451884 α      lambda       -0.6238495E-03
   maximum displ.:     0.0891948 α      in ANC's #13, #2, #9, ...

........................................................................
.............................. CYCLE   45 ..............................
........................................................................
   1   -127.9163551 -0.127916E+03  0.707E-02    9.99       0.0  T
   2   -127.9163616 -0.658436E-05  0.434E-02    9.99       1.0  T
   3   -127.9163643 -0.269410E-05  0.440E-03    9.99       2.6  T
   4   -127.9163645 -0.184660E-06  0.137E-03    9.99       8.4  T
   5   -127.9163645 -0.412668E-08  0.139E-04    9.99      83.0  T
   6   -127.9163645 -0.992486E-10  0.670E-05    9.99     172.4  T
     SCC iter.                  ...        0 min,  0.024 sec
     gradient                   ...        0 min,  0.019 sec
 * total energy  :  -127.1648791 Eh     change       -0.2559317E-03 Eh
   gradient norm :     0.0203822 Eh/α   predicted    -0.3491058E-03 (  36.41%)
   displ. norm   :     0.1227112 α      lambda       -0.4467152E-03
   maximum displ.:     0.0454947 α      in ANC's #13, #9, #2, ...

........................................................................
.............................. CYCLE   46 ..............................
........................................................................
   1   -127.9184251 -0.127918E+03  0.234E-02    9.99       0.0  T
   2   -127.9184263 -0.127156E-05  0.140E-02    9.99       1.0  T
   3   -127.9184267 -0.357941E-06  0.218E-03    9.99       5.3  T
   4   -127.9184267 -0.392465E-07  0.527E-04    9.99      21.9  T
   5   -127.9184267 -0.553982E-09  0.609E-05    9.99     189.6  T
     SCC iter.                  ...        0 min,  0.021 sec
     gradient                   ...        0 min,  0.019 sec
 * total energy  :  -127.1651465 Eh     change       -0.2673331E-03 Eh
   gradient norm :     0.0094700 Eh/α   predicted    -0.2268299E-03 ( -15.15%)
   displ. norm   :     0.2764841 α      lambda       -0.3758098E-03
   maximum displ.:     0.1035917 α      in ANC's #13, #9, #7, ...

........................................................................
.............................. CYCLE   47 ..............................
........................................................................
   1   -127.9192376 -0.127919E+03  0.304E-02    9.99       0.0  T
   2   -127.9192386 -0.934071E-06  0.185E-02    9.99       1.0  T
   3   -127.9192389 -0.334350E-06  0.163E-03    9.99       7.1  T
   4   -127.9192389 -0.270771E-07  0.467E-04    9.99      24.7  T
   5   -127.9192389 -0.491085E-09  0.622E-05    9.99     185.7  T
     SCC iter.                  ...        0 min,  0.021 sec
     gradient                   ...        0 min,  0.019 sec
 * total energy  :  -127.1654732 Eh     change       -0.3267627E-03 Eh
   gradient norm :     0.0076281 Eh/α   predicted    -0.2022749E-03 ( -38.10%)
   displ. norm   :     0.6381970 α      lambda       -0.8321001E-03
   maximum displ.:     0.2334949 α      in ANC's #13, #9, #7, ...

........................................................................
.............................. CYCLE   48 ..............................
........................................................................
   1   -127.9184946 -0.127918E+03  0.684E-02    9.99       0.0  T
   2   -127.9184995 -0.486257E-05  0.420E-02    9.99       1.0  T
   3   -127.9185015 -0.202782E-05  0.355E-03    9.99       3.3  T
   4   -127.9185016 -0.116826E-06  0.108E-03    9.99      10.7  T
   5   -127.9185016 -0.241504E-08  0.131E-04    9.99      88.2  T
   6   -127.9185016 -0.655263E-10  0.591E-05    9.99     195.5  T
     SCC iter.                  ...        0 min,  0.024 sec
     gradient                   ...        0 min,  0.019 sec
 * total energy  :  -127.1660707 Eh     change       -0.5975025E-03 Eh
   gradient norm :     0.0132398 Eh/α   predicted    -0.5855072E-03 (  -2.01%)
   displ. norm   :     0.4136703 α      lambda       -0.5597961E-03
   maximum displ.:     0.1570972 α      in ANC's #13, #6, #18, ...

........................................................................
.............................. CYCLE   49 ..............................
........................................................................
   1   -127.9231789 -0.127923E+03  0.340E-02   10.00       0.0  T
   2   -127.9231807 -0.185773E-05  0.206E-02   10.00       1.0  T
   3   -127.9231814 -0.625425E-06  0.248E-03   10.00       4.7  T
   4   -127.9231814 -0.530465E-07  0.664E-04   10.00      17.4  T
   5   -127.9231814 -0.726246E-09  0.764E-05   10.00     151.2  T
     SCC iter.                  ...        0 min,  0.021 sec
     gradient                   ...        0 min,  0.019 sec
 * total energy  :  -127.1663296 Eh     change       -0.2588377E-03 Eh
   gradient norm :     0.0143089 Eh/α   predicted    -0.3278033E-03 (  26.64%)
   displ. norm   :     0.4359541 α      lambda       -0.5463900E-03
   maximum displ.:     0.1700922 α      in ANC's #13, #6, #9, ...

........................................................................
.............................. CYCLE   50 ..............................
........................................................................
   1   -127.9205035 -0.127921E+03  0.456E-02    9.98       0.0  T
   2   -127.9205057 -0.222786E-05  0.279E-02    9.98       1.0  T
   3   -127.9205067 -0.100157E-05  0.250E-03    9.98       4.6  T
   4   -127.9205067 -0.478307E-07  0.817E-04    9.98      14.1  T
   5   -127.9205067 -0.135539E-08  0.764E-05    9.98     151.2  T
     SCC iter.                  ...        0 min,  0.021 sec
     gradient                   ...        0 min,  0.019 sec
 * total energy  :  -127.1665169 Eh     change       -0.1873282E-03 Eh
   gradient norm :     0.0141901 Eh/α   predicted    -0.3251176E-03 (  73.56%)
   displ. norm   :     0.1389517 α      lambda       -0.3641836E-03
   maximum displ.:     0.0566449 α      in ANC's #9, #2, #10, ...

........................................................................
.............................. CYCLE   51 ..............................
........................................................................
   1   -127.9227393 -0.127923E+03  0.197E-02    9.99       0.0  T
   2   -127.9227404 -0.112092E-05  0.118E-02    9.99       1.0  T
   3   -127.9227407 -0.257961E-06  0.196E-03    9.99       5.9  T
   4   -127.9227407 -0.345643E-07  0.464E-04    9.99      24.9  T
   5   -127.9227407 -0.597680E-09  0.639E-05    9.99     180.7  T
     SCC iter.                  ...        0 min,  0.021 sec
     gradient                   ...        0 min,  0.019 sec
 * total energy  :  -127.1667099 Eh     change       -0.1930472E-03 Eh
   gradient norm :     0.0052529 Eh/α   predicted    -0.1856088E-03 (  -3.85%)
   displ. norm   :     0.2451219 α      lambda       -0.2886242E-03
   maximum displ.:     0.0755929 α      in ANC's #13, #3, #18, ...

........................................................................
.............................. CYCLE   52 ..............................
........................................................................
   1   -127.9203373 -0.127920E+03  0.327E-02    9.98       0.0  T
   2   -127.9203396 -0.232587E-05  0.197E-02    9.98       1.0  T
   3   -127.9203404 -0.747173E-06  0.282E-03    9.98       4.1  T
   4   -127.9203405 -0.705584E-07  0.757E-04    9.98      15.3  T
   5   -127.9203405 -0.129046E-08  0.868E-05    9.98     133.0  T
     SCC iter.                  ...        0 min,  0.021 sec
     gradient                   ...        0 min,  0.019 sec
 * total energy  :  -127.1667319 Eh     change       -0.2192858E-04 Eh
   gradient norm :     0.0159227 Eh/α   predicted    -0.1529833E-03 ( 597.64%)
   displ. norm   :     0.1182404 α      lambda       -0.3229416E-03
   maximum displ.:     0.0380313 α      in ANC's #3, #45, #20, ...

........................................................................
.............................. CYCLE   53 ..............................
........................................................................
   1   -127.9226312 -0.127923E+03  0.200E-02    9.99       0.0  T
   2   -127.9226323 -0.105960E-05  0.119E-02    9.99       1.0  T
   3   -127.9226326 -0.365229E-06  0.200E-03    9.99       5.8  T
   4   -127.9226327 -0.332681E-07  0.579E-04    9.99      19.9  T
   5   -127.9226327 -0.104880E-08  0.652E-05    9.99     177.1  T
     SCC iter.                  ...        0 min,  0.021 sec
     gradient                   ...        0 min,  0.019 sec
 * total energy  :  -127.1669080 Eh     change       -0.1761144E-03 Eh
   gradient norm :     0.0044133 Eh/α   predicted    -0.1637298E-03 (  -7.03%)
   displ. norm   :     0.1623072 α      lambda       -0.1133544E-03
   maximum displ.:     0.0683954 α      in ANC's #3, #13, #8, ...

........................................................................
.............................. CYCLE   54 ..............................
........................................................................
   1   -127.9220252 -0.127922E+03  0.164E-02    9.98       0.0  T
   2   -127.9220256 -0.446280E-06  0.100E-02    9.98       1.2  T
   3   -127.9220258 -0.158365E-06  0.114E-03    9.98      10.1  T
   4   -127.9220258 -0.135655E-07  0.344E-04    9.98      33.5  T
   5   -127.9220258 -0.333671E-09  0.397E-05    9.98     290.5  T
     SCC iter.                  ...        0 min,  0.021 sec
     gradient                   ...        0 min,  0.019 sec
 * total energy  :  -127.1669744 Eh     change       -0.6644311E-04 Eh
   gradient norm :     0.0037037 Eh/α   predicted    -0.5817663E-04 ( -12.44%)
   displ. norm   :     0.2048260 α      lambda       -0.1058658E-03
   maximum displ.:     0.0945059 α      in ANC's #3, #8, #2, ...

........................................................................
.............................. CYCLE   55 ..............................
........................................................................
   1   -127.9220456 -0.127922E+03  0.182E-02    9.98       0.0  T
   2   -127.9220462 -0.685617E-06  0.111E-02    9.98       1.0  T
   3   -127.9220465 -0.230060E-06  0.140E-03    9.98       8.2  T
   4   -127.9220465 -0.217186E-07  0.391E-04    9.98      29.5  T
   5   -127.9220465 -0.401855E-09  0.489E-05    9.98     236.0  T
     SCC iter.                  ...        0 min,  0.021 sec
     gradient                   ...        0 min,  0.019 sec
 * total energy  :  -127.1670517 Eh     change       -0.7725380E-04 Eh
   gradient norm :     0.0038233 Eh/α   predicted    -0.5515829E-04 ( -28.60%)
   displ. norm   :     0.2557514 α      lambda       -0.1251142E-03
   maximum displ.:     0.1282855 α      in ANC's #3, #2, #8, ...

........................................................................
.............................. CYCLE   56 ..............................
........................................................................
   1   -127.9217143 -0.127922E+03  0.199E-02    9.97       0.0  T
   2   -127.9217155 -0.115253E-05  0.120E-02    9.97       1.0  T
   3   -127.9217158 -0.263362E-06  0.194E-03    9.97       5.9  T
   4   -127.9217158 -0.377117E-07  0.423E-04    9.97      27.3  T
   5   -127.9217158 -0.501558E-09  0.567E-05    9.97     203.5  T
     SCC iter.                  ...        0 min,  0.021 sec
     gradient                   ...        0 min,  0.019 sec
 * total energy  :  -127.1671303 Eh     change       -0.7863647E-04 Eh
   gradient norm :     0.0031276 Eh/α   predicted    -0.6665155E-04 ( -15.24%)
   displ. norm   :     0.1939644 α      lambda       -0.8231413E-04
   maximum displ.:     0.1083921 α      in ANC's #3, #2, #8, ...

........................................................................
.............................. CYCLE   57 ..............................
........................................................................
   1   -127.9218692 -0.127922E+03  0.156E-02    9.97       0.0  T
   2   -127.9218695 -0.339368E-06  0.958E-03    9.97       1.2  T
   3   -127.9218697 -0.148876E-06  0.979E-04    9.97      11.8  T
   4   -127.9218697 -0.899044E-08  0.319E-04    9.97      36.2  T
     SCC iter.                  ...        0 min,  0.017 sec
     gradient                   ...        0 min,  0.019 sec
 * total energy  :  -127.1671903 Eh     change       -0.5996584E-04 Eh
   gradient norm :     0.0040193 Eh/α   predicted    -0.4270647E-04 ( -28.78%)
   displ. norm   :     0.2210878 α      lambda       -0.1022005E-03
   maximum displ.:     0.1282513 α      in ANC's #3, #2, #21, ...

........................................................................
.............................. CYCLE   58 ..............................
........................................................................
   1   -127.9222881 -0.127922E+03  0.171E-02    9.97       0.0  T
   2   -127.9222885 -0.409842E-06  0.105E-02    9.97       1.1  T
   3   -127.9222886 -0.133905E-06  0.106E-03    9.97      10.9  T
   4   -127.9222886 -0.133526E-07  0.308E-04    9.97      37.5  T
   5   -127.9222886 -0.291067E-09  0.417E-05    9.97     276.6  T
     SCC iter.                  ...        0 min,  0.021 sec
     gradient                   ...        0 min,  0.019 sec
 * total energy  :  -127.1672668 Eh     change       -0.7648297E-04 Eh
   gradient norm :     0.0033559 Eh/α   predicted    -0.5360112E-04 ( -29.92%)
   displ. norm   :     0.2573902 α      lambda       -0.9826865E-04
   maximum displ.:     0.1619605 α      in ANC's #3, #2, #8, ...

........................................................................
.............................. CYCLE   59 ..............................
........................................................................
   1   -127.9220987 -0.127922E+03  0.205E-02    9.97       0.0  T
   2   -127.9220993 -0.551782E-06  0.125E-02    9.97       1.0  T
   3   -127.9220994 -0.188566E-06  0.122E-03    9.97       9.5  T
   4   -127.9220995 -0.169848E-07  0.361E-04    9.97      32.0  T
   5   -127.9220995 -0.367734E-09  0.486E-05    9.97     237.8  T
     SCC iter.                  ...        0 min,  0.021 sec
     gradient                   ...        0 min,  0.019 sec
 * total energy  :  -127.1673357 Eh     change       -0.6892695E-04 Eh
   gradient norm :     0.0035427 Eh/α   predicted    -0.5239243E-04 ( -23.99%)
   displ. norm   :     0.2380141 α      lambda       -0.8034478E-04
   maximum displ.:     0.1544031 α      in ANC's #3, #2, #8, ...

........................................................................
.............................. CYCLE   60 ..............................
........................................................................
   1   -127.9230066 -0.127923E+03  0.174E-02    9.97       0.0  T
   2   -127.9230070 -0.473889E-06  0.105E-02    9.97       1.1  T
   3   -127.9230072 -0.119154E-06  0.120E-03    9.97       9.6  T
   4   -127.9230072 -0.164646E-07  0.288E-04    9.97      40.1  T
   5   -127.9230072 -0.230656E-09  0.391E-05    9.97     295.4  T
     SCC iter.                  ...        0 min,  0.021 sec
     gradient                   ...        0 min,  0.019 sec
 * total energy  :  -127.1673953 Eh     change       -0.5958120E-04 Eh
   gradient norm :     0.0030230 Eh/α   predicted    -0.4245137E-04 ( -28.75%)
   displ. norm   :     0.2669824 α      lambda       -0.8925483E-04
   maximum displ.:     0.1767348 α      in ANC's #3, #2, #12, ...

........................................................................
.............................. CYCLE   61 ..............................
........................................................................
   1   -127.9233701 -0.127923E+03  0.192E-02    9.98       0.0  T
   2   -127.9233707 -0.662946E-06  0.116E-02    9.98       1.0  T
   3   -127.9233709 -0.179113E-06  0.143E-03    9.98       8.1  T
   4   -127.9233709 -0.222002E-07  0.358E-04    9.98      32.3  T
   5   -127.9233709 -0.356593E-09  0.492E-05    9.98     234.6  T
     SCC iter.                  ...        0 min,  0.021 sec
     gradient                   ...        0 min,  0.019 sec
 * total energy  :  -127.1674665 Eh     change       -0.7125023E-04 Eh
   gradient norm :     0.0028045 Eh/α   predicted    -0.4780985E-04 ( -32.90%)
   displ. norm   :     0.3347168 α      lambda       -0.1165425E-03
   maximum displ.:     0.2180159 α      in ANC's #3, #2, #12, ...

........................................................................
.............................. CYCLE   62 ..............................
........................................................................
   1   -127.9242456 -0.127924E+03  0.231E-02    9.98       0.0  T
   2   -127.9242469 -0.124112E-05  0.138E-02    9.98       1.0  T
   3   -127.9242471 -0.245352E-06  0.201E-03    9.98       5.7  T
   4   -127.9242471 -0.413756E-07  0.397E-04    9.98      29.1  T
   5   -127.9242471 -0.457135E-09  0.635E-05    9.98     181.9  T
     SCC iter.                  ...        0 min,  0.021 sec
     gradient                   ...        0 min,  0.019 sec
 * total energy  :  -127.1675544 Eh     change       -0.8788029E-04 Eh
   gradient norm :     0.0029982 Eh/α   predicted    -0.6480096E-04 ( -26.26%)
   displ. norm   :     0.3725396 α      lambda       -0.1130229E-03
   maximum displ.:     0.2352348 α      in ANC's #3, #2, #12, ...

........................................................................
.............................. CYCLE   63 ..............................
........................................................................
   1   -127.9237918 -0.127924E+03  0.260E-02    9.98       0.0  T
   2   -127.9237934 -0.152607E-05  0.157E-02    9.98       1.0  T
   3   -127.9237937 -0.359428E-06  0.223E-03    9.98       5.2  T
   4   -127.9237938 -0.518889E-07  0.515E-04    9.98      22.4  T
   5   -127.9237938 -0.797655E-09  0.741E-05    9.98     155.7  T
     SCC iter.                  ...        0 min,  0.021 sec
     gradient                   ...        0 min,  0.019 sec
 * total energy  :  -127.1676351 Eh     change       -0.8071857E-04 Eh
   gradient norm :     0.0043123 Eh/α   predicted    -0.6435629E-04 ( -20.27%)
   displ. norm   :     0.3701441 α      lambda       -0.1162398E-03
   maximum displ.:     0.2146512 α      in ANC's #3, #2, #1, ...

........................................................................
.............................. CYCLE   64 ..............................
........................................................................
   1   -127.9242137 -0.127924E+03  0.236E-02    9.98       0.0  T
   2   -127.9242147 -0.103298E-05  0.143E-02    9.98       1.0  T
   3   -127.9242150 -0.262107E-06  0.181E-03    9.98       6.4  T
   4   -127.9242150 -0.351663E-07  0.435E-04    9.98      26.6  T
   5   -127.9242150 -0.570836E-09  0.655E-05    9.98     176.3  T
     SCC iter.                  ...        0 min,  0.021 sec
     gradient                   ...        0 min,  0.019 sec
 * total energy  :  -127.1677072 Eh     change       -0.7208115E-04 Eh
   gradient norm :     0.0057525 Eh/α   predicted    -0.6608821E-04 (  -8.31%)
   displ. norm   :     0.3834419 α      lambda       -0.1219352E-03
   maximum displ.:     0.2275873 α      in ANC's #3, #2, #12, ...

........................................................................
.............................. CYCLE   65 ..............................
........................................................................
   1   -127.9218775 -0.127922E+03  0.289E-02    9.96       0.0  T
   2   -127.9218786 -0.114603E-05  0.175E-02    9.96       1.0  T
   3   -127.9218790 -0.324669E-06  0.183E-03    9.96       6.3  T
   4   -127.9218790 -0.390391E-07  0.506E-04    9.96      22.8  T
   5   -127.9218790 -0.809493E-09  0.695E-05    9.96     166.0  T
     SCC iter.                  ...        0 min,  0.021 sec
     gradient                   ...        0 min,  0.019 sec
 * total energy  :  -127.1677709 Eh     change       -0.6372278E-04 Eh
   gradient norm :     0.0045386 Eh/α   predicted    -0.6993583E-04 (   9.75%)
   displ. norm   :     0.1997912 α      lambda       -0.1079884E-03
   maximum displ.:     0.0705037 α      in ANC's #3, #1, #5, ...

........................................................................
.............................. CYCLE   66 ..............................
........................................................................
   1   -127.9225999 -0.127923E+03  0.166E-02    9.97       0.0  T
   2   -127.9226005 -0.639247E-06  0.999E-03    9.97       1.2  T
   3   -127.9226007 -0.154356E-06  0.142E-03    9.96       8.1  T
   4   -127.9226007 -0.218542E-07  0.353E-04    9.97      32.8  T
   5   -127.9226007 -0.428074E-09  0.499E-05    9.97     231.2  T
     SCC iter.                  ...        0 min,  0.020 sec
     gradient                   ...        0 min,  0.019 sec
 * total energy  :  -127.1678350 Eh     change       -0.6403655E-04 Eh
   gradient norm :     0.0034792 Eh/α   predicted    -0.5615007E-04 ( -12.32%)
   displ. norm   :     0.2074831 α      lambda       -0.9080022E-04
   maximum displ.:     0.0841042 α      in ANC's #3, #5, #2, ...
 * RMSD in coord.:     0.5004936 α      energy gain  -0.3869680E-02 Eh

generating ANC from model Hessian ...
Using Lindh-Hessian (1995)
 Shifting diagonal of input Hessian by   1.052454022500251E-002
 Lowest  eigenvalues of input Hessian
    0.010000    0.010325    0.010469    0.000000    0.000000    0.000000
    0.000000    0.000000    0.000000    0.010540    0.010601    0.010650
    0.010679    0.010721    0.010774    0.010803    0.010871    0.010917
 Highest eigenvalues
    1.405025    1.406597    1.409859    1.412523    1.421431    1.423234
 

........................................................................
.............................. CYCLE   67 ..............................
........................................................................
   1   -127.9226820 -0.127923E+03  0.169E-02    9.96       0.0  T
   2   -127.9226825 -0.526231E-06  0.102E-02    9.96       1.1  T
   3   -127.9226827 -0.153132E-06  0.127E-03    9.95       9.1  T
   4   -127.9226827 -0.181246E-07  0.350E-04    9.96      32.9  T
   5   -127.9226827 -0.450271E-09  0.477E-05    9.96     242.2  T
     SCC iter.                  ...        0 min,  0.021 sec
     gradient                   ...        0 min,  0.019 sec
 * total energy  :  -127.1678926 Eh     change       -0.5761214E-04 Eh
   gradient norm :     0.0042488 Eh/α   predicted     0.0000000E+00 (-100.00%)
   displ. norm   :     0.0665124 α      lambda       -0.8737110E-04
   maximum displ.:     0.0278226 α      in ANC's #47, #2, #55, ...

........................................................................
.............................. CYCLE   68 ..............................
........................................................................
   1   -127.9227402 -0.127923E+03  0.120E-02    9.96       0.0  T
   2   -127.9227404 -0.202544E-06  0.732E-03    9.96       1.6  T
   3   -127.9227405 -0.752988E-07  0.734E-04    9.96      15.7  T
   4   -127.9227405 -0.579540E-08  0.214E-04    9.96      53.9  T
     SCC iter.                  ...        0 min,  0.017 sec
     gradient                   ...        0 min,  0.019 sec
 * total energy  :  -127.1679637 Eh     change       -0.7108586E-04 Eh
   gradient norm :     0.0014586 Eh/α   predicted    -0.4416002E-04 ( -37.88%)
   displ. norm   :     0.3008381 α      lambda       -0.1681853E-03
   maximum displ.:     0.1247815 α      in ANC's #47, #2, #55, ...

........................................................................
[...]
    61   8 o       63   1 h                                       0.9957923
    64   8 o       65   1 h                                       0.9800789
    64   8 o       66   1 h                                       0.9846477
    67   8 o       68   1 h                                       0.9656040
    67   8 o       69   1 h                                       0.9637783
    70   8 o       71   1 h                                       0.9768382
    70   8 o       72   1 h                                       0.9665503
    73   8 o       74   1 h                                       0.9712134
    73   8 o       75   1 h                                       0.9730931

 * 1 distinct bonds (by element types)

   Z      Z             #   av. dist./Å        max./Å        min./Å
   1 H    8 O          46     0.9726152     0.9994740     0.9566970

           -------------------------------------------------
          |               Frequency Printout                |
           -------------------------------------------------
 projected vibrational frequencies (cm⁻¹)
eigval :       -0.00    -0.00     0.00     0.00     0.00     0.00
eigval :       25.20    32.08    32.35    33.82    38.12    39.33
eigval :       43.69    48.71    49.41    49.58    51.92    56.93
eigval :       58.11    58.54    60.74    63.23    65.72    69.70
eigval :       72.54    74.54    77.39    80.17    87.23    90.02
eigval :       91.86    94.10    98.67   104.38   121.49   127.40
eigval :      132.38   134.09   139.12   142.55   146.41   148.73
eigval :      156.96   170.33   178.70   183.17   185.70   188.96
eigval :      192.80   199.54   205.08   210.74   213.03   226.50
eigval :      232.73   237.05   242.17   252.04   253.38   256.21
eigval :      260.73   270.31   274.01   277.50   285.07   286.98
eigval :      289.08   294.06   301.65   305.67   321.47   324.56
eigval :      329.14   344.00   351.54   356.25   361.14   371.31
eigval :      376.21   379.93   386.27   391.45   393.42   400.85
eigval :      401.89   414.40   416.92   420.17   431.56   441.56
eigval :      449.53   454.27   458.01   472.00   475.02   481.06
eigval :      490.28   496.34   499.65   503.32   508.75   516.05
eigval :      522.95   535.05   539.50   547.07   548.90   561.09
eigval :      561.26   576.00   579.59   587.66   596.03   598.14
eigval :      608.11   612.90   614.37   623.67   633.54   642.44
eigval :      649.90   653.33   665.28   666.68   679.13   685.60
eigval :      694.86   704.11   708.40   718.93   726.22   731.07
eigval :      755.63   760.88   765.19   768.64   778.72   797.87
eigval :      815.87   842.28   869.29   890.08   896.89   918.86
eigval :      928.13   953.88   958.59   963.33   987.41  1001.34
eigval :     1502.52  1503.18  1505.79  1507.17  1512.86  1514.54
eigval :     1515.21  1520.28  1523.11  1525.77  1527.59  1527.72
eigval :     1534.62  1537.02  1539.61  1541.94  1545.97  1547.32
eigval :     1551.12  1555.85  1559.24  1562.14  1566.12  1574.71
eigval :     1585.19  2745.63  2759.26  2835.02  2881.70  2899.97
eigval :     2928.38  3040.34  3049.87  3087.39  3132.16  3154.76
eigval :     3174.81  3200.93  3207.47  3245.48  3258.51  3275.98
eigval :     3298.01  3307.50  3309.49  3319.82  3338.89  3362.33
eigval :     3364.65  3366.36  3397.99  3399.60  3409.48  3426.33
eigval :     3433.42  3449.47  3461.55  3475.35  3491.01  3512.25
eigval :     3513.82  3521.69  3528.08  3530.08  3537.26  3556.16
eigval :     3564.88  3577.42  3671.87  3672.44  3672.59  3679.94
eigval :     3682.22  3686.21  3688.12
 reduced masses (amu)
   1: 14.30   2: 14.32   3: 14.30   4: 14.34   5: 14.32   6: 14.27   7: 14.26   8: 14.42
   9: 14.60  10: 14.29  11: 14.37  12: 14.43  13: 14.35  14: 14.37  15: 14.38  16: 14.42
  17: 14.36  18: 14.39  19: 14.31  20: 14.38  21: 14.37  22: 14.38  23: 14.43  24: 14.56
  25: 14.52  26: 14.45  27: 14.36  28: 14.30  29: 14.42  30: 14.65  31: 14.62  32: 14.24
  33: 14.41  34: 14.32  35: 14.18  36: 13.88  37: 13.70  38: 14.03  39: 13.60  40: 13.36
  41: 13.04  42: 10.55  43: 13.13  44: 13.98  45: 13.65  46: 12.96  47: 11.57  48: 11.87
  49: 10.48  50: 10.65  51: 13.45  52:  9.67  53: 13.17  54: 13.38  55: 13.22  56: 13.47
  57: 12.19  58: 13.55  59: 12.82  60: 13.45  61: 13.40  62:  9.27  63: 12.32  64: 13.28
  65:  9.05  66:  9.15  67:  9.48  68: 10.41  69:  7.12  70: 12.59  71: 12.55  72: 11.19
  73: 12.97  74: 12.58  75:  3.57  76:  4.62  77:  6.91  78:  9.73  79: 11.58  80: 10.41
  81: 12.96  82: 11.24  83:  4.61  84: 11.91  85:  4.34  86: 11.37  87:  5.39  88:  2.78
  89:  2.02  90:  2.44  91:  1.89  92:  2.07  93:  2.12  94:  1.92  95:  1.76  96:  1.76
  97:  1.73  98:  1.93  99:  2.09 100:  1.77 101:  1.87 102:  1.85 103:  1.88 104:  1.87
 105:  2.05 106:  1.81 107:  1.92 108:  1.80 109:  1.81 110:  1.82 111:  1.85 112:  1.81
 113:  1.83 114:  1.81 115:  2.02 116:  1.74 117:  2.05 118:  1.84 119:  1.67 120:  1.95
 121:  1.53 122:  1.88 123:  1.69 124:  1.86 125:  2.07 126:  1.85 127:  1.74 128:  2.00
 129:  1.69 130:  2.47 131:  1.78 132:  1.76 133:  1.84 134:  2.03 135:  2.00 136:  1.98
 137:  2.19 138:  2.25 139:  2.13 140:  2.16 141:  1.98 142:  1.95 143:  1.90 144:  1.83
 145:  2.02 146:  1.79 147:  1.86 148:  1.97 149:  1.88 150:  1.60 151:  1.99 152:  1.96
 153:  2.00 154:  2.05 155:  2.03 156:  2.03 157:  2.03 158:  2.03 159:  2.01 160:  2.01
 161:  2.04 162:  2.03 163:  2.01 164:  2.01 165:  2.09 166:  2.09 167:  2.05 168:  2.08
 169:  2.06 170:  2.04 171:  2.03 172:  1.99 173:  2.05 174:  2.03 175:  2.09 176:  1.90
 177:  1.89 178:  1.89 179:  1.88 180:  1.89 181:  1.89 182:  2.05 183:  2.05 184:  1.93
 185:  1.95 186:  1.94 187:  1.96 188:  2.01 189:  1.95 190:  1.75 191:  1.93 192:  2.08
 193:  2.06 194:  1.92 195:  1.90 196:  1.70 197:  1.67 198:  1.89 199:  2.02 200:  1.88
 201:  1.64 202:  1.65 203:  1.63 204:  2.11 205:  1.93 206:  1.65 207:  1.94 208:  1.61
 209:  1.77 210:  1.78 211:  1.93 212:  1.76 213:  1.81 214:  1.77 215:  1.77 216:  1.76
 217:  1.72 218:  1.81 219:  1.84 220:  1.84 221:  1.84 222:  1.84 223:  1.84 224:  1.84
 225:  1.84
 IR intensities (km·mol⁻¹)
   1:  0.01   2:  0.01   3:  0.18   4:  0.06   5:  0.13   6:  0.20   7:  0.21   8:  2.96
   9:  0.55  10:  0.30  11:  0.47  12:  0.75  13:  0.59  14:  0.84  15:  0.56  16:  0.67
  17:  2.28  18:  0.39  19:  1.46  20:  1.32  21:  1.54  22:  2.92  23:  3.45  24:  0.29
  25:  0.50  26:  1.45  27:  0.29  28:  2.54  29:  1.89  30:  2.82  31:  1.32  32:  1.89
  33:  2.18  34:  0.07  35:  3.66  36:  4.33  37:  0.76  38:  1.02  39:  4.95  40: 13.64
  41: 16.87  42:  4.37  43:  2.58  44:  1.88  45:  1.46  46:  9.80  47:  1.81  48: 14.25
  49: 11.64  50:  6.31  51:  8.04  52: 28.32  53: 27.72  54: 15.46  55:  7.05  56:  6.05
  57: 14.27  58:  3.36  59: 14.06  60: 16.97  61: 10.01  62: 14.58  63: 56.93  64: 47.76
  65: 96.98  66: 74.34  67: 61.58  68: 73.16  69: 38.50  70:  7.46  71: 11.55  72: 30.92
  73: 21.72  74: 10.47  75: 20.02  76: 60.71  77: 62.53  78: 59.72  79: 18.37  80: 11.84
  81: 19.92  82: 77.34  83: 30.16  84: 19.97  85: 11.33  86:  3.43  87: 39.09  88: 34.39
  89: 51.04  90: 17.34  91: 21.17  92: 50.95  93: 60.18  94:147.92  95: 44.85  96:110.46
  97: 36.78  98: 41.23  99: 27.69 100: 79.43 101: 43.19 102: 16.10 103: 63.27 104:  5.04
 105: 52.63 106: 14.16 107: 54.82 108:193.33 109: 74.75 110: 31.43 111:304.14 112:173.23
 113: 10.18 114: 61.76 115:375.56 116: 90.52 117: 26.13 118:188.90 119: 68.16 120: 79.81
 121: 60.74 122: 54.77 123: 45.19 124:218.93 125: 23.46 126:189.67 127: 78.01 128:373.84
 129:245.25 130: 55.83 131:103.57 132:117.70 133:427.17 134:346.53 135:375.46 136:566.31
 137:372.56 138:360.74 139:608.79 140:387.08 141:142.80 142:151.63 143: 64.86 144:464.14
 145:398.37 146:231.66 147:361.70 148:322.48 149: 59.59 150:436.60 151:181.39 152: 69.87
 153:124.09 154:127.47 155: 95.82 156: 59.14 157:355.66 158: 61.51 159: 92.22 160: 14.38
 161: 73.18 162:163.77 163:345.53 164: 57.80 165:241.47 166:391.94 167: 97.47 168:454.40
 169:****** 170:186.87 171: 20.87 172:100.52 173:112.54 174:147.67 175: 12.97 176:******
 177:974.28 178:701.64 179:****** 180:****** 181:****** 182:341.79 183:****** 184:865.04
 185:****** 186:966.51 187:687.51 188:****** 189:243.35 190:302.95 191:****** 192:161.37
 193:188.08 194:727.61 195:****** 196:212.67 197:413.52 198:287.29 199:****** 200:522.16
 201:109.49 202:588.52 203:218.43 204:568.36 205:323.94 206:192.42 207:228.31 208:200.21
 209:192.67 210:240.72 211:203.63 212:122.81 213: 13.53 214:409.61 215:171.19 216: 84.92
 217:131.37 218:134.54 219: 15.03 220: 20.16 221:  2.13 222: 10.07 223:  9.67 224: 10.39
 225: 12.25
 Raman intensities (amu)
   1:  0.00   2:  0.00   3:  0.00   4:  0.00   5:  0.00   6:  0.00   7:  0.00   8:  0.00
   9:  0.00  10:  0.00  11:  0.00  12:  0.00  13:  0.00  14:  0.00  15:  0.00  16:  0.00
  17:  0.00  18:  0.00  19:  0.00  20:  0.00  21:  0.00  22:  0.00  23:  0.00  24:  0.00
  25:  0.00  26:  0.00  27:  0.00  28:  0.00  29:  0.00  30:  0.00  31:  0.00  32:  0.00
  33:  0.00  34:  0.00  35:  0.00  36:  0.00  37:  0.00  38:  0.00  39:  0.00  40:  0.00
  41:  0.00  42:  0.00  43:  0.00  44:  0.00  45:  0.00  46:  0.00  47:  0.00  48:  0.00
  49:  0.00  50:  0.00  51:  0.00  52:  0.00  53:  0.00  54:  0.00  55:  0.00  56:  0.00
  57:  0.00  58:  0.00  59:  0.00  60:  0.00  61:  0.00  62:  0.00  63:  0.00  64:  0.00
  65:  0.00  66:  0.00  67:  0.00  68:  0.00  69:  0.00  70:  0.00  71:  0.00  72:  0.00
  73:  0.00  74:  0.00  75:  0.00  76:  0.00  77:  0.00  78:  0.00  79:  0.00  80:  0.00
  81:  0.00  82:  0.00  83:  0.00  84:  0.00  85:  0.00  86:  0.00  87:  0.00  88:  0.00
  89:  0.00  90:  0.00  91:  0.00  92:  0.00  93:  0.00  94:  0.00  95:  0.00  96:  0.00
  97:  0.00  98:  0.00  99:  0.00 100:  0.00 101:  0.00 102:  0.00 103:  0.00 104:  0.00
 105:  0.00 106:  0.00 107:  0.00 108:  0.00 109:  0.00 110:  0.00 111:  0.00 112:  0.00
 113:  0.00 114:  0.00 115:  0.00 116:  0.00 117:  0.00 118:  0.00 119:  0.00 120:  0.00
 121:  0.00 122:  0.00 123:  0.00 124:  0.00 125:  0.00 126:  0.00 127:  0.00 128:  0.00
 129:  0.00 130:  0.00 131:  0.00 132:  0.00 133:  0.00 134:  0.00 135:  0.00 136:  0.00
 137:  0.00 138:  0.00 139:  0.00 140:  0.00 141:  0.00 142:  0.00 143:  0.00 144:  0.00
 145:  0.00 146:  0.00 147:  0.00 148:  0.00 149:  0.00 150:  0.00 151:  0.00 152:  0.00
 153:  0.00 154:  0.00 155:  0.00 156:  0.00 157:  0.00 158:  0.00 159:  0.00 160:  0.00
 161:  0.00 162:  0.00 163:  0.00 164:  0.00 165:  0.00 166:  0.00 167:  0.00 168:  0.00
 169:  0.00 170:  0.00 171:  0.00 172:  0.00 173:  0.00 174:  0.00 175:  0.00 176:  0.00
 177:  0.00 178:  0.00 179:  0.00 180:  0.00 181:  0.00 182:  0.00 183:  0.00 184:  0.00
 185:  0.00 186:  0.00 187:  0.00 188:  0.00 189:  0.00 190:  0.00 191:  0.00 192:  0.00
 193:  0.00 194:  0.00 195:  0.00 196:  0.00 197:  0.00 198:  0.00 199:  0.00 200:  0.00
 201:  0.00 202:  0.00 203:  0.00 204:  0.00 205:  0.00 206:  0.00 207:  0.00 208:  0.00
 209:  0.00 210:  0.00 211:  0.00 212:  0.00 213:  0.00 214:  0.00 215:  0.00 216:  0.00
 217:  0.00 218:  0.00 219:  0.00 220:  0.00 221:  0.00 222:  0.00 223:  0.00 224:  0.00
 225:  0.00
 output can be read by thermo (or use thermo option).
 writing <g98.out> molden fake output.
 recommended (thermochemical) frequency scaling factor: 1.0
           -------------------------------------------------
          |             Thermodynamic Functions             |
           -------------------------------------------------

Molecule has no symmetry elements
It seems to be the C1 point group
c1  symmetry found (for desy threshold:  0.10E+00) used in thermo

          ...................................................
          :                      SETUP                      :
          :.................................................:
          :  # frequencies                         219      :
          :  # imaginary freq.                       0      :
          :  linear?                             false      :
          :  only rotor calc.                    false      :
          :  symmetry                               c1      :
          :  rotational number                       1      :
          :  scaling factor                  1.0000000      :
          :  rotor cutoff                   50.0000000 cm⁻¹ :
          :  imag. cutoff                  -20.0000000 cm⁻¹ :
          :.................................................:

    mode    ω/cm⁻¹     T·S(HO)/kcal·mol⁻¹    T·S(FR)/kcal·mol⁻¹   T·S(vib)
   ------------------------------------------------------------------------
       1     25.20    -1.84129 (  6.06%)    -1.25954 ( 93.94%)    -1.29478
       2     32.08    -1.69834 ( 14.50%)    -1.18796 ( 85.50%)    -1.26194
       3     32.35    -1.69346 ( 14.91%)    -1.18551 ( 85.09%)    -1.26124
       4     33.82    -1.66717 ( 17.31%)    -1.17234 ( 82.69%)    -1.25799
       5     38.12    -1.59649 ( 25.25%)    -1.13691 ( 74.75%)    -1.25294
       6     39.33    -1.57792 ( 27.69%)    -1.12761 ( 72.31%)    -1.25231
       7     43.69    -1.51594 ( 36.82%)    -1.09652 ( 63.18%)    -1.25095
       8     48.71    -1.45176 ( 47.38%)    -1.06430 ( 52.62%)    -1.24788
       9     49.41    -1.44331 ( 48.81%)    -1.06005 ( 51.19%)    -1.24713
      10     49.58    -1.44128 ( 49.16%)    -1.05903 ( 50.84%)    -1.24693
      11     51.92    -1.41404 ( 53.77%)    -1.04534 ( 46.23%)    -1.24359
      12     56.93    -1.35983 ( 62.69%)    -1.01809 ( 37.31%)    -1.23234
      13     58.11    -1.34771 ( 64.60%)    -1.01199 ( 35.40%)    -1.22886
      14     58.54    -1.34337 ( 65.27%)    -1.00980 ( 34.73%)    -1.22753
      15     60.74    -1.32174 ( 68.52%)    -0.99891 ( 31.48%)    -1.22013
      16     63.23    -1.29812 ( 71.88%)    -0.98701 ( 28.12%)    -1.21065
      17     65.72    -1.27535 ( 74.91%)    -0.97554 ( 25.09%)    -1.20012
      18     69.70    -1.24084 ( 79.06%)    -0.95813 ( 20.94%)    -1.18165
      19     72.54    -1.21739 ( 81.59%)    -0.94629 ( 18.41%)    -1.16747
      20     74.54    -1.20145 ( 83.16%)    -0.93824 ( 16.84%)    -1.15714
      21     77.39    -1.17952 ( 85.16%)    -0.92715 ( 14.84%)    -1.14206
      22     80.17    -1.15881 ( 86.86%)    -0.91667 ( 13.14%)    -1.12699
      23     87.23    -1.10949 ( 90.26%)    -0.89167 (  9.74%)    -1.08826
      24     90.02    -1.09112 ( 91.31%)    -0.88235 (  8.69%)    -1.07298
      25     91.86    -1.07931 ( 91.93%)    -0.87634 (  8.07%)    -1.06293
      26     94.10    -1.06527 ( 92.62%)    -0.86921 (  7.38%)    -1.05080
      27     98.67    -1.03771 ( 93.81%)    -0.85518 (  6.19%)    -1.02641
      28    104.38    -1.00502 ( 95.00%)    -0.83850 (  5.00%)    -0.99669
      29    121.49    -0.91726 ( 97.21%)    -0.79353 (  2.79%)    -0.91381
      30    127.40    -0.88997 ( 97.68%)    -0.77947 (  2.32%)    -0.88741
      31    132.38    -0.86798 ( 98.01%)    -0.76811 (  1.99%)    -0.86599
      32    134.09    -0.86063 ( 98.10%)    -0.76431 (  1.90%)    -0.85881
      33    139.12    -0.83955 ( 98.36%)    -0.75338 (  1.64%)    -0.83814
      34    142.55    -0.82567 ( 98.51%)    -0.74617 (  1.49%)    -0.82449
      35    146.41    -0.81047 ( 98.66%)    -0.73826 (  1.34%)    -0.80950
      36    148.73    -0.80157 ( 98.74%)    -0.73362 (  1.26%)    -0.80071
      37    156.96    -0.77104 ( 98.98%)    -0.71765 (  1.02%)    -0.77050
      38    170.33    -0.72507 ( 99.26%)    -0.69344 (  0.74%)    -0.72483
      39    178.70    -0.69825 ( 99.39%)    -0.67922 (  0.61%)    -0.69813
      40    183.17    -0.68451 ( 99.45%)    -0.67191 (  0.55%)    -0.68444
      41    185.70    -0.67691 ( 99.48%)    -0.66785 (  0.52%)    -0.67686
      42    188.96    -0.66727 ( 99.51%)    -0.66269 (  0.49%)    -0.66725
      43    192.80    -0.65614 ( 99.55%)    -0.65672 (  0.45%)    -0.65614
      44    199.54    -0.63725 ( 99.61%)    -0.64655 (  0.39%)    -0.63729
      45    205.08    -0.62225 ( 99.65%)    -0.63844 (  0.35%)    -0.62231
      46    210.74    -0.60742 ( 99.68%)    -0.63038 (  0.32%)    -0.60749
      47    213.03    -0.60154 ( 99.70%)    -0.62717 (  0.30%)    -0.60162
      48    226.50    -0.56842 ( 99.76%)    -0.60900 (  0.24%)    -0.56851
      49    232.73    -0.55391 ( 99.79%)    -0.60097 (  0.21%)    -0.55401
      50    237.05    -0.54410 ( 99.80%)    -0.59552 (  0.20%)    -0.54421
      51    242.17    -0.53275 ( 99.82%)    -0.58919 (  0.18%)    -0.53285
      52    252.04    -0.51170 ( 99.85%)    -0.57735 (  0.15%)    -0.51180
      53    253.38    -0.50893 ( 99.85%)    -0.57579 (  0.15%)    -0.50903
      54    256.21    -0.50311 ( 99.86%)    -0.57249 (  0.14%)    -0.50321
      55    260.73    -0.49400 ( 99.86%)    -0.56731 (  0.14%)    -0.49410
      56    270.31    -0.47532 ( 99.88%)    -0.55663 (  0.12%)    -0.47542
      57    274.01    -0.46833 ( 99.89%)    -0.55260 (  0.11%)    -0.46842
      58    277.50    -0.46185 ( 99.89%)    -0.54885 (  0.11%)    -0.46194
      59    285.07    -0.44814 ( 99.91%)    -0.54088 (  0.09%)    -0.44823
      60    286.98    -0.44476 ( 99.91%)    -0.53890 (  0.09%)    -0.44484
      61    289.08    -0.44106 ( 99.91%)    -0.53673 (  0.09%)    -0.44115
      62    294.06    -0.43246 ( 99.92%)    -0.53168 (  0.08%)    -0.43255
   ------------------------------------------------------------------------

   temp. (K)  partition function   enthalpy   heat capacity  entropy
                                   cal/mol     cal/K/mol   cal/K/mol   J/K/mol
 298.15  VIB  0.299E+28            36034.993    196.194    231.576
         ROT  0.240E+08              888.752      2.981     36.751
         INT  0.716E+35            36923.745    199.175    268.327
         TR   0.925E+28             1481.254      4.968     44.184
         TOT                       38404.9988   204.1430   312.5106  1307.5445

       T/K    H(0)-H(T)+PV         H(T)/Eh          T*S/Eh         G(T)/Eh
   ------------------------------------------------------------------------
    298.15    0.612023E-01    0.659868E+00    0.148484E+00    0.511384E+00
   ------------------------------------------------------------------------

         :::::::::::::::::::::::::::::::::::::::::::::::::::::
         ::                  THERMODYNAMIC                  ::
         :::::::::::::::::::::::::::::::::::::::::::::::::::::
         :: total free energy        -126.662200851341 Eh   ::
         ::.................................................::
         :: total energy             -127.173584932165 Eh   ::
         :: zero point energy           0.598665704538 Eh   ::
         :: G(RRHO) w/o ZPVE           -0.087281623714 Eh   ::
         :: G(RRHO) contrib.            0.511384080825 Eh   ::
         :::::::::::::::::::::::::::::::::::::::::::::::::::::

optimized geometry written to: xtbopt.coord


           -------------------------------------------------
          | TOTAL ENERGY             -127.173584932165 Eh   |
          | TOTAL ENTHALPY           -126.513716966355 Eh   |
          | TOTAL FREE ENERGY        -126.662200851341 Eh   |
          | GRADIENT NORM               0.000483731169 Eh/α |
          | HOMO-LUMO GAP               9.973227487322 eV   |
           -------------------------------------------------

------------------------------------------------------------------------
 * finished run on 2022/10/12 at 01:33:16.108     
------------------------------------------------------------------------
 total:
 * wall-time:     0 d,  0 h,  0 min, 13.528 sec
 *  cpu-time:     0 d,  0 h,  1 min, 20.541 sec
 * ratio c/w:     5.954 speedup
 SCF:
 * wall-time:     0 d,  0 h,  0 min,  0.068 sec
 *  cpu-time:     0 d,  0 h,  0 min,  0.400 sec
 * ratio c/w:     5.932 speedup
 ANC optimizer:
 * wall-time:     0 d,  0 h,  0 min,  5.119 sec
 *  cpu-time:     0 d,  0 h,  0 min, 30.635 sec
 * ratio c/w:     5.985 speedup
 analytical hessian:
 * wall-time:     0 d,  0 h,  0 min,  8.217 sec
 *  cpu-time:     0 d,  0 h,  0 min, 48.830 sec
 * ratio c/w:     5.943 speedup

