75
 energy: -127.145624915119 gnorm: 0.043557849930 xtb: 6.5.1 (579679a)
o           -1.76252350167831        3.79406521429769       -1.20745813567577
h           -1.52772200506243        4.06124814380946       -0.27555863513428
h           -2.20360230475641        4.55422882637218       -1.58877933029795
o           -2.30191270163538        1.29561474369666       -2.45010584088631
h           -2.25070026728676        2.14847808247054       -1.99395677980629
h           -1.38859701266979        0.96432856133267       -2.50944053208159
o           -2.51802519998486       -2.82446211205449       -2.42569973125058
h           -2.45811299984330       -3.30322661293618       -1.58020846999286
h           -3.07971865277300       -2.04733286575434       -2.24783525855218
o           -0.54816901774275        3.17681566126456        3.53972287159471
h           -0.35012016891701        3.83365366882468        4.20862442453635
h            0.28882303990406        2.70385050514464        3.37317430024698
o           -2.49522476390016       -4.00868298888630        0.09591251930139
h           -3.19439219823373       -3.32463437914999        0.33844609260004
h           -2.93089947457992       -4.86117640559428        0.12659271325523
o           -0.11212269659740       -2.27919365364285       -3.22936342748912
h           -1.05717871481787       -2.43887652122802       -2.93953614857853
h           -0.08306005499370       -2.51901428629300       -4.15685065803955
o            2.76765267902537       -2.09300958521671       -2.61669264863086
h            2.95059118215288       -1.36799005008212       -3.26103435965080
h            1.87629380002309       -2.39458588353743       -2.82898304003537
o            2.94367796979433       -3.84303459565479       -0.37287857600557
h            2.09006467698980       -4.23783512952625       -0.62574720154515
h            3.21836585070948       -3.33347623682995       -1.14591400818568
o            2.81331474188876        0.13975126633445       -4.04280153662081
h            3.44401427917456        0.69540555838214       -3.54880171435265
h            1.93475677069891        0.43953428932133       -3.76727904998292
o            4.28530616112191        1.59733829290384       -2.25469420291620
h            4.58640847148674        1.08317211960655       -1.50166792997952
h            3.75811328193308        2.32761494585067       -1.89090457046717
o            1.86989464431664        1.91875472908344        2.97970412745179
h            2.47061964788297        1.78565419293220        2.21528930517211
h            1.68053765848470        1.01762816398765        3.28138003206337
o           -1.06642466216038        4.64339717769920        1.18297751804697
h           -0.09294642337671        4.74759588443219        1.17420760716037
h           -1.22627954962915        4.09676139031468        1.96787215822659
o           -4.04559831496140       -0.61730275482872       -1.83248781548730
h           -4.81818378128301       -0.48065954450592       -2.38151800974965
h           -3.42987276018626        0.12870422835894       -2.03312915977213
o            0.35322485742905        0.35550823241698       -2.60533070408490
h            0.88202601576817        0.20187961417035       -1.79458693330344
h            0.13334113162912       -0.54220281629583       -2.91641137722375
o            1.63371635052836        4.45331807453437        1.37485840474468
h            2.02946440051217        4.14980582159338        0.54352090827357
h            1.77563134606236        3.74617008814116        2.01496627165738
o            3.37656399913221        1.53215974685091        0.74941903197134
h            3.23688737859122        2.31747625589111        0.20710177188592
h            2.95167007475294        0.79677543957774        0.26496679311695
o           -0.82009345131389       -1.88994472365637        4.16791063131329
h           -0.74869317983852       -2.27687203865862        5.04110582680091
h            0.02610104647831       -1.42971254345529        3.99541509161731
o            2.72028468312016        3.61521848689063       -1.08721839043087
h            3.07834920409984        4.43638258740529       -1.42767966014382
h            1.88144056374525        3.44274564599234       -1.60823829509232
o           -0.47632300780823       -3.66605956267366        2.05111343660369
h           -1.22603850265199       -3.78335225379181        1.44940624152833
h           -0.77647418796082       -3.09828517685016        2.77960735111604
o            1.67933901439575       -2.23213182560951        1.31044055522140
h            2.28949680368736       -2.85446401527123        0.85011248292906
h            0.87769933546965       -2.76911883448933        1.49788046893120
o            1.65275565376243       -0.84798212272684        3.56708030395670
h            2.43770103353747       -1.08410768241958        4.06336589761296
h            1.73222702048927       -1.31335861225049        2.69750811803317
o            2.09417078840875       -0.42302293045325       -0.63359224981741
h            1.85757950555934       -1.01008028368787        0.11543646248994
h            2.51429823563101       -1.01643805739776       -1.29377478226749
o            0.34511726218104       -4.28077653404237       -1.18989107780559
h            0.18383160244439       -3.60768831638941       -1.86401319166210
h           -0.40651844148437       -4.25540480149587       -0.59100162966860
o            0.57659838280473        3.16150569348454       -2.47187840546641
h           -0.24450657551544        3.42723658293121       -2.01267305087023
h            0.49445499982579        2.21336988084985       -2.64382381451359
o           -4.20861649673675       -2.13335453597369        0.61745253141450
h           -3.78348921467922       -1.56121209735542        1.31276647220521
h           -4.24641414923010       -1.58019286949413       -0.17573259289607
75
 energy: -127.148278751068 gnorm: 0.019071402704 xtb: 6.5.1 (579679a)
o           -1.75652519750701        3.78045300865750       -1.20522398659676
h           -1.52048469177546        4.04382658252010       -0.27297778745049
h           -2.19885365827115        4.54279213035842       -1.58121327238626
o           -2.30488649503098        1.28830511809556       -2.42737701858291
h           -2.24701940206381        2.13801714213751       -1.96592734836760
h           -1.39181095517394        0.96335269392335       -2.50706824432491
o           -2.52082528387909       -2.82181357501740       -2.43060773908501
h           -2.46112221144754       -3.30802918980046       -1.58967026830688
h           -3.07673736705381       -2.04129978549223       -2.24970637893412
o           -0.55898347642071        3.17687146626577        3.52412341306237
h           -0.33829607430099        3.82092883668117        4.19907896439281
h            0.26711750110979        2.69492128656710        3.33298552490956
o           -2.48483927041605       -4.00563497931409        0.08269771798875
h           -3.17302277474926       -3.32593400725113        0.34325190976837
h           -2.91865070938096       -4.85895082840781        0.12854423801481
o           -0.11186025808736       -2.28114493285516       -3.23326882276892
h           -1.05850598949489       -2.44280548417047       -2.95469791511437
h           -0.07338146272102       -2.51721491816113       -4.16148843241413
o            2.76970238989865       -2.08994355588266       -2.61297508312818
h            2.95198585592507       -1.36438400376173       -3.25694212340070
h            1.87958462798927       -2.39345062207727       -2.82653950588240
o            2.94508221464027       -3.84377678758183       -0.37216227840827
h            2.09196550741492       -4.23835995510113       -0.62596515246218
h            3.21929655802234       -3.33139833326567       -1.14353366109818
o            2.80960850444086        0.14176508301720       -4.04130010316190
h            3.44346675742813        0.69448738352979       -3.54766287505507
h            1.93296147386690        0.44150059510541       -3.76002917065916
o            4.28635036922133        1.59716579286362       -2.25578862300307
h            4.58370979695700        1.08132263692378       -1.50238454683728
h            3.75787989425909        2.32659823982557       -1.89211070281031
o            1.86012745153875        1.91707365238689        2.96369938816769
h            2.47274888111359        1.77782127082930        2.20998388200761
h            1.67884914590790        1.01948916768166        3.28187605929414
o           -1.06126422707000        4.62354329556272        1.18088996578781
h           -0.08906872193956        4.73905918092391        1.17647074715999
h           -1.21652787051265        4.07385647215234        1.96469460913014
o           -4.03855365449712       -0.62321981338058       -1.80275786954424
h           -4.79865743641268       -0.47920537427743       -2.36863883555422
h           -3.41003423627061        0.11524740498280       -1.99688808379882
o            0.33863934377043        0.35180750807348       -2.58028351369198
h            0.88491895344170        0.20154243490449       -1.78011307230315
h            0.14846379962909       -0.54718749804004       -2.90935734224436
o            1.63936373199464        4.45758364065417        1.37420190928207
h            2.03385768230425        4.14776288602698        0.54467586014665
h            1.76397472019654        3.74681772742751        2.01435045636333
o            3.37673413918774        1.52738720917416        0.74283648406014
h            3.23437485095564        2.31617603541476        0.20642795540994
h            2.93070105910130        0.79955093973957        0.26550163874656
o           -0.82117411480120       -1.90612465075949        4.14801497952864
h           -0.74905279552176       -2.26422628627156        5.03412051908211
h            0.00880121076158       -1.41617689931859        3.97913883531281
o            2.72298964618291        3.61721376004948       -1.09068218021310
h            3.08078637413897        4.43949928506851       -1.42879149840864
h            1.88408616664899        3.44631426888815       -1.61147743014546
o           -0.47972669423556       -3.65874675121321        2.04460366312694
h           -1.23279360634941       -3.76117597745386        1.44612590089490
h           -0.76999171977187       -3.10111592443500        2.78657431241144
o            1.67309286994301       -2.22884001471109        1.30553129633691
h            2.29078941672808       -2.84520289039401        0.84620706799265
h            0.88384458264193       -2.77830835136888        1.50437407604376
o            1.65576081783065       -0.84238457647749        3.56859522821086
h            2.43863526686317       -1.08802385668877        4.06387868490954
h            1.72790550642782       -1.30796527736076        2.69952355810691
o            2.06368975017416       -0.41461177868450       -0.63111606894659
h            1.81951846482161       -1.00422785933081        0.11173684765486
h            2.49446057475379       -1.00661136111647       -1.28647571057077
o            0.34462125911707       -4.29138191019044       -1.19804109704205
h            0.19239160903679       -3.60559005923882       -1.86177463809439
h           -0.39936570674464       -4.25739590590810       -0.59027627329438
o            0.57624380495420        3.16074599978325       -2.47313508307817
h           -0.24547938051526        3.42379231015323       -2.01324395117851
h            0.49712261648853        2.21267604999162       -2.64524449431767
o           -4.19111671311231       -2.09997088341214        0.61491636468455
h           -3.80455243529807       -1.53663651305241        1.30600626661011
h           -4.23918944565855       -1.54590556812636       -0.18055434526873
75
 energy: -127.149873689473 gnorm: 0.014524428837 xtb: 6.5.1 (579679a)
o           -1.74638018780154        3.75597957290222       -1.20056426991283
h           -1.50964126112831        4.01382859155922       -0.26671574827563
h           -2.19308208849615        4.51996837397106       -1.56843169872729
o           -2.30285080346700        1.27424526056628       -2.39138406026572
h           -2.23664670322322        2.11897089399877       -1.92046104486054
h           -1.39181763883994        0.94619708452560       -2.47594069142220
o           -2.52033843344085       -2.81929751476513       -2.44194316785628
h           -2.45727580868822       -3.31643377679547       -1.60797732647996
h           -3.06961412584841       -2.03650285643380       -2.25041575726353
o           -0.57676306433592        3.16444952938781        3.49781041488856
h           -0.33344572843625        3.79794319305633        4.17585941433103
h            0.23982688562775        2.67818724318227        3.28094557524544
o           -2.47401369203976       -3.99607190459533        0.07435208305983
h           -3.15773893665226       -3.32479167401998        0.32883380104468
h           -2.90120434865641       -4.85276615754979        0.12943959796728
o           -0.10328681084383       -2.28416720257517       -3.24156559301392
h           -1.04913572212420       -2.44505536018421       -2.96427412228730
h           -0.06485899812741       -2.51511851901449       -4.17112957835415
o            2.76885178553028       -2.08050378408086       -2.59886894842964
h            2.95315412309745       -1.35962639124551       -3.24712411181878
h            1.88532542526211       -2.39545539465656       -2.82282609706933
o            2.94576750895330       -3.84041863616948       -0.36995401066355
h            2.09768661191689       -4.24226520941594       -0.62885511969536
h            3.22187312599393       -3.32760284631930       -1.14031733493444
o            2.80424504459823        0.14395331831745       -4.03489984489050
h            3.44148319275581        0.69800265957056       -3.54645257380402
h            1.93007096460849        0.45091262012608       -3.75625509099129
o            4.28382841439659        1.59389686896667       -2.25616665553886
h            4.58115590789514        1.08045380467346       -1.50099606063444
h            3.76119399297101        2.32811160355695       -1.89320799725683
o            1.84045595095226        1.91403316080933        2.93459480649951
h            2.46795841568720        1.77242644058947        2.19344007420740
h            1.67538156663744        1.01985903392930        3.27281276462497
o           -1.05303481359135        4.59115586539918        1.17724793007473
h           -0.08286250706801        4.72391234879738        1.17379095971842
h           -1.19760775980586        4.03891708921258        1.96281357596713
o           -4.02154794271821       -0.62778372286368       -1.75923765355643
h           -4.76927063711397       -0.47510958445416       -2.34048032807979
h           -3.38166357607439        0.10587753732221       -1.94481169290717
o            0.33261865967032        0.34719337400428       -2.56041863668481
h            0.86661628219031        0.19382042358485       -1.75071583882192
h            0.13392832537486       -0.54946594101644       -2.88726803563431
o            1.64630960162896        4.46028828916092        1.37485377385230
h            2.04416143990227        4.15222931969948        0.54642870504875
h            1.75659773545625        3.74323356583879        2.01115379601945
o            3.37350017610576        1.51903637935938        0.73156360683268
h            3.23660684285165        2.31316058438120        0.20166371087437
h            2.90131325254150        0.80340150690375        0.25951116876562
o           -0.82826273957528       -1.91594104633172        4.12158041747161
h           -0.75700668871154       -2.24740119006656        5.01898677516170
h           -0.01117563932802       -1.40575695672840        3.95553008288279
o            2.72601675410038        3.61938481607115       -1.09519001549130
h            3.08313084310531        4.44309125150827       -1.43068586450335
h            1.88753007376999        3.44935370654270       -1.61597694637498
o           -0.47907016472498       -3.65295083568051        2.03969889010551
h           -1.23365167407958       -3.73087460772606        1.44060648614631
h           -0.75466977982004       -3.09597422586407        2.79062642837404
o            1.66159500441247       -2.22215040995781        1.29933337338580
h            2.28265455050372       -2.83733845285831        0.84271307983050
h            0.87899739803282       -2.77687587288185        1.50838414905250
o            1.65968595495197       -0.83321541372868        3.56957902028002
h            2.43935744638327       -1.09271466781610        4.06331290047224
h            1.72297744487748       -1.29727951460346        2.70059440493248
o            2.01404959217152       -0.40193444238429       -0.62748854386340
h            1.76321993601068       -0.99124474485372        0.11268963877696
h            2.46469748408458       -0.99372147307866       -1.27013671345966
o            0.35153740344974       -4.29971621596107       -1.20877378161675
h            0.19685431316013       -3.60765127621947       -1.86535420762343
h           -0.38290751984365       -4.26377351299654       -0.58966964523206
o            0.57707213630623        3.15731347569238       -2.47594203216647
h           -0.24500270549815        3.41939916296536       -2.01498857241586
h            0.49875033964227        2.20884475693812       -2.64396051236488
o           -4.16757772837140       -2.04439735061108        0.61285536041686
h           -3.81348549826863       -1.48965055997906        1.29764341962001
h           -4.21729506948398       -1.49914190359920       -0.19325846402396
75
 energy: -127.150673387280 gnorm: 0.008633154068 xtb: 6.5.1 (579679a)
o           -1.73846209566460        3.73493396093516       -1.19424894251360
h           -1.49934104638833        3.99033130639370       -0.25948337443614
h           -2.19015447896023        4.49841515042304       -1.55694693762242
o           -2.30038711778777        1.26300189313005       -2.35358332212374
h           -2.22862492994608        2.10888088439900       -1.88481190621351
h           -1.38940451833328        0.93592307129352       -2.44803136021113
o           -2.52067139655269       -2.81830167559166       -2.45529608062719
h           -2.45088149928548       -3.32124031143633       -1.62598973369950
h           -3.06560025381896       -2.03543592345947       -2.25207969870233
o           -0.59244264137790        3.14037841901250        3.47836962299702
h           -0.33871020925679        3.77532814049372        4.15062465106722
h            0.22233603165664        2.65839305613328        3.24711872844763
o           -2.46277274058180       -3.98915223387929        0.06218820860368
h           -3.12761470121140       -3.31230436573679        0.33622206273638
h           -2.89522112709208       -4.84250018784847        0.13332685649612
o           -0.09870258008570       -2.28859090384819       -3.24730241580673
h           -1.04632592140291       -2.44833021601423       -2.97860326969356
h           -0.05337441888021       -2.51409365872529       -4.17798892800011
o            2.76735403581466       -2.07086933800612       -2.58273003029962
h            2.95197978242736       -1.34934931117906       -3.22993074752078
h            1.88863932435555       -2.39298031264417       -2.81559328614824
o            2.94672960432052       -3.83636325740175       -0.36602986962556
h            2.10240503366278       -4.24325285880869       -0.62948402166542
h            3.22339464575240       -3.32083204145339       -1.13444004237172
o            2.79704526614672        0.14830413621155       -4.03039805624926
h            3.43620556934310        0.70093542280767       -3.54261013465464
h            1.92413694840471        0.45377988551508       -3.74689606813278
o            4.28603234897869        1.59443392267048       -2.25600516407660
h            4.57739139051760        1.08024027762884       -1.49889070047350
h            3.76139448391475        2.32873227560319       -1.89593962900032
o            1.82589099134702        1.91055993211254        2.91037256689511
h            2.45750492418972        1.76787567023071        2.17306170019023
h            1.66919215118769        1.01872167961490        3.25852737267622
o           -1.04580812541538        4.56815229996164        1.17516003817189
h           -0.07702432542547        4.71050184507723        1.16791958037367
h           -1.18081570235409        4.01163526645146        1.96117327594165
o           -4.00529524702053       -0.62990927978465       -1.73800776289883
h           -4.75385793711704       -0.46609579426608       -2.31383369293268
h           -3.36504460735538        0.10810825411573       -1.91182978907222
o            0.31317219288013        0.34574887341580       -2.54745941607732
h            0.85603745733084        0.19267409478480       -1.74069596073031
h            0.13818792825069       -0.55134607143175       -2.88808572207486
o            1.65341970874463        4.46108286115005        1.37575999258878
h            2.05225501356381        4.15683063884695        0.54649846379995
h            1.75784457720854        3.73906215391059        2.00741389540935
o            3.36898626892723        1.51319639631338        0.72085905637941
h            3.23886029468056        2.31029537027528        0.19372482452835
h            2.88335334984187        0.80520918361329        0.25063520480305
o           -0.83671727707772       -1.90871816861640        4.10419927532441
h           -0.76936098855519       -2.23660813589592        5.00224656190154
h           -0.02140257917167       -1.39792947877190        3.94130733169983
o            2.72890800084403        3.62282299903540       -1.09786315636795
h            3.08389224876344        4.44648501147663       -1.43565723053680
h            1.89132485535471        3.44833654181236       -1.61852593041135
o           -0.47760025261697       -3.65141938377577        2.03824282968559
h           -1.22953854588657       -3.71405232355531        1.43427167431734
h           -0.74799230148262       -3.09008311668333        2.78891947281330
o            1.65113740450512       -2.21766247720652        1.29775584606137
h            2.27434393834121       -2.82858754193232        0.83862651801579
h            0.87181395819130       -2.77686118321386        1.50932953675857
o            1.66098269465472       -0.82745609731593        3.56896063166106
h            2.43887378951502       -1.09335087201691        4.06200012940023
h            1.72140626215274       -1.28981036437803        2.69968761218808
o            1.97830678554543       -0.39518117630136       -0.61828395993878
h            1.72292722138653       -0.98810891678124        0.11800476221474
h            2.43902288392595       -0.98298900820218       -1.25749462073542
o            0.35866776979343       -4.30858197297951       -1.21767048922320
h            0.20263025450940       -3.61288154921476       -1.86998577764697
h           -0.36729035982654       -4.26751456555115       -0.58865598073903
o            0.58074970103474        3.15330146228148       -2.47845811515868
h           -0.24199919219019        3.41364963727133       -2.01675600861871
h            0.50341119050876        2.20419140813135       -2.64341067079598
o           -4.14494363755782       -2.01336180599268        0.60835186828832
h           -3.84540477322071       -1.44662606383871        1.31587539308846
h           -4.18550964223460       -1.46882988180658       -0.20058174503318
75
 energy: -127.151327207689 gnorm: 0.010079287890 xtb: 6.5.1 (579679a)
o           -1.72555010218178        3.70976902519686       -1.18458302907814
h           -1.48552042404635        3.96398555836663       -0.24792569254812
h           -2.19027509826594        4.46808840207759       -1.54138724849520
o           -2.29200896808526        1.25176447186956       -2.30541090912284
h           -2.21337499850970        2.09636736459312       -1.83377429340550
h           -1.38191343764633        0.91953992351061       -2.40436102947136
o           -2.51723638913908       -2.81730268564764       -2.47461851391260
h           -2.44355405113668       -3.32483805368884       -1.64917747347268
h           -3.05754633967568       -2.03440400655676       -2.25903578617892
o           -0.61453382910709        3.09661167119992        3.45163019121951
h           -0.35467535327457        3.73804617590589        4.11424802533301
h            0.20173271387757        2.62328698306247        3.20893543059001
o           -2.44468139271367       -3.97454196264607        0.05375527074228
h           -3.09350950376158       -3.28877828961350        0.33571584434819
h           -2.88470770345391       -4.82283289551322        0.13494597094531
o           -0.08914314863163       -2.29444720590628       -3.25526343469144
h           -1.03867445066874       -2.45215611930554       -2.99317002994451
h           -0.03870490555864       -2.51344079289595       -4.18723060949802
o            2.76273502992318       -2.05398933552727       -2.55698990419043
h            2.94704306955664       -1.33610497883642       -3.20784229673688
h            1.89201724718371       -2.39010119882086       -2.80152555952084
o            2.94837719796244       -3.82788009908576       -0.35740403390778
h            2.10998927686964       -4.24259652172655       -0.62853887379820
h            3.22568406845330       -3.30735837670389       -1.12234160508346
o            2.78739679426726        0.15371820077309       -4.02126339868461
h            3.42754774187560        0.70876232790613       -3.53743089486812
h            1.91493466181836        0.46154695702897       -3.73997260549136
o            4.28632976830711        1.59316078867724       -2.25445837421120
h            4.57504160863844        1.08208914872420       -1.49406684031465
h            3.76707075476427        2.33359951847316       -1.89887233435745
o            1.80725308462102        1.90413039279225        2.87555909436861
h            2.44010142028831        1.75855158525385        2.13989222779003
h            1.66019762118069        1.01590798900003        3.23635302496383
o           -1.03513240259294        4.54146429671959        1.17399117711970
h           -0.06810106123121        4.69373630087607        1.16170836853337
h           -1.15948754097914        3.97515967240142        1.95740998460595
o           -3.98411682802361       -0.62950719807432       -1.72220015747879
h           -4.73966288424582       -0.44717618367786       -2.28195310244476
h           -3.34249769200122        0.11445072933300       -1.88106685116802
o            0.29609337761465        0.34317254508349       -2.54656950754060
h            0.82282913300875        0.18490785554428       -1.72695949828945
h            0.12363482073059       -0.55147057551039       -2.89117579350453
o            1.66403885093693        4.45997441455579        1.37607369021806
h            2.06379598207891        4.16273988747002        0.54472113474722
h            1.76723909554081        3.73263577563632        2.00138244379665
o            3.36390566669268        1.50619046054290        0.70293257514111
h            3.23816248958738        2.30649863569477        0.17966789345836
h            2.86041596542178        0.80628344427434        0.23872260406900
o           -0.84901443631973       -1.89122245245835        4.08268547735427
h           -0.79046470880664       -2.21970525737710        4.98013496130383
h           -0.03324728070845       -1.38168216958386        3.92599854804975
o            2.73322641015840        3.62710450429090       -1.10309537702609
h            3.08500425780340        4.45097533173232       -1.44365840953888
h            1.89571697423289        3.44780091253291       -1.62264113989648
o           -0.47473635686361       -3.65167189179847        2.04002923004115
h           -1.21823527497825       -3.70188341255741        1.42495726844963
h           -0.74761159080409       -3.08063314110830        2.78262082844617
o            1.63656543705998       -2.21155666624537        1.29571679694894
h            2.26265753001856       -2.81848525484179        0.83572414849339
h            0.85983322139591       -2.77553385884426        1.50989786636641
o            1.66026948256790       -0.82131121407509        3.56615800370209
h            2.43666307783589       -1.09096825064447        4.05896974044057
h            1.72004569883569       -1.28202934769521        2.69642428886071
o            1.93549304345721       -0.38714600845595       -0.60470207417405
h            1.67989603567169       -0.98080626079978        0.13264620365489
h            2.40705584369303       -0.97292640397492       -1.23747957712909
o            0.37217073601001       -4.31544472323146       -1.22707136610197
h            0.20697340624730       -3.62443852685907       -1.88151904649237
h           -0.34795129545862       -4.27607444805601       -0.59183709117493
o            0.58760652090147        3.14477268901555       -2.48147895354565
h           -0.23513061564980        3.40520653391269       -2.01896164002444
h            0.50685681945143        2.19526497663558       -2.64353904635918
o           -4.11237709426181       -1.98086703525288        0.62054396057007
h           -3.87937362351566       -1.38901065756452        1.34720543945576
h           -4.14300004290578       -1.44205043251547       -0.19463851459178
75
 energy: -127.151855748982 gnorm: 0.006918826221 xtb: 6.5.1 (579679a)
o           -1.71281892227997        3.69076689580281       -1.17421763898032
h           -1.47092858217519        3.94675889771291       -0.23653949216091
h           -2.19300081029292        4.44125165043545       -1.52713060726119
o           -2.28403548354271        1.24353172146615       -2.26112075263150