      -----------------------------------------------------------      
     |                   =====================                   |     
     |                           x T B                           |     
     |                   =====================                   |     
     |                         S. Grimme                         |     
     |          Mulliken Center for Theoretical Chemistry        |     
     |                    University of Bonn                     |     
      -----------------------------------------------------------      

   * xtb version 6.5.1 (579679a) compiled by 'ehlert@majestix' on 2022-07-11

   xtb is free software: you can redistribute it and/or modify it under
   the terms of the GNU Lesser General Public License as published by
   the Free Software Foundation, either version 3 of the License, or
   (at your option) any later version.
   
   xtb is distributed in the hope that it will be useful,
   but WITHOUT ANY WARRANTY; without even the implied warranty of
   MERCHANTABILITY or FITNESS FOR A PARTICULAR PURPOSE.  See the
   GNU Lesser General Public License for more details.
   
   Cite this work as:
   * C. Bannwarth, E. Caldeweyher, S. Ehlert, A. Hansen, P. Pracht,
     J. Seibert, S. Spicher, S. Grimme, WIREs Comput. Mol. Sci., 2020, 11,
     e01493. DOI: 10.1002/wcms.1493
   
   for GFN2-xTB:
   * C. Bannwarth, S. Ehlert and S. Grimme., J. Chem. Theory Comput., 2019,
     15, 1652-1671. DOI: 10.1021/acs.jctc.8b01176
   for GFN1-xTB:
   * S. Grimme, C. Bannwarth, P. Shushkov, J. Chem. Theory Comput., 2017,
     13, 1989-2009. DOI: 10.1021/acs.jctc.7b00118
   for GFN0-xTB:
   * P. Pracht, E. Caldeweyher, S. Ehlert, S. Grimme, ChemRxiv, 2019, preprint.
     DOI: 10.26434/chemrxiv.8326202.v1
   for GFN-FF:
   * S. Spicher and S. Grimme, Angew. Chem. Int. Ed., 2020, 59, 15665-15673.
     DOI: 10.1002/anie.202004239
   
   for ALPB and GBSA implicit solvation:
   * S. Ehlert, M. Stahn, S. Spicher, S. Grimme, J. Chem. Theory Comput.,
     2021, 17, 4250-4261. DOI: 10.1021/acs.jctc.1c00471
   
   for DFT-D4:
   * E. Caldeweyher, C. Bannwarth and S. Grimme, J. Chem. Phys., 2017,
     147, 034112. DOI: 10.1063/1.4993215
   * E. Caldeweyher, S. Ehlert, A. Hansen, H. Neugebauer, S. Spicher,
     C. Bannwarth and S. Grimme, J. Chem. Phys., 2019, 150, 154122.
     DOI: 10.1063/1.5090222
   * E. Caldeweyher, J.-M. Mewes, S. Ehlert and S. Grimme, Phys. Chem. Chem. Phys.
     2020, 22, 8499-8512. DOI: 10.1039/D0CP00502A
   
   for sTDA-xTB:
   * S. Grimme and C. Bannwarth, J. Chem. Phys., 2016, 145, 054103.
     DOI: 10.1063/1.4959605
   
   in the mass-spec context:
   * V. Asgeirsson, C. Bauer and S. Grimme, Chem. Sci., 2017, 8, 4879.
     DOI: 10.1039/c7sc00601b
   * J. Koopman and S. Grimme, ACS Omega 2019, 4, 12, 15120-15133.
     DOI: 10.1021/acsomega.9b02011
   
   for metadynamics refer to:
   * S. Grimme, J. Chem. Theory Comput., 2019, 155, 2847-2862
     DOI: 10.1021/acs.jctc.9b00143
   
   for SPH calculations refer to:
   * S. Spicher and S. Grimme, J. Chem. Theory Comput., 2021, 17, 1701-1714
     DOI: 10.1021/acs.jctc.0c01306
   
   with help from (in alphabetical order)
   P. Atkinson, C. Bannwarth, F. Bohle, G. Brandenburg, E. Caldeweyher
   M. Checinski, S. Dohm, S. Ehlert, S. Ehrlich, I. Gerasimov, C. Hölzer
   A. Katbashev, J. Koopman, C. Lavigne, S. Lehtola, F. März, M. Müller,
   F. Musil, H. Neugebauer, J. Pisarek, C. Plett, P. Pracht, F. Pultar,
   J. Seibert, P. Shushkov, S. Spicher, M. Stahn, M. Steiner, T. Strunk,
   J. Stückrath, T. Rose, and J. Unsleber
   
 * started run on 2022/11/24 at 12:04:44.000     

           -------------------------------------------------
          |                Calculation Setup                |
           -------------------------------------------------

          program call               : xtb solvent_cluster.coord --gfn2 --input xcontrol --opt 1
          hostname                   : cn0430
          coordinate file            : solvent_cluster.coord
          omp threads                :                     2

   ID    Z sym.   atoms
    1    8 o      1, 4, 7, 10, 13, 16, 19, 22, 25, 28, 31, 34, 37, 40, 43,
                  46, 49, 52, 55, 58, 61, 64, 67, 70, 73, 76, 79, 82, 85, 88,
                  91, 94, 97, 100, 103, 106, 109, 112, 115, 118, 121, 124,
                  127, 130, 133, 136, 139, 142, 145, 148, 151, 154, 157, 160,
                  163, 166, 169, 172, 175, 178, 181, 184, 187, 190, 193, 196,
                  199, 202, 205, 208, 211, 214, 217, 220, 223, 226, 229, 232,
                  235, 238, 241, 244, 247, 250, 253, 256, 259, 262, 265, 268,
                  271, 274, 277, 280, 283, 286, 289, 292, 295, 298, 301, 304,
                  307, 310, 313, 316, 319, 322, 325, 328, 331, 334, 337, 340,
                  343, 346, 349, 352, 355, 358, 361, 364, 367, 370, 373, 376,
                  379, 382, 385, 388, 391, 394, 397, 400, 403, 406, 409, 412,
                  415, 418, 421, 424, 427, 430, 433, 436, 439, 442, 445, 448,
                  451, 454, 457, 460, 463, 466, 469, 472, 475, 478, 481, 484,
                  487, 490, 493, 496, 499, 502, 505, 508, 511, 514, 517, 520,
                  523, 526, 529, 532, 535, 538, 541, 544, 547, 550, 553, 556,
                  559, 562, 565, 568, 571, 574, 577, 580, 583, 586, 589, 592,
                  595, 598, 601, 604, 607, 610, 613, 616, 619, 622, 625, 628,
                  631, 634, 637, 640, 643, 646, 649, 652, 655, 658, 661, 664,
                  667, 670, 673, 676, 679, 682, 685, 688, 691, 694, 697, 700,
                  703, 706, 709, 712, 715, 718, 721, 724, 727, 730, 733, 736,
                  739, 742, 745, 748, 751, 754
    2    1 h      2, 3, 5, 6, 8, 9, 11, 12, 14, 15, 17, 18, 20, 21, 23, 24,
                  26, 27, 29, 30, 32, 33, 35, 36, 38, 39, 41, 42, 44, 45, 47,
                  48, 50, 51, 53, 54, 56, 57, 59, 60, 62, 63, 65, 66, 68, 69,
                  71, 72, 74, 75, 77, 78, 80, 81, 83, 84, 86, 87, 89, 90, 92,
                  93, 95, 96, 98, 99, 101, 102, 104, 105, 107, 108, 110, 111,
                  113, 114, 116, 117, 119, 120, 122, 123, 125, 126, 128, 129,
                  131, 132, 134, 135, 137, 138, 140, 141, 143, 144, 146, 147,
                  149, 150, 152, 153, 155, 156, 158, 159, 161, 162, 164, 165,
                  167, 168, 170, 171, 173, 174, 176, 177, 179, 180, 182, 183,
                  185, 186, 188, 189, 191, 192, 194, 195, 197, 198, 200, 201,
                  203, 204, 206, 207, 209, 210, 212, 213, 215, 216, 218, 219,
                  221, 222, 224, 225, 227, 228, 230, 231, 233, 234, 236, 237,
                  239, 240, 242, 243, 245, 246, 248, 249, 251, 252, 254, 255,
                  257, 258, 260, 261, 263, 264, 266, 267, 269, 270, 272, 273,
                  275, 276, 278, 279, 281, 282, 284, 285, 287, 288, 290, 291,
                  293, 294, 296, 297, 299, 300, 302, 303, 305, 306, 308, 309,
                  311, 312, 314, 315, 317, 318, 320, 321, 323, 324, 326, 327,
                  329, 330, 332, 333, 335, 336, 338, 339, 341, 342, 344, 345,
                  347, 348, 350, 351, 353, 354, 356, 357, 359, 360, 362, 363,
                  365, 366, 368, 369, 371, 372, 374, 375, 377, 378, 380, 381,
                  383, 384, 386, 387, 389, 390, 392, 393, 395, 396, 398, 399,
                  401, 402, 404, 405, 407, 408, 410, 411, 413, 414, 416, 417,
                  419, 420, 422, 423, 425, 426, 428, 429, 431, 432, 434, 435,
                  437, 438, 440, 441, 443, 444, 446, 447, 449, 450, 452, 453,
                  455, 456, 458, 459, 461, 462, 464, 465, 467, 468, 470, 471,
                  473, 474, 476, 477, 479, 480, 482, 483, 485, 486, 488, 489,
                  491, 492, 494, 495, 497, 498, 500, 501, 503, 504, 506, 507,
                  509, 510, 512, 513, 515, 516, 518, 519, 521, 522, 524, 525,
                  527, 528, 530, 531, 533, 534, 536, 537, 539, 540, 542, 543,
                  545, 546, 548, 549, 551, 552, 554, 555, 557, 558, 560, 561,
                  563, 564, 566, 567, 569, 570, 572, 573, 575, 576, 578, 579,
                  581, 582, 584, 585, 587, 588, 590, 591, 593, 594, 596, 597,
                  599, 600, 602, 603, 605, 606, 608, 609, 611, 612, 614, 615,
                  617, 618, 620, 621, 623, 624, 626, 627, 629, 630, 632, 633,
                  635, 636, 638, 639, 641, 642, 644, 645, 647, 648, 650, 651,
                  653, 654, 656, 657, 659, 660, 662, 663, 665, 666, 668, 669,
                  671, 672, 674, 675, 677, 678, 680, 681, 683, 684, 686, 687,
                  689, 690, 692, 693, 695, 696, 698, 699, 701, 702, 704, 705,
                  707, 708, 710, 711, 713, 714, 716, 717, 719, 720, 722, 723,
                  725, 726, 728, 729, 731, 732, 734, 735, 737, 738, 740, 741,
                  743, 744, 746, 747, 749, 750, 752, 753, 755, 756

molecular fragmentation (1/2 indicates fragments):
111222222222222222222222222222222222222222222222222222222222222222222222
222222222222222222222222222222222222222222222222222222222222222222222222
222222222222222222222222222222222222222222222222222222222222222222222222
222222222222222222222222222222222222222222222222222222222222222222222222
222222222222222222222222222222222222222222222222222222222222222222222222
222222222222222222222222222222222222222222222222222222222222222222222222
222222222222222222222222222222222222222222222222222222222222222222222222
222222222222222222222222222222222222222222222222222222222222222222222222
222222222222222222222222222222222222222222222222222222222222222222222222
222222222222222222222222222222222222222222222222222222222222222222222222
222222222222222222222222222222222222
# atoms in fragment 1/2:     3   753
 fragment masses (1/2) :       18.02     4521.84
CMA distance (Bohr)    :  16.775
constraining FC (au)   :  0.0500

           -------------------------------------------------
          |                 G F N 2 - x T B                 |
           -------------------------------------------------

        Reference                      10.1021/acs.jctc.8b01176
      * Hamiltonian:
        H0-scaling (s, p, d)           1.850000    2.230000    2.230000
        zeta-weighting                 0.500000
      * Dispersion:
        s8                             2.700000
        a1                             0.520000
        a2                             5.000000
        s9                             5.000000
      * Repulsion:
        kExp                           1.500000    1.000000
        rExp                           1.000000
      * Coulomb:
        alpha                          2.000000
        third order                    shell-resolved
        anisotropic                    true
        a3                             3.000000
        a5                             4.000000
        cn-shift                       1.200000
        cn-exp                         4.000000
        max-rad                        5.000000


          ...................................................
          :                      SETUP                      :
          :.................................................:
          :  # basis functions                1512          :
          :  # atomic orbitals                1512          :
          :  # shells                         1008          :
          :  # electrons                      2016          :
          :  max. iterations                   250          :
          :  Hamiltonian                  GFN2-xTB          :
          :  restarted?                      false          :
          :  GBSA solvation                  false          :
          :  PC potential                    false          :
          :  electronic temp.          300.0000000     K    :
          :  accuracy                    1.0000000          :
          :  -> integral cutoff          0.2500000E+02      :
          :  -> integral neglect         0.1000000E-07      :
          :  -> SCF convergence          0.1000000E-05 Eh   :
          :  -> wf. convergence          0.1000000E-03 e    :
          :  Broyden damping             0.4000000          :
          ...................................................

 iter      E             dE          RMSdq      gap      omega  full diag
   1  -1290.9732145 -0.129097E+04  0.407E+00    8.43       0.0  T
   2  -1291.0503909 -0.771764E-01  0.241E+00    7.08       1.0  T
   3  -1291.0819491 -0.315582E-01  0.210E-01    5.32       1.0  T
   4  -1291.0872942 -0.534511E-02  0.460E-02    5.79       1.0  T
   5  -1291.0873742 -0.799495E-04  0.308E-02    5.72       1.0  T
   6  -1291.0874135 -0.393463E-04  0.449E-03    5.77       1.0  T
   7  -1291.0874162 -0.274385E-05  0.749E-04    5.76       4.9  T
   8  -1291.0874163 -0.307887E-07  0.364E-04    5.76      10.0  T
   9  -1291.0874163 -0.125867E-07  0.727E-05    5.76      50.1  T

   *** convergence criteria satisfied after 9 iterations ***

         #    Occupation            Energy/Eh            Energy/eV
      -------------------------------------------------------------
         1        2.0000           -0.6895151             -18.7627
       ...           ...                  ...                  ...
      1002        2.0000           -0.3402784              -9.2594
      1003        2.0000           -0.3390685              -9.2265
      1004        2.0000           -0.3375531              -9.1853
      1005        2.0000           -0.3349250              -9.1138
      1006        2.0000           -0.3179169              -8.6510
      1007        2.0000           -0.3123849              -8.5004
      1008        2.0000           -0.2978955              -8.1061 (HOMO)
      1009                         -0.0861707              -2.3448 (LUMO)
      1010                         -0.0717388              -1.9521
      1011                         -0.0635561              -1.7294
      1012                         -0.0557634              -1.5174
      1013                         -0.0519306              -1.4131
       ...                                ...                  ...
      1512                          0.5158693              14.0375
      -------------------------------------------------------------
                  HL-Gap            0.2117248 Eh            5.7613 eV
             Fermi-level           -0.1920331 Eh           -5.2255 eV

 SCC (total)                   0 d,  0 h,  0 min, 21.295 sec
 SCC setup                      ...        0 min,  0.042 sec (  0.197%)
 Dispersion                     ...        0 min,  0.110 sec (  0.517%)
 classical contributions        ...        0 min,  0.023 sec (  0.109%)
 integral evaluation            ...        0 min,  0.606 sec (  2.846%)
 iterations                     ...        0 min,  7.515 sec ( 35.292%)
 molecular gradient             ...        0 min, 12.927 sec ( 60.702%)
 printout                       ...        0 min,  0.072 sec (  0.338%)

         :::::::::::::::::::::::::::::::::::::::::::::::::::::
         ::                     SUMMARY                     ::
         :::::::::::::::::::::::::::::::::::::::::::::::::::::
         :: total energy           -1283.302129317946 Eh    ::
         :: gradient norm              0.104489573911 Eh/a0 ::
         :: HOMO-LUMO gap              5.761324245634 eV    ::
         ::.................................................::
         :: SCC energy             -1291.087416291079 Eh    ::
         :: -> isotropic ES            7.154627719257 Eh    ::
         :: -> anisotropic ES         -1.616145061668 Eh    ::
         :: -> anisotropic XC         -0.128501726888 Eh    ::
         :: -> dispersion             -0.797171208455 Eh    ::
         :: repulsion energy           7.627742890244 Eh    ::
         :: add. restraining           0.000000000000 Eh    ::
         :: total charge               0.000000000000 e     ::
         :::::::::::::::::::::::::::::::::::::::::::::::::::::

      ----------------------------------------------------------- 
     |                       L-ANC optimizer                     |
      ----------------------------------------------------------- 
          low memory version by Sebastian Ehlert

          ...................................................
          :                      SETUP                      :
          :.................................................:
          :   energy convergence        0.1000000E-05 Eh    :
          :   grad. convergence         0.8000000E-03 Eh/a0 :
          :   optimization log               true           :
          :   writing optlog all                1     steps :
          :   Hessian reset                    20     steps :
          :   maximium step len.        1.0000000     a0    :
          :   LBFGS images                     20           :
          ...................................................
 * calculating model hessian...
Using Lindh-Hessian (1995)
 Shifting diagonal of input Hessian by   1.000000000000020E-002
 Lowest  eigenvalues of input Hessian
   -0.000000   -0.000000   -0.000000   -0.000000   -0.000000   -0.000000
   -0.000000   -0.000000   -0.000000   -0.000000   -0.000000   -0.000000
   -0.000000   -0.000000   -0.000000   -0.000000   -0.000000   -0.000000
 Highest eigenvalues
    0.317869    0.325358    1.233520    1.243384    1.421239    1.455459
 

........................................................................
.............................. CYCLE    1 ..............................
........................................................................
   1  -1291.0880797 -0.129109E+04  0.263E-02    5.85       0.0  T
   2  -1291.0881204 -0.407200E-04  0.155E-02    5.82       1.0  T
   3  -1291.0881284 -0.796720E-05  0.373E-03    5.81       1.0  T
   4  -1291.0881293 -0.947371E-06  0.699E-04    5.81       5.2  T
   5  -1291.0881293 -0.143752E-07  0.125E-04    5.81      29.2  T
     SCC iter.                  ...        0 min,  3.435 sec
     gradient                   ...        0 min, 12.750 sec
 * total energy  : -1283.3066809 Eh     change       -0.4551558E-02 Eh
   gradient norm :     0.0160171 Eh/a0  converged?    E=F G=F D=F
   step length   :     0.4485708 a0

........................................................................
.............................. CYCLE    2 ..............................
........................................................................
   1  -1291.0876927 -0.129109E+04  0.243E-02    5.88       0.0  T
   2  -1291.0877202 -0.275022E-04  0.144E-02    5.88       1.0  T
   3  -1291.0877241 -0.388181E-05  0.287E-03    5.88       1.3  T
   4  -1291.0877248 -0.699910E-06  0.390E-04    5.88       9.3  T
   5  -1291.0877248 -0.569207E-08  0.871E-05    5.88      41.8  T
     SCC iter.                  ...        0 min,  3.771 sec
     gradient                   ...        0 min, 12.849 sec
 * total energy  : -1283.3093616 Eh     change       -0.2680742E-02 Eh
   gradient norm :     0.0219098 Eh/a0  converged?    E=F G=F D=F
   step length   :     0.5727037 a0

........................................................................
.............................. CYCLE    3 ..............................
........................................................................
   1  -1291.0879703 -0.129109E+04  0.149E-02    5.96       0.0  T
   2  -1291.0879867 -0.163810E-04  0.863E-03    5.98       1.0  T
   3  -1291.0879888 -0.210006E-05  0.218E-03    6.00       1.7  T
   4  -1291.0879891 -0.265739E-06  0.227E-04    5.99      16.0  T
   5  -1291.0879891 -0.262253E-08  0.540E-05    5.99      67.4  T
     SCC iter.                  ...        0 min,  3.368 sec
     gradient                   ...        0 min, 12.485 sec
 * total energy  : -1283.3107185 Eh     change       -0.1356832E-02 Eh
   gradient norm :     0.0288219 Eh/a0  converged?    E=F G=F D=F
   step length   :     0.5072311 a0

........................................................................
.............................. CYCLE    4 ..............................
........................................................................
   1  -1291.0939988 -0.129109E+04  0.106E-02    6.07       0.0  T
   2  -1291.0940031 -0.436660E-05  0.627E-03    6.09       1.0  T
   3  -1291.0940040 -0.858344E-06  0.105E-03    6.11       3.5  T
   4  -1291.0940041 -0.112950E-06  0.216E-04    6.11      16.8  T
   5  -1291.0940041 -0.104001E-08  0.310E-05    6.11     117.2  T
     SCC iter.                  ...        0 min,  3.557 sec
     gradient                   ...        0 min, 12.748 sec
 * total energy  : -1283.3118906 Eh     change       -0.1172188E-02 Eh
   gradient norm :     0.0130076 Eh/a0  converged?    E=F G=F D=F
   step length   :     0.4304700 a0

........................................................................
.............................. CYCLE    5 ..............................
........................................................................
   1  -1291.0882702 -0.129109E+04  0.276E-02    6.19       0.0  T
   2  -1291.0882835 -0.132767E-04  0.165E-02    6.23       1.0  T
   3  -1291.0882859 -0.246553E-05  0.196E-03    6.26       1.9  T
   4  -1291.0882864 -0.478886E-06  0.436E-04    6.25       8.3  T
   5  -1291.0882864 -0.669138E-08  0.783E-05    6.25      46.5  T
     SCC iter.                  ...        0 min,  3.407 sec
     gradient                   ...        0 min, 12.837 sec
 * total energy  : -1283.3119758 Eh     change       -0.8511945E-04 Eh
   gradient norm :     0.0353104 Eh/a0  converged?    E=F G=F D=F
   step length   :     0.7307957 a0

........................................................................
.............................. CYCLE    6 ..............................
........................................................................
   1  -1291.0951977 -0.129110E+04  0.171E-02    6.21       0.0  T
   2  -1291.0952037 -0.597314E-05  0.102E-02    6.18       1.0  T
   3  -1291.0952054 -0.166197E-05  0.138E-03    6.16       2.6  T
   4  -1291.0952055 -0.187105E-06  0.382E-04    6.17       9.5  T
   5  -1291.0952056 -0.484465E-08  0.526E-05    6.17      69.2  T
     SCC iter.                  ...        0 min,  3.360 sec
     gradient                   ...        0 min, 12.970 sec
 * total energy  : -1283.3129925 Eh     change       -0.1016760E-02 Eh
   gradient norm :     0.0064180 Eh/a0  converged?    E=F G=F D=F
   step length   :     0.3790724 a0

........................................................................
.............................. CYCLE    7 ..............................
........................................................................
   1  -1291.0955080 -0.129110E+04  0.525E-03    6.17       0.0  T
   2  -1291.0955086 -0.612321E-06  0.319E-03    6.17       1.1  T
   3  -1291.0955088 -0.270184E-06  0.418E-04    6.17       8.7  T
   4  -1291.0955089 -0.154319E-07  0.142E-04    6.17      25.6  T
     SCC iter.                  ...        0 min,  2.678 sec
     gradient                   ...        0 min, 12.983 sec
 * total energy  : -1283.3132431 Eh     change       -0.2506073E-03 Eh
   gradient norm :     0.0112387 Eh/a0  converged?    E=F G=F D=F
   step length   :     0.1172486 a0

........................................................................
.............................. CYCLE    8 ..............................
........................................................................
   1  -1291.0907263 -0.129109E+04  0.216E-02    6.16       0.0  T
   2  -1291.0907323 -0.603526E-05  0.130E-02    6.14       1.0  T
   3  -1291.0907337 -0.136795E-05  0.132E-03    6.13       2.8  T
   4  -1291.0907339 -0.221840E-06  0.347E-04    6.13      10.5  T
   5  -1291.0907339 -0.374985E-08  0.485E-05    6.13      75.0  T
     SCC iter.                  ...        0 min,  3.278 sec
     gradient                   ...        0 min, 13.181 sec
 * total energy  : -1283.3133302 Eh     change       -0.8702787E-04 Eh
   gradient norm :     0.0195966 Eh/a0  converged?    E=F G=F D=F
   step length   :     0.5624417 a0

........................................................................
.............................. CYCLE    9 ..............................
........................................................................
   1  -1291.0962316 -0.129110E+04  0.119E-02    6.14       0.0  T
   2  -1291.0962331 -0.150655E-05  0.717E-03    6.14       1.0  T
   3  -1291.0962338 -0.660335E-06  0.698E-04    6.14       5.2  T
   4  -1291.0962338 -0.383081E-07  0.238E-04    6.15      15.3  T
     SCC iter.                  ...        0 min,  2.611 sec
     gradient                   ...        0 min, 12.898 sec
 * total energy  : -1283.3137894 Eh     change       -0.4592555E-03 Eh
   gradient norm :     0.0031408 Eh/a0  converged?    E=F G=F D=F
   step length   :     0.2190302 a0

........................................................................
.............................. CYCLE   10 ..............................
........................................................................
   1  -1291.0963310 -0.129110E+04  0.328E-03    6.15       0.0  T
   2  -1291.0963311 -0.123804E-06  0.198E-03    6.15       1.8  T
   3  -1291.0963311 -0.315374E-07  0.186E-04    6.15      19.5  T
   4  -1291.0963311 -0.429395E-08  0.458E-05    6.15      79.4  T
     SCC iter.                  ...        0 min,  2.609 sec
     gradient                   ...        0 min, 13.322 sec
 * total energy  : -1283.3138874 Eh     change       -0.9800522E-04 Eh
   gradient norm :     0.0028070 Eh/a0  converged?    E=F G=F D=F
   step length   :     0.1215602 a0

........................................................................
.............................. CYCLE   11 ..............................
........................................................................
   1  -1291.0960049 -0.129110E+04  0.803E-03    6.16       0.0  T
   2  -1291.0960060 -0.108182E-05  0.483E-03    6.16       1.0  T
   3  -1291.0960062 -0.222701E-06  0.565E-04    6.15       6.4  T
   4  -1291.0960063 -0.399671E-07  0.127E-04    6.15      28.6  T
     SCC iter.                  ...        0 min,  2.565 sec
     gradient                   ...        0 min, 13.427 sec
 * total energy  : -1283.3139965 Eh     change       -0.1090801E-03 Eh
   gradient norm :     0.0026654 Eh/a0  converged?    E=F G=F D=F
   step length   :     0.3263102 a0

........................................................................
.............................. CYCLE   12 ..............................
........................................................................
   1  -1291.0963972 -0.129110E+04  0.113E-03    6.15       0.0  T
   2  -1291.0963972 -0.155176E-07  0.681E-04    6.15       5.3  T
   3  -1291.0963972 -0.464411E-08  0.655E-05    6.15      55.5  T
     SCC iter.                  ...        0 min,  1.922 sec
     gradient                   ...        0 min, 13.436 sec
 * total energy  : -1283.3140074 Eh     change       -0.1092939E-04 Eh
   gradient norm :     0.0014104 Eh/a0  converged?    E=F G=F D=F
   step length   :     0.0201206 a0

........................................................................
.............................. CYCLE   13 ..............................
........................................................................
   1  -1291.0966727 -0.129110E+04  0.171E-03    6.16       0.0  T
   2  -1291.0966727 -0.234129E-07  0.104E-03    6.16       3.5  T
   3  -1291.0966727 -0.523073E-08  0.756E-05    6.16      48.1  T
   4  -1291.0966727 -0.870386E-09  0.177E-05    6.16     205.6  T
     SCC iter.                  ...        0 min,  2.574 sec
     gradient                   ...        0 min, 13.393 sec
 * total energy  : -1283.3140175 Eh     change       -0.1002926E-04 Eh
   gradient norm :     0.0016257 Eh/a0  converged?    E=F G=F D=F
   step length   :     0.0512116 a0

........................................................................
.............................. CYCLE   14 ..............................
........................................................................
   1  -1291.0964238 -0.129110E+04  0.216E-03    6.17       0.0  T
   2  -1291.0964239 -0.506107E-07  0.130E-03    6.17       2.8  T
   3  -1291.0964239 -0.887076E-08  0.115E-04    6.17      31.7  T
   4  -1291.0964239 -0.203477E-08  0.231E-05    6.17     157.7  T
     SCC iter.                  ...        0 min,  2.605 sec
     gradient                   ...        0 min, 13.354 sec
 * total energy  : -1283.3140269 Eh     change       -0.9447359E-05 Eh
   gradient norm :     0.0012087 Eh/a0  converged?    E=F G=F D=F
   step length   :     0.0631690 a0

........................................................................
.............................. CYCLE   15 ..............................
........................................................................
   1  -1291.0959611 -0.129110E+04  0.356E-03    6.17       0.0  T
   2  -1291.0959614 -0.251859E-06  0.213E-03    6.18       1.7  T
   3  -1291.0959614 -0.320279E-07  0.264E-04    6.18      13.8  T
   4  -1291.0959614 -0.943351E-08  0.369E-05    6.18      98.5  T
     SCC iter.                  ...        0 min,  2.616 sec
     gradient                   ...        0 min, 13.310 sec
 * total energy  : -1283.3140326 Eh     change       -0.5722941E-05 Eh
   gradient norm :     0.0018217 Eh/a0  converged?    E=F G=F D=F
   step length   :     0.0775798 a0

........................................................................
.............................. CYCLE   16 ..............................
........................................................................
   1  -1291.0961092 -0.129110E+04  0.720E-04    6.18       0.0  T
   2  -1291.0961093 -0.102921E-07  0.439E-04    6.19       8.3  T
   3  -1291.0961093 -0.479940E-08  0.566E-05    6.19      64.3  T
     SCC iter.                  ...        0 min,  1.955 sec
     gradient                   ...        0 min, 13.338 sec
 * total energy  : -1283.3140361 Eh     change       -0.3471207E-05 Eh
   gradient norm :     0.0005776 Eh/a0  converged?    E=F G=T D=F
   step length   :     0.0184087 a0

........................................................................
.............................. CYCLE   17 ..............................
........................................................................
   1  -1291.0961824 -0.129110E+04  0.419E-04    6.19       0.0  T
   2  -1291.0961824 -0.226169E-08  0.255E-04    6.19      14.3  T
   3  -1291.0961824 -0.659384E-09  0.240E-05    6.19     151.3  T
     SCC iter.                  ...        0 min,  1.941 sec
     gradient                   ...        0 min, 13.266 sec
 * total energy  : -1283.3140367 Eh     change       -0.6472101E-06 Eh
   gradient norm :     0.0003300 Eh/a0  converged?    E=T G=T D=F
   step length   :     0.0104045 a0

   *** GEOMETRY OPTIMIZATION CONVERGED AFTER 17 CYCLES ***

------------------------------------------------------------------------
 total energy gain   :        -0.0119074 Eh       -7.4720 kcal/mol
 total RMSD          :         0.0963702 a0        0.0510 Å
 total power (kW/mol):        -1.8389963 (step)   -0.1057 (real)
------------------------------------------------------------------------

 L-ANCopt (total)              0 d,  0 h,  4 min, 55.876 sec
 setup                          ...        0 min,  0.030 sec (  0.010%)
 model hessian                  ...        0 min,  7.682 sec (  2.596%)
 ANC generation                 ...        0 min,  2.504 sec (  0.846%)
 coordinate transformation      ...        0 min,  0.002 sec (  0.001%)
 Rational function              ...        0 min,  0.000 sec (  0.000%)
 singlepoint calculation        ...        4 min, 45.531 sec ( 96.504%)
 optimization log               ...        0 min,  0.119 sec (  0.040%)
 hessian update                 ...        0 min,  0.000 sec (  0.000%)

================
 final structure:
================
$coord
       10.28153871540100      -13.18280467248300       -0.83647721672700      o
        8.72771311941900      -13.50310184247100       -1.80753979243200      h
        9.85992724970800      -13.65922234602400        0.90417321466200      h
       -0.15214191365700        5.38325962022600        8.48684743369400      o
       -1.88331122788600        4.95207045820500        7.96906612389200      h
        0.20151644913800        6.92995733301200        7.50333176297100      h
        0.14693920445500       -3.01405004194600       -4.62867764933800      o
       -0.34108718749600       -3.80161122172900       -3.03180832562600      h
       -0.53242989693100       -4.05269874200600       -5.96785882409200      h
      -10.62541388532100        4.60341415521100       -0.13051613140000      o
       -9.49785386186100        4.33244757626200       -1.55345037842300      h
      -11.25648884799000        6.32027841767000       -0.33228031642900      h
       -6.50869615334600        4.14884453519400        2.78701721272000      o
       -8.14167023957200        4.63182191748000        2.08650998230700      h
       -5.32116928607200        5.46308936725700        2.25139175179200      h
       -6.14457494035200       -9.54490736922400        0.18711042307400      o
       -7.82749222254900       -9.47972459455300       -0.52977739009400      h
       -5.97596992017400       -8.03355359733300        1.25191041334600      h
        1.95185943307500       -8.70746984989500       -7.76762478814800      o
        1.07231993151000       -8.97100266553400       -9.38080049433700      h
        0.68807354344700       -8.41570855879200       -6.50136853991000      h
       -0.48982351792700       -9.17131328148900        2.16523210596800      o
       -1.09642370743600       -9.66023148576000        3.83192876655400      h
       -0.28808186013100      -10.73311998818700        1.20867039638100      h
       -1.83413545755900       -5.09507382819100       -0.48975912268000      o
       -1.42080056104500       -6.64855450969300        0.40690402286000      h
       -3.54140726417500       -5.31175610853000       -1.13306049167700      h
        0.42212780307300        4.38212060132700       -8.90581049287700      o
        1.08051573569100        3.34638551513000      -10.28082882605300      h
       -0.68571359094300        3.21969686055700       -7.96657655640800      h
       -5.80795536565600       -1.73249137538500       -6.56425166209900      o
       -7.19969319052000       -0.67124427795700       -7.14343034808400      h
       -4.41243422742700       -0.54441931102600       -6.27966673813600      h
       -2.86697308686300        7.84624566860600       -6.10961856788800      o
       -1.08468421507800        8.22480076562600       -6.44078266004900      h
       -3.42435520207300        6.42404919875100       -7.15627517989000      h
       -6.33644983611000       -5.21241489855400       -2.84869548476100      o
       -6.76020480320700       -6.77376994053000       -3.72481637136100      h
       -6.32267858146400       -3.86328196944800       -4.10712143583000      h
       -6.92498624449600        4.11107934494400       -3.79350071203000      o
       -6.46724203284900        4.05503171716000       -5.57013138206300      h
       -6.45996616445700        5.80308868676600       -3.23530640224400      h
       -1.39444592044600        5.19180011835700       -2.17696534257700      o
       -2.03461024099900        6.36183851210800       -3.46114124631900      h
        0.38211290239500        4.92857794361800       -2.57689654672600      h
       -1.92348554376700        1.36256392423200       -5.67125141148400      o
       -1.86984379393000        2.53622978621600       -4.25919895745300      h
       -0.84329400114400       -0.08586790842100       -5.23384276319800      h
       -4.60584017007800       -0.44141432948200        6.62539996937900      o
       -4.85494301966000       -2.05518737653200        7.47931701713700      h
       -6.25778694912200        0.39938472469500        6.60950158326900      h
       -7.73725149508500       -0.46445906424600       14.61657074077600      o
       -9.56788938776400       -0.26133392447700       14.49536045615400      h
       -7.52867908118300       -2.29334324362300       14.46256341249400      h
       -2.03411808644200      -10.68190324599400        6.77262913017100      o
       -3.80520709790100      -10.15878869209200        6.74377559100000      h
       -1.31357457366900       -9.90429350006500        8.27347217962500      h
       -7.08452969615500        3.41006170692200       11.55018590179000      o
       -5.74191885267300        4.37177835343900       12.35434662725300      h
       -7.21074670139800        1.77435904861100       12.41138616009300      h
       -5.66548628393400       -5.40333535042700        3.14465215549900      o
       -4.04415535883000       -5.44536177008100        4.01404973977900      h
       -5.84760699429900       -3.74165647783100        2.40209880390600      h
        7.68401731680600        0.20990709615900        3.56574064614900      o
        7.70864594635100       -1.53930345533000        2.99313446178700      h
        7.30429451069000        0.15819503846400        5.36587222531100      h
        2.40496939021900       -4.78279453845000        2.29329321539600      o
        4.18068055532100       -4.93308679042600        1.85952593427800      h
        1.67740332020300       -6.45949004516900        2.36722682735800      h
       -2.46703598903700       12.28243103851400       -3.49823089147900      o
       -1.12830078167000       11.20750734338100       -2.75306439981900      h
       -2.20297205023500       12.29878998976600       -5.32404847593000      h
       -2.87008534380300        1.23218314520900       15.36365760633800      o
       -2.73606046639300        3.04053064733000       15.08640039577700      h
       -4.65518789280600        0.85723852551800       15.57602906273800      h
       -9.21919093651200        1.50677139244400        6.83201608115200      o
       -9.63239763175000        3.29689337387600        6.91868441531300      h
       -9.93001359695600        0.92295633829800        5.22527652662200      h
      -14.28035372306100        1.66023287716500       -2.42304670121300      o
      -12.66674958689600        0.78468605472600       -2.64762513264500      h
      -14.03047994447100        2.90498878636600       -1.11057616988300      h
        5.05271454767300        4.81936079452800        1.96383000244600      o
        6.43959396573500        3.71532565892900        2.38540139839000      h
        5.32314376509700        5.37727971927600        0.22142225669300      h
       -3.01146481899100       -5.90638030005300       -7.56461102674700      o
       -3.13848994304900       -6.92701103142600       -6.02532098809400      h
       -4.15972949706900       -4.47587973942800       -7.40710007682500      h
        4.78742055280300       -4.05555189918800       -2.66285468313600      o
        3.76691858886800       -5.58074424645500       -2.56473257259800      h
        4.04540144790000       -2.78685202440500       -1.53378964375800      h
       -7.32860905606600       -9.69382133767400       -5.59000867592100      o
       -6.40075552547400       -9.91592631928300       -7.16776782679600      h
       -9.10048803155300       -9.83578981039400       -6.06006329353600      h
       -9.62401417438100       -0.32870473988200       -3.04960148268700      o
       -8.83439380010400        1.09581168926300       -3.87483396678800      h
       -8.67369398564100       -0.55112727387400       -1.49547633131500      h
        3.49338184467700        2.10606229829300       10.56584022998300      o
        3.56235456886400        2.19987956360800       12.40511381913900      h
        1.74428493148000        1.70708908712400       10.16788753715500      h
        8.67627042760700       -8.39063321882000        5.57447617080100      o
        8.10060044171200       -9.37024017056200        7.01338995462500      h
        9.70818461398000       -7.04511600952000        6.26947803010300      h
        3.61148504945200       -2.39918272055000        6.40937597450800      o
        3.19351059699700       -0.63122529792800        6.08723870957700      h
        3.03142385521300       -3.37826714908300        4.92684239133800      h
        5.66415565306000        5.48676598367100        7.22842572600300      o
        5.49643430218400        7.20391741587700        7.83355269328800      h
        4.99852858322000        4.35899288926400        8.50464457486300      h
       -6.82320748646700       10.48712943957600       -7.66548847904000      o
       -5.24095124533500        9.70314890023800       -7.09469269030900      h
       -6.82524619595300       10.36865872675600       -9.47086706692600      h
      -11.91067456999200        9.06535514942600       -2.22394270248900      o
      -13.66982452534000        9.52790784263900       -2.48213718518400      h
      -11.39136755687500        8.25699331921400       -3.78870085668500      h
        1.19592579809600       -3.59867017225900       10.55688831489100      o
        0.03210291840600       -2.17432706292000       10.69917514426100      h
        2.02844429841900       -3.33600093284400        8.90862169379700      h
       -6.58454298848700       -8.60721937503500        7.30449680736500      o
       -7.51276448462700       -8.04410841199000        5.80370211675400      h
       -6.11129256688000       -7.06909695685000        8.20788109224500      h
       -1.39736271698400       -5.18469489165100        5.99133164376700      o
       -2.24846480307900       -5.22189586359000        7.59590305694500      h
        0.00606728225600       -6.35457654832000        6.07498141567900      h
        2.00128910622500        2.14547639424300        5.11745398772400      o
        2.97803168734000        3.20196616706500        3.97711772592000      h
        1.32214782566400        3.26197937813900        6.41259699557000      h
        2.19645021707800       -3.40430364846000      -16.20808163185200      o
        3.00814018765700       -4.95474587570100      -15.63669134365300      h
        3.57887016630300       -2.19760917126300      -16.37552353383400      h
        6.36950023022500       -5.53296710255500        9.22408740201700      o
        7.94840088234300       -5.04615875085000       10.02078379898600      h
        5.76270001398000       -4.06920496753800        8.28675840057800      h
      -13.91994566357600        3.70238796296700        4.18549406563700      o
      -15.59625172593400        4.23193972110600        4.68286425799900      h
      -13.01792979237200        5.24355115939800        3.86960918388700      h
      -14.53062249443600        8.86378268994400        3.43067783354900      o
      -13.43731169306100        9.83493114500000        4.54027114487100      h
      -15.55898004914300       10.13017870306800        2.57446563746900      h
      -14.94268175922800       -7.12398490743900        1.55588371219900      o
      -15.11561352447400       -7.86429552509500        3.24070497303700      h
      -15.93535410327300       -5.58442577842400        1.55301533856500      h
        2.68811553656000      -13.08037897546800        8.51793095077400      o
        1.54821051550900      -13.01052184082900        9.92374841220500      h
        1.81692356829500      -14.03751663762000        7.21426643144100      h
       11.98502642120300       -9.16052580585200       10.72442713109000      o
       11.44125000307100       -7.49465077958900       11.28716342251700      h
       10.45794062957300      -10.17131954838700       10.67535811157100      h
        2.93208685686900        3.84463510280100       -4.47150705058600      o
        4.29713761226200        4.96665797676200       -3.97753664641600      h
        2.30116701348800        4.44193350447400       -6.09198720614000      h
        6.79904875768800       -8.51182144183600       -5.01838031305400      o
        7.84396347832500       -8.40869336694500       -3.51480987712900      h
        5.11513325856100       -8.89097886613600       -4.39856851860900      h
      -16.60459995843400       10.06185091910400       -4.17709518772600      o
      -15.72388441540400       11.09211291335500       -5.42552337660900      h
      -16.41356255898100        8.32274715829600       -4.80861823370900      h
       12.51597764405100        1.18142056501100        5.35692691670100      o
       13.71866147630800       -0.04129205344200        4.68926029398900      h
       10.92653769079200        0.99083230749600        4.45124588724800      h
        1.60032440774200        6.08605212136300      -15.34301070382400      o
        0.72716252678700        5.65428741911500      -16.86813602610200      h
        1.77279711868200        4.52359685410500      -14.39478778642200      h
      -14.44579374763800       -3.57019065917500       -2.74927407689400      o
      -15.86366630493500       -3.32893399236400       -1.60415376031100      h
      -12.95231007942400       -3.86433271490200       -1.69268264437500      h
       -4.89085618286000        5.08678282906600        7.36914439520700      o
       -5.96297182422400        4.25338136676500        8.60595932410200      h
       -5.61538714702100        4.72157503215500        5.70076825296700      h
        5.06498012065000      -10.25264747544100        2.01317823917800      o
        6.37360527510200       -9.15199946309100        1.40562346065300      h
        4.26795762916900       -9.46225650758300        3.48553972821900      h
       -5.44919688423500      -13.25624961643300        3.67503173568000      o
       -5.83331662210900      -11.85798013523900        2.52784210757700      h
       -6.77979626770100      -13.40713163770500        4.91500690940500      h
        4.30093097991400       -0.66596259143900       -6.47366043223400      o
        3.84407785701100        0.89217709222800       -5.60101218162700      h
        4.36414623296500       -1.99362792346700       -5.18746636165000      h
        6.59173357317000       -0.58519755270700      -16.16082847702100      o
        6.66828545032300        0.74527815443200      -14.90948279448000      h
        7.51240102399700       -1.99660608696600      -15.44284365016000      h
       -5.11534051463200       -4.39196447632700        9.71464442708700      o
       -4.22608493380800       -4.34838036728900       11.33263643566200      h
       -6.86199096669400       -3.77628966388300       10.04821840114600      h
       -0.29589586653800       -9.50120393268600      -12.20089138391900      o
       -0.86979915576900       -7.79155853106800      -12.65385420567800      h
       -1.81598985583800      -10.41672101348400      -11.78402031107700      h
        3.80209217984900        0.13215809500200       -0.19229189251300      o
        4.84430600532600        0.93639003403100       -1.47224965732700      h
        4.79455877601400        0.17331566666300        1.33470486619200      h
       -2.46082059875400       -9.19426472955400       -3.68857429399000      o
       -3.69919033784600       -9.45779323189400       -2.34864844381300      h
       -2.19069122395800      -10.83951845285300       -4.48348674430900      h
        7.33470996316100      -11.21144381922200        9.79238418483800      o
        6.19667476792200      -12.47259932579100        9.12534971344000      h
        6.37648397060800      -10.35497077519900       11.10306764485700      h
       -6.28637187489900       -3.37934727524000      -11.81174533387900      o
       -7.34196864714100       -4.78447446853600      -11.31387650595600      h
       -4.73465403407500       -4.06661776868500      -12.53781192033800      h
      -11.15728169215000       -8.93013583576900       -1.82438876700800      o
      -12.19925390104600       -8.15654294007300       -0.52979625220500      h
      -10.97222681356300       -7.65825320838600       -3.14262339542000      h
       -3.11992363523000        0.58572533370000      -10.87129114486100      o
       -2.73029261499300        0.62129798472400      -12.65030882865200      h
       -4.20870618155400       -0.85287666783000      -10.60050664970000      h
      -20.78526578145100        9.00117880254300        3.13964345482300      o
      -19.80298312497400       10.53890123679900        3.10610550064100      h
      -20.97359930224500        8.60513076336700        1.35365254187200      h
        4.41771407921000       -8.26471226257900       12.93594968347700      o
        4.90249306990300       -7.04493156905500       11.61154385847900      h
        4.52001673295600       -7.33768377688800       14.48773134147900      h
       -2.80934903098400        5.87981937167900       13.07491460177300      o
       -1.77235600070900        5.61601710304000       11.56857423389700      h
       -2.65625619286800        7.64004745271900       13.47965187638600      h
        7.74244121695600        1.42962193197800       -3.35169525557500      o
        8.80947775552600        2.39282826722400       -2.20379399239500      h
        8.53764412873700       -0.23104529113700       -3.47000374127900      h
        9.79257460874300        5.68296693984900        4.46437931554400      o
       11.04850876056200        5.55452105595000        5.80846170922000      h
        8.17942972077100        5.56432095986100        5.35882475524400      h
       -9.54332106013000        1.48528248700600       -8.02878264723600      o
       -9.47326734296900        1.37621876193200       -9.85351216131200      h
      -11.10358159381200        0.61321797784700       -7.53626135541000      h
        8.54004134021200      -13.58363137656400        3.87877934437300      o
        7.33313536167400      -12.23357593049300        3.48660530424200      h
        9.88936018187900      -12.81813087848900        4.84069986869800      h
       -6.14442980618600        3.37554630106400      -15.29809620693100      o
       -4.65028111506500        2.42844503616800      -15.75066072302500      h
       -7.43366735732400        2.18088816061400      -14.82424099232800      h
        8.19274842063300       -0.99724219158600       -9.63443436193800      o
        8.05290649318500       -2.56911126415400      -10.55858419388600      h
        6.74614685767100       -0.89831117308400       -8.47159707032800      h
      -12.72531632198300       -9.88942649028400       10.06754481834700      o
      -11.48918047026400      -11.17693151308100        9.64973146106100      h
      -13.80080554878700       -9.74246334035600        8.58990280194600      h
      -18.24901978611100       -3.26432805445900        0.56177418508100      o
      -19.81542712020500       -4.19297883265100        0.47430294661600      h
      -18.62337671312600       -1.48880574875800        0.90074936818000      h
      -17.40995338254000       -9.86401442703700       -1.75664693112500      o
      -17.02905084904800       -9.07149287348400       -3.38641304295700      h
      -16.38144040883400       -8.88664229657200       -0.52479234992100      h
      -17.29774517200500       12.23585412324800        0.80584408729100      o
      -16.06395016633900       13.57704906650800        1.17545305461500      h
      -17.16602261631600       11.84876950967200       -0.97159954360100      h
       -9.49927337505000       13.36017799593300       -0.60245179205200      o
       -9.31877347998700       14.07384050951100       -2.28332078460800      h
      -10.31531686811300       11.72389649037500       -0.87228237963200      h
       -6.45210193121300        9.00161793743700       -2.42790910138500      o
       -4.94991097387700        9.98963731661500       -2.82268683900000      h
       -7.65061242427500        9.43426461258000       -3.72270668528000      h
       -0.78996314939900       11.13026936474900       11.46685553192500      o
        0.49400652949400        9.88613471240200       11.94237793400300      h
        0.10743737174200       12.51977481080700       10.72284789561800      h
        0.26820048333100        9.18472625240900        5.40228022024200      o
       -0.79669487970800        8.49957317251300        4.03796009790700      h
        1.96829297540100        9.43154768460800        4.69737551080700      h
       -1.15118549670900        8.35709285863900      -11.51826441483900      o
       -0.65868445102900        6.93916927704000      -10.40354758706000      h
       -0.14734193680200        8.10180044528000      -13.02400229688600      h
        6.60329744762700        7.63705098930400      -14.21862854292000      o
        4.98229981896800        7.51599447017100      -15.04819033002300      h
        6.23387843593300        8.26828636362800      -12.50616176269600      h
       10.48183441348200        4.30847871977700       -0.41791252670200      o
       10.41499800785100        4.53777221587300        1.40160762803800      h
       12.12621260123700        4.89402675183000       -0.99481217560300      h
        5.60568382775900        8.42115320922900       -9.37365970450100      o
        6.59298678027100        9.78856948104700       -8.59185726329200      h
        6.26209570494400        6.85762072920500       -8.62529336842600      h
       -1.33133385172300       12.64873044091100       -8.51627085922000      o
       -1.28288691694700       11.17153801847000       -9.61521552929200      h
        0.31728640512600       13.39405695399700       -8.56204588061900      h
      -10.20898088326800       -7.90857925924500        3.89392942376200      o
      -10.10819405750700       -6.65820271188500        2.53135714127200      h
      -11.28416128557800       -7.12061922710000        5.16450169684200      h
        0.28866387380300      -13.40028123147200       -0.54241077460500      o
        1.84017115323500      -14.06129128300000        0.18068916207800      h
       -1.05822309692600      -14.58906706214100       -0.02913105166300      h
       13.99489523756200       -6.68067894206200       -2.61907770129800      o
       14.12134296341500       -4.92039898502100       -3.21268982420000      h
       14.12676791723800       -7.76307714129700       -4.08312171804200      h
        3.02993977008800       -8.35796666413800        6.30755769134900      o
        4.31836334822900       -7.47239803237200        7.25413743969300      h
        2.78690348069800       -9.98251890585800        7.12914140377100      h
        9.53770863094200       15.46807310673200       -0.45957628205700      o
        9.19732709489400       16.79408534731800       -1.64158243931300      h
       11.28390198815400       14.90918196484900       -0.82036557372100      h
      -12.84481229900200       -0.43059661388300       13.67787303445400      o
      -12.74369625161100       -2.25112183618800       13.54661972889800      h
      -13.52833418994600        0.09281976666900       12.04876957940300      h
      -13.55719807536700       -3.57197861336700      -11.45043873124900      o
      -15.24240119671800       -4.20719707097800      -11.65665534739700      h
      -13.55752442744800       -2.76637022403400       -9.75725789294100      h
       -8.85946951575400       14.50179846465800       -5.60042713683500      o
       -7.94056759714100       13.07038616701000       -6.36928461381700      h
       -8.10726301353200       16.01260113350300       -6.24412186419300      h
      -13.28507045389700       12.11289333162200       -7.45286278533600      o
      -11.89822592509000       13.09176468750800       -6.77217818921400      h
      -12.61032908670300       11.13249829801800       -8.83504260991900      h
        7.64726858255400       -0.25044312202700        8.77889465450600      o
        5.95914458115600        0.36224178038200        9.18793610292300      h
        8.75461216965400        0.91956374051300        9.69796062230600      h
      -10.60562073434500       -5.20128101158400       -5.55952904949100      o
      -10.27115747623000       -3.50070384562600       -4.98394209513100      h
      -10.01664722630000       -5.36077962269200       -7.27293858432200      h
        4.36741530522300       -7.54305232314800      -13.84755550002300      o
        4.90262420441100       -7.16047106408200      -12.11482961229300      h
        3.01933173829100       -8.75467808253900      -13.67954230232800      h
        2.51760711524100       -8.59827955607900       -2.30092982831500      o
        3.09594292846200       -9.64179887416200       -0.91024958593300      h
        0.71183746916900       -8.85970688763200       -2.48183256722000      h
       -8.58173270691900        8.95598316412900        2.49663543837800      o
       -7.88419276879000        8.95493039591300        0.80575307374300      h
       -7.95523799511000       10.45616387144100        3.32465452899500      h
      -13.70623612303400       -1.09211606428400       -7.15888782654800      o
      -15.17090130176800       -0.00605408573300       -7.50373020299500      h
      -13.97695298698200       -1.91230820972900       -5.52462334568200      h
      -20.76325383842100        7.85776470874800       -1.85673959742700      o
      -20.00511461036700        8.89435495433000       -3.15148580912200      h
      -21.72949374411900        6.50981670886600       -2.62220263149600      h
        9.10888486289100       11.81411213682900        5.62528631785900      o
        9.92092349641000       11.34664289296900        4.03208187139400      h
        8.25185482781300       13.41423611891400        5.31162791500100      h
      -10.71013938448500        6.40118566640600       -6.55467897751300      o
      -10.58370196274100        7.45765263514900       -8.06212000322900      h
      -10.04094454852400        4.74791025922000       -7.01905512209700      h
        2.72234197327400        7.51855045490800       12.20582555777200      o
        3.73851436737900        8.62135080029700       11.08129623691700      h
        2.04273871726800        6.21809291729600       11.10349982915000      h
        6.89015013683700        3.02157055860600      -12.34197771215600      o
        6.87842136376000        4.71187840384500      -13.10542233126200      h
        7.20341632877400        3.25085717080900      -10.52752358481900      h
       -5.21690777869000       -9.51834201284500       12.58155859569600      o
       -5.95055700787300      -10.02894364886400       10.99960770120800      h
       -3.46680082171300       -9.07654381369300       12.22768382375300      h
       10.80707666160900        9.44015258800000       -3.54460957883900      o
       12.48593692707100        9.92101896763300       -4.11002976696300      h
       10.78455364484100        9.66802605576800       -1.71883391814700      h
      -10.36297063955500       -4.43500096035900        0.23401073205600      o
       -8.81167489812400       -4.58625585914300       -0.75664162571900      h
      -10.32763088837200       -2.82247509728600        1.12354285027300      h
       17.38635125780000       11.24483021171400        5.74076665085700      o
       18.67644422381300       12.39951908912300        6.25803694285700      h
       18.13572150719400        9.52528947011100        5.75808937084700      h
      -15.45797038311900       -1.09323678704600        4.74416963930000      o
      -16.35530814608300        0.12228369337000        3.65885529718300      h
      -15.17965538579600       -0.19383369780500        6.35203647677500      h
      -10.10658680155700        6.56870808677600        6.69694406218400      o
       -9.58367479112800        7.37422286324200        5.12542005244100      h
       -9.81001279363400        7.78405681585800        8.04436688247000      h
      -16.35404786611600        5.71275240209700       -0.19094637985800      o
      -17.84077087099300        6.61369478064900       -0.77216921811800      h
      -15.57722673249400        6.74194349715600        1.11377124935400      h
      -11.49674595276400        5.11275868656900       13.32404639005100      o
      -12.23453686842100        3.65775593361700       14.12319926370200      h
       -9.94512188278800        4.48768231461800       12.51448971295600      h
       -2.68041969018100       -4.01114075839200       14.19881988731000      o
       -2.45914519399400       -2.32556517715800       14.84785009620400      h
       -3.98364534296100       -4.80341040372700       15.18628856935400      h
       -0.36576415509600       -8.36023622160200       11.05761982440400      o
        1.15187423189700       -8.86982934376300       11.94657286331600      h
       -0.14482279813000       -6.52089814195700       10.93797250358000      h
       -6.10370947704700        7.68080915854200      -12.56696016453900      o
       -4.31661272765200        8.12184049121800      -12.36050834081600      h
       -6.15117963402300        6.31924801814000      -13.80803977442300      h
        6.40759294116300        6.86650541351700       -2.43360250854300      o
        8.12072515455400        6.25545083040800       -2.19163891358400      h
        6.49296941463400        8.68562236536800       -2.13235450990500      h
       12.67920758254000        5.37774378060000       -6.85468764171800      o
       12.57842879643000        3.51745358861400       -6.79162208727600      h
       13.27621575311100        5.91488490510700       -5.19381300266000      h
        6.35538408264200       15.71377744217500        3.84933959331500      o
        7.57290334641400       16.07007444235200        2.53663018739700      h
        4.85194111610200       15.08965939674000        2.95322985968800      h
        9.11054727181600       10.25128830970600       12.25643398168700      o
        8.94730299729800        8.72852418601700       13.23705098911500      h
       10.73755725463300       10.24470571392300       11.43245779117600      h
       12.93859699715700        5.53949553217800        8.42688048518900      o
       14.54706259543400        4.64168530446700        8.35729618578100      h
       13.23792131166000        7.35846655561100        8.61359356428100      h
        9.68728493114000       -8.30917787699300       -0.79801526373200      o
       11.17979312546400       -7.58847538327700       -1.64985864245200      h
        9.94482582547100      -10.17119827125600       -0.81858086192100      h
       13.23241612914400       -7.46836646249700        2.78945062586400      o
       11.70242537047000       -7.85737702447800        1.85086441771900      h
       13.22345263532300       -8.68367616703700        4.17968240850000      h
       22.39413424681200        5.56072049581300        1.16242844807800      o
       24.17677061520000        5.27196332340500        1.21931125007100      h
       21.56405742340500        3.89954984705900        1.34219653675200      h
       -3.01822332048100        7.70104543324500        1.91721963317200      o
       -2.16301515715200        7.03909892745600        0.41182952268200      h
       -3.66496099737900        9.36836369367000        1.50552165979300      h
       12.07099586913500        9.61819322602800       -9.81670659071800      o
       11.98272544232200        8.22983736432700       -8.61956231773800      h
       12.06939847963200        8.80391857805800      -11.45307782840100      h
      -18.50957546323900       -3.84229944536900       -8.81363912160500      o
      -18.37643593830900       -2.06100838630100       -9.16661824943100      h
      -19.79141766881700       -3.97941610888600       -7.50834625055500      h
        6.76464440818900        5.51119642669500       14.52205973627800      o
        5.28603626429500        6.33273301464200       13.75904508236000      h
        6.05212298654000        4.28786037782500       15.66157521016700      h
      -17.67098020973200        1.72181500127200       -8.38729888808900      o
      -16.95891137272200        3.36437032101500       -7.89631523905600      h
      -18.62884384771200        1.27296196854700       -6.86499790958500      h
       -9.62066170133600       -2.50152860499000        9.93563773148500      o
      -10.80726788430000       -3.56909008164900        9.02218285268000      h
       -9.59512869373900       -0.89839276408100        9.03231153980400      h
      -15.51639561306900        5.40484864504600       -5.81695556003300      o
      -13.76079566249700        5.80085336811300       -6.30000275862200      h
      -15.34082931039000        4.24512033283500       -4.39049951220500      h
       -1.62693636986600       -4.71832814036600      -13.10185565400100      o
       -0.54555793988600       -4.20886432005800      -14.49994734033000      h
       -0.76049207726700       -4.00783933005700      -11.62417088519600      h
        7.38658913725800       -4.82584932844600        2.21281462359100      o
        7.67916632887800       -6.01603093734600        3.59067344541600      h
        8.19731962915400       -5.53279614849700        0.73786133289200      h
      -22.98201945695900        3.23546529437000       -2.40506389692600      o
      -24.24584775638300        1.93637856963100       -2.63238504825400      h
      -21.38207410329800        2.36533818289900       -2.77751204180600      h
       15.21288241921100       -5.97490922399000        7.99790517207800      o
       13.65022577916500       -5.14947052260000        7.42080957825000      h
       14.66236978550400       -7.16841690060500        9.25952181240700      h
       10.89508885359100       -3.84552685370500        6.40677519797400      o
        9.89201081618700       -2.56868243639200        7.24976072705800      h
       11.13135201539100       -3.31204882443400        4.66474500208100      h
       20.77590900259000       -1.19012176808200       -2.42583943270700      o
       21.02816929151500       -0.26681020439200       -0.84636617019400      h
       19.41663101623100       -2.37010046728000       -1.98681664042000      h
       17.70148658674400       -4.28662717347300        0.25495191856900      o
       16.60706355182400       -5.49881209464700       -0.56772642308900      h
       18.96527558497100       -5.21270037113800        1.23954839820600      h
       11.85450634594500        6.00056853066600      -13.60004060340800      o
       11.72199373193000        4.17096640755100      -13.43588287542800      h
       10.29169224580800        6.57151439519500      -14.34123933519000      h
        6.21981614327100       11.63250172957200       -0.90713962066300      o
        7.57787024276100       12.85237487453600       -0.67531661092200      h
        5.66185893777800       11.11995516360600        0.79072433384600      h
        3.10945548472700        1.56103815402000       15.62702557891500      o
        3.80238129601400       -0.13492359649000       15.32496598587800      h
        1.34415963546900        1.34907730634500       15.99087967007500      h
       13.19413643039000      -11.31513155799600        6.11799640577900      o
       14.92749518847400      -11.85178291429200        6.10070129449600      h
       12.84235247296900      -10.68573862263100        7.80789588879900      h
        9.60944045876000       -3.24712104522400       -3.06180826402100      o
        7.83115548427000       -3.76282322392300       -2.87927211365800      h
       10.13958344204000       -3.95136124027700       -4.67847036605500      h
        4.99410625959200       -2.71040278280300       13.71952193788500      o
        6.22380167526500       -2.04393799045700       12.55594520425900      h
        3.51019933698600       -3.13110382634400       12.66181281826100      h
        5.24834628835000       10.26675421030000        9.04620904930800      o
        6.77305581838500       10.61541666945400       10.03526734690000      h
        4.44182097960900       11.88028186547500        8.64923167427900      h
        2.11256905956200       14.17377774245300        1.53108524901500      o
        0.78812527639600       14.23756738621000        2.82319642174300      h
        1.54776084652600       15.27747222150100        0.14857843475700      h
        0.92718071426600        9.79291303277100       -0.83197605883500      o
        1.62945438660800       11.19576471086500        0.13973319186100      h
        2.26480546424100        9.05900502943000       -1.81080853927900      h
        4.90209310014600        9.61407631423900        3.51102719531100      o
        6.20559736561600       10.11323939071000        4.70919942875100      h
        5.08745104031900        7.79652729333100        3.19464344405100      h
       15.47854032389800        0.91434761104400       -0.04619047802600      o
       14.19034362549900       -0.18726156108800        0.69136220706100      h
       15.69734585968400        0.19495632295300       -1.72163999885400      h
        2.87503658774000       14.63397018571800        7.95465325229600      o
        4.12338836385400       15.43194522701100        6.89224386437200      h
        1.31172439269200       14.66728001275000        7.01067408697800      h
      -18.46542685375400        5.52533033354500        6.00246346337700      o
      -17.35314998550800        6.30013583992600        7.23164570601500      h
      -19.22308659068200        6.88718391867400        4.99966448255900      h
       -9.92155748038000        9.66926244619800       10.80436781561600      o
      -10.30244360991600        8.55927246306800       12.19199497593700      h
       -8.09392251473500        9.86241286199600       10.69964263165800      h
      -13.44772563337300       15.08626374969300        2.29794149601200      o
      -11.95891588141900       14.66174133162900        1.30029448827800      h
      -13.15570339851700       14.36707387596400        3.95080708494500      h
       12.24602668338400        0.46870066771200       -7.24612428961900      o
       13.53588286390100        0.33692005170400       -8.53037588482200      h
       10.65869713127900       -0.15963659606200       -8.00598374200700      h
       -9.81994261979400       -6.91427266130100      -10.61954491468500      o
      -10.59681386346800       -8.35736233658300       -9.79150992542700      h
      -11.22474358951100       -5.85129569362100      -11.17585157835400      h
       -9.87100680157700       -0.09432480016200      -13.02699223300000      o
      -11.30418129777500       -1.23076702729100      -12.92526946962900      h
       -8.41713797546800       -1.20793429048700      -12.72868652500300      h
      -16.01940972765900       -9.35467785615000        5.98067400742100      o
      -17.31418574864700       -8.67673170952200        7.05928805141800      h
      -16.64804192738700      -10.88334165379700        5.14413281515500      h
      -13.49450956830600      -13.04124998228400       -3.37196579044200      o
      -12.53612807738600      -11.52879100209300       -2.81108258903600      h
      -15.21487230517000      -12.68799290373900       -2.88027993058500      h
       -4.65875964587000       12.75436819942000        1.08517957725500      o
       -3.79002248830600       13.03107726605600       -0.49582622673500      h
       -6.43663803901900       13.10540873090400        0.73001339607800      h
      -12.89455542382900       -5.93422410214700       13.18821208454800      o
      -13.58350240106700       -6.75052305119800       14.64775853047800      h
      -12.75129715362300       -7.27252078897000       11.90294030227200      h
      -20.53131164479700        1.74762059768000        8.49764700376600      o
      -22.10960592297600        2.31734543374000        9.16604327177600      h
      -19.87607390158800        3.14024169216900        7.43265176700900      h
       19.99450217173000       -8.71195984234100       -3.15132704152900      o
       20.27821080614800      -10.27595757572800       -4.01502703101800      h
       18.88575525127400       -9.11570581283100       -1.70712509528500      h
        4.05491074824300      -15.97404770227700        1.85481053739900      o
        2.80529754358700      -15.94842495178300        3.18930402451500      h
        5.63562121225700      -15.48504645267600        2.61778435925200      h
       -5.14549849515500       -9.54722326919300      -10.23957613295800      o
       -4.25592487609900       -8.06514503684500       -9.54326463102400      h
       -6.64605819191900       -8.92785672139400      -11.05410009908600      h
       12.11592471320500       -2.59488271888300        1.37965793484800      o
       13.00069240484700       -4.18532578195100        1.56686144941300      h
       11.20028558766900       -2.70662477560000       -0.21821193299200      h
      -11.05245078369400        8.66603712657600      -11.07045597462000      o
       -9.44000565991800        8.47477593273800      -11.91192622373800      h
      -12.06417907942600        7.22243498690800      -11.57476906112700      h
       14.15208115915600       14.09570694250900       -1.75637608728700      o
       14.51305637774400       13.49766165141000       -3.44412932993400      h
       14.89958680159500       12.82123647660100       -0.65733702181400      h
       21.40592979789000       -5.85749755913500        3.30203783529900      o
       22.61541079958700       -5.79336634438900        1.89829343857300      h
       21.63865813432700       -4.32963701369200        4.29889949050300      h
       16.29781651199400       10.16343065705400        0.77292109944400      o
       16.68942496527500       10.67492873182000        2.49249453727500      h
       17.91905652484000       10.10896165530600       -0.14929142665700      h
       11.12925135105000       -8.69963893648800      -11.85053311398900      o
       10.01975656796000       -9.68525980009000      -10.74681861650700      h
       11.85132858014300       -9.85880624008700      -13.03213621462100      h
       -1.19106238578700      -13.82808749057000       -5.35055170964800      o
       -0.41782614695100      -13.85303450435500       -3.66325668453700      h
       -2.83729993896600      -14.58851297861900       -5.16237681793100      h
       17.24624943483000        2.69504873319800        7.86936610617000      o
       17.12387460886000        1.33521990495200        6.65821967897900      h
       18.33501571552800        3.96907741198100        7.13486088215500      h
      -15.79219817797900       -7.24374804597600       -5.81725917852200      o
      -16.74830452635100       -6.32157834049800       -7.07439855125300      h
      -15.02947309187100       -5.92499490983400       -4.73277632772800      h
       10.60994936328100       -4.29119171523000       11.89374905036500      o
       10.31672648839800       -3.82130114472400       13.61435920923700      h
       11.73634174718700       -2.98303331779600       11.15396175829600      h
       15.20556872209500       10.91997801417200       -5.82301286944900      o
       14.49931256078500       10.91842569482300       -7.50822423302900      h
       16.61560382715600        9.73736362613200       -5.84873743157400      h
      -13.20918058893900        3.97948352221300      -11.75088096000200      o
      -14.78885644481400        3.18385981835300      -11.35347467481900      h
      -12.14557345548100        2.73149637911500      -12.54421156362600      h
      -12.11787534653300      -10.26441081954300       -7.54349235074800      o
      -13.40489617278700       -9.05586610789000       -6.96253845148200      h
      -12.56316313913400      -11.84066435659000       -6.73913923304300      h
        8.38630796474500       11.94407441997800       -7.10522923509600      o
        9.73591488530700       11.80394936679600       -8.33354726750700      h
        9.06717373683100       11.07355789759400       -5.59601684395900      h
       13.15531915808300      -10.17835466833900       -6.46686310160000      o
       13.94559226751400      -11.39515624348600       -5.28281899150400      h
       11.67519001288900      -11.03969477656700       -7.12990512404100      h
       23.65589308656200       -5.45489778529000       -1.18844713244100      o
       22.66830887234300       -6.75738674125900       -2.01830849099600      h
       23.01589609500600       -3.86871597279100       -1.85010451828600      h
       20.15128886131700        1.20048899682500        1.93325048699200      o
       20.44868328072100        0.24303306230500        3.47711248797800      h
       18.34648238210400        1.04402094167800        1.51008129071900      h
       -1.54352343144900       13.80846307662600        5.01290332468200      o
       -2.85030059020300       13.60978915420500        3.72828739995400      h
       -1.04416013775800       12.06254019154200        5.43077976215400      h
        2.21928774849500        1.53423367304200      -12.66509710092200      o
        4.03522885431600        1.92874440220700      -12.50894131202800      h
        1.99579780223400       -0.12362113368200      -11.81839284911800      h
       -5.38009922554100        4.44660037923800       -8.68745864174100      o
       -5.96944489338000        5.53284118180000      -10.04621329325500      h
       -4.51043911505200        3.00666984254000       -9.46413359447800      h
      -16.89721105211500      -13.08326818068500        2.72986918258700      o
      -15.04786428918000      -13.16151638394300        2.77014546335600      h
      -17.33829120435000      -12.34316160845600        1.12855342782500      h
        7.70263233533500        4.26659430282400       -7.50569403039000      o
        9.39292951193700        4.93593232974500       -7.26787997655100      h
        7.44518518256100        3.11540998417100       -6.06553522632500      h
       10.12507273744200        2.97875234151200       11.68461417767600      o
        8.93155551978900        3.94698769501200       12.70644152301600      h
       10.97910353498600        4.16054373141400       10.54426903567200      h
        0.41717648524800       16.48238670459900       -2.59913329401200      o
       -0.93462162697600       15.28919040096300       -2.96927565122500      h
        1.78349889165700       15.98210942000800       -3.70803726618900      h
      -20.02039650399900       -2.76766114005000        6.15954691212500      o
      -20.39404748533600       -1.20794793468600        7.06939395751800      h
      -18.38617239164800       -2.44343957863900        5.33928540920300      h
        8.57726644640800      -11.53686725805300       -8.44282599823000      o
        7.31800245346900      -12.82752001267000       -8.65503375069400      h
        7.83988493591000      -10.38282765873200       -7.15204130030100      h
       -9.29064939733000      -12.93300318819400        7.49980752517600      o
      -10.45687104676400      -12.94063569190400        6.07325138139900      h
       -8.43562921638000      -11.30538774398600        7.48226765167500      h
       -1.43313138266800        0.65100809717300       10.33901483200500      o
       -2.30290012499800        0.86414802631500       11.92986552785700      h
       -2.66579190477700        0.50427183416800        8.95888070228100      h
        3.61478190521600      -13.48932981020400       -7.40584888549400      o
        1.97716922208600      -14.24295309855200       -7.12801021249500      h
        3.23369290830800      -11.67923228825100       -7.53770906879100      h
      -21.43983586709700       -3.93168995848400       -4.48307781914100      o
      -22.99105045764800       -3.02985101457300       -4.09651124823500      h
      -21.37452943423900       -5.29398891157900       -3.25285985285900      h
      -17.49116816716600       -5.73560566000100        9.44593130910400      o
      -17.15986372449200       -4.87876217356700       11.00600322961700      h
[...]
   385   8 o      387   1 h                                       0.9872854
   388   8 o      389   1 h                                       0.9808716
   388   8 o      390   1 h                                       0.9711109
   391   8 o      392   1 h                                       0.9712209
   391   8 o      393   1 h                                       0.9672163
   394   8 o      395   1 h                                       0.9635268
   394   8 o      396   1 h                                       0.9708218
   397   8 o      398   1 h                                       0.9819619
   397   8 o      399   1 h                                       0.9616963
   400   8 o      401   1 h                                       0.9823467
   400   8 o      402   1 h                                       0.9809599
   403   8 o      404   1 h                                       0.9731858
   403   8 o      405   1 h                                       0.9738436
   406   8 o      407   1 h                                       0.9860726
   406   8 o      408   1 h                                       0.9772702
   409   8 o      410   1 h                                       0.9733975
   409   8 o      411   1 h                                       0.9813453
   412   8 o      413   1 h                                       0.9758449
   412   8 o      414   1 h                                       0.9660268
   415   8 o      416   1 h                                       0.9666090
   415   8 o      417   1 h                                       0.9837096
   418   8 o      419   1 h                                       0.9837979
   418   8 o      420   1 h                                       0.9640909
   421   8 o      422   1 h                                       0.9681373
   421   8 o      423   1 h                                       0.9721734
   424   8 o      425   1 h                                       0.9773139
   424   8 o      426   1 h                                       0.9804396
   427   8 o      428   1 h                                       0.9676790
   427   8 o      429   1 h                                       0.9792217
   430   8 o      431   1 h                                       0.9745990
   430   8 o      432   1 h                                       0.9638790
   433   8 o      434   1 h                                       0.9737643
   433   8 o      435   1 h                                       0.9838659
   436   8 o      437   1 h                                       0.9825715
   436   8 o      438   1 h                                       0.9603637
   439   8 o      440   1 h                                       0.9602528
   439   8 o      441   1 h                                       0.9722540
   442   8 o      443   1 h                                       0.9845493
   442   8 o      444   1 h                                       0.9744052
   445   8 o      446   1 h                                       0.9627881
   445   8 o      447   1 h                                       0.9896772
   448   8 o      449   1 h                                       0.9792698
   448   8 o      450   1 h                                       0.9774100
   451   8 o      452   1 h                                       0.9797316
   451   8 o      453   1 h                                       0.9826859
   454   8 o      455   1 h                                       0.9765292
   454   8 o      456   1 h                                       0.9592531
   457   8 o      458   1 h                                       0.9734422
   457   8 o      459   1 h                                       0.9811838
   460   8 o      461   1 h                                       0.9781878
   460   8 o      462   1 h                                       0.9718050
   463   8 o      464   1 h                                       0.9647672
   463   8 o      465   1 h                                       0.9665494
   466   8 o      467   1 h                                       0.9683181
   466   8 o      468   1 h                                       0.9806640
   469   8 o      470   1 h                                       0.9616858
   469   8 o      471   1 h                                       0.9741065
   472   8 o      473   1 h                                       0.9746166
   472   8 o      474   1 h                                       0.9663066
   475   8 o      476   1 h                                       0.9657155
   475   8 o      477   1 h                                       0.9888409
   478   8 o      479   1 h                                       0.9716822
   478   8 o      480   1 h                                       0.9775987
   481   8 o      482   1 h                                       0.9693969
   481   8 o      483   1 h                                       0.9818837
   484   8 o      485   1 h                                       0.9612202
   484   8 o      486   1 h                                       0.9803061
   487   8 o      488   1 h                                       0.9929116
   487   8 o      489   1 h                                       0.9651058
   490   8 o      491   1 h                                       0.9657813
   490   8 o      492   1 h                                       0.9772206
   493   8 o      494   1 h                                       0.9571042
   493   8 o      495   1 h                                       0.9848221
   496   8 o      497   1 h                                       0.9557991
   496   8 o      498   1 h                                       0.9904164
   499   8 o      500   1 h                                       0.9572928
   499   8 o      501   1 h                                       0.9868907
   502   8 o      503   1 h                                       0.9675500
   502   8 o      504   1 h                                       0.9641919
   505   8 o      506   1 h                                       0.9861381
   505   8 o      507   1 h                                       0.9611152
   508   8 o      509   1 h                                       0.9681729
   508   8 o      510   1 h                                       0.9763384
   511   8 o      512   1 h                                       0.9677771
   511   8 o      513   1 h                                       0.9702740
   514   8 o      515   1 h                                       0.9665959
   514   8 o      516   1 h                                       0.9744518
   517   8 o      518   1 h                                       0.9811145
   517   8 o      519   1 h                                       0.9732048
   520   8 o      521   1 h                                       0.9717170
   520   8 o      522   1 h                                       0.9874314
   523   8 o      524   1 h                                       0.9787080
   523   8 o      525   1 h                                       0.9556376
   526   8 o      527   1 h                                       0.9822592
   526   8 o      528   1 h                                       0.9647519
   529   8 o      530   1 h                                       0.9658008
   529   8 o      531   1 h                                       0.9682728
   532   8 o      533   1 h                                       0.9678210
   532   8 o      534   1 h                                       0.9895703
   535   8 o      536   1 h                                       0.9565201
   535   8 o      537   1 h                                       0.9938568
   538   8 o      539   1 h                                       0.9669239
   538   8 o      540   1 h                                       0.9739504
   541   8 o      542   1 h                                       0.9593043
   541   8 o      543   1 h                                       0.9639317
   544   8 o      545   1 h                                       0.9835454
   544   8 o      546   1 h                                       0.9656347
   547   8 o      548   1 h                                       0.9685301
   547   8 o      549   1 h                                       0.9898726
   550   8 o      551   1 h                                       0.9910034
   550   8 o      552   1 h                                       0.9717737
   553   8 o      554   1 h                                       0.9700658
   553   8 o      555   1 h                                       0.9704827
   556   8 o      557   1 h                                       0.9741283
   556   8 o      558   1 h                                       0.9844519
   559   8 o      560   1 h                                       0.9753780
   559   8 o      561   1 h                                       0.9860649
   562   8 o      563   1 h                                       0.9868362
   562   8 o      564   1 h                                       0.9921669
   565   8 o      566   1 h                                       0.9719391
   565   8 o      567   1 h                                       0.9804689
   568   8 o      569   1 h                                       0.9797397
   568   8 o      570   1 h                                       0.9622476
   571   8 o      572   1 h                                       0.9702395
   571   8 o      573   1 h                                       0.9851174
   574   8 o      575   1 h                                       0.9766287
   574   8 o      576   1 h                                       0.9795336
   577   8 o      578   1 h                                       0.9740428
   577   8 o      579   1 h                                       0.9680882
   580   8 o      581   1 h                                       0.9757750
   580   8 o      582   1 h                                       0.9827090
   583   8 o      584   1 h                                       0.9607974
   583   8 o      585   1 h                                       0.9958751
   586   8 o      587   1 h                                       0.9750647
   586   8 o      588   1 h                                       0.9729524
   589   8 o      590   1 h                                       0.9660540
   589   8 o      591   1 h                                       0.9822981
   592   8 o      593   1 h                                       0.9652109
   592   8 o      594   1 h                                       0.9813448
   595   8 o      596   1 h                                       0.9712982
   595   8 o      597   1 h                                       0.9719532
   598   8 o      599   1 h                                       0.9580546
   598   8 o      600   1 h                                       0.9797713
   601   8 o      602   1 h                                       0.9776530
   601   8 o      603   1 h                                       0.9599590
   604   8 o      605   1 h                                       0.9721704
   604   8 o      606   1 h                                       0.9732858
   607   8 o      608   1 h                                       0.9643355
   607   8 o      609   1 h                                       0.9736366
   610   8 o      611   1 h                                       0.9598814
   610   8 o      612   1 h                                       0.9776464
   613   8 o      614   1 h                                       0.9870388
   613   8 o      615   1 h                                       0.9566261
   616   8 o      617   1 h                                       0.9559899
   616   8 o      618   1 h                                       0.9849875
   619   8 o      620   1 h                                       0.9789054
   619   8 o      621   1 h                                       0.9598985
   622   8 o      623   1 h                                       0.9843579
   622   8 o      624   1 h                                       0.9752894
   625   8 o      626   1 h                                       0.9786243
   625   8 o      627   1 h                                       0.9596442
   628   8 o      629   1 h                                       0.9783848
   628   8 o      630   1 h                                       0.9598993
   631   8 o      632   1 h                                       0.9732019
   631   8 o      633   1 h                                       0.9791635
   634   8 o      635   1 h                                       0.9751169
   634   8 o      636   1 h                                       0.9659267
   637   8 o      638   1 h                                       0.9778817
   637   8 o      639   1 h                                       0.9745637
   640   8 o      641   1 h                                       0.9856692
   640   8 o      642   1 h                                       0.9729499
   643   8 o      644   1 h                                       0.9613738
   643   8 o      645   1 h                                       0.9836091
   646   8 o      647   1 h                                       0.9836273
   646   8 o      648   1 h                                       0.9563939
   649   8 o      650   1 h                                       0.9554384 (min)
   649   8 o      651   1 h                                       0.9891658
   652   8 o      653   1 h                                       0.9753790
   652   8 o      654   1 h                                       0.9646390
   655   8 o      656   1 h                                       0.9739071
   655   8 o      657   1 h                                       0.9738521
   658   8 o      659   1 h                                       0.9715030
   658   8 o      660   1 h                                       0.9680875
   661   8 o      662   1 h                                       0.9704769
   661   8 o      663   1 h                                       0.9762878
   664   8 o      665   1 h                                       0.9683230
   664   8 o      666   1 h                                       0.9832453
   667   8 o      668   1 h                                       0.9692771
   667   8 o      669   1 h                                       0.9846572
   670   8 o      671   1 h                                       0.9724949
   670   8 o      672   1 h                                       0.9673689
   673   8 o      674   1 h                                       0.9759456
   673   8 o      675   1 h                                       0.9750754
   676   8 o      677   1 h                                       0.9695251
   676   8 o      678   1 h                                       0.9665647
   679   8 o      680   1 h                                       0.9793143
   679   8 o      681   1 h                                       0.9658852
   682   8 o      683   1 h                                       0.9837547
   682   8 o      684   1 h                                       0.9648971
   685   8 o      686   1 h                                       0.9696695
   685   8 o      687   1 h                                       0.9809639
   688   8 o      689   1 h                                       0.9717143
   688   8 o      690   1 h                                       0.9682839
   691   8 o      692   1 h                                       0.9893946
   691   8 o      693   1 h                                       0.9733397
   694   8 o      695   1 h                                       0.9648360
   694   8 o      696   1 h                                       0.9910697
   697   8 o      698   1 h                                       0.9832813
   697   8 o      699   1 h                                       0.9677613
   700   8 o      701   1 h                                       0.9693211
   700   8 o      702   1 h                                       0.9767398
   703   8 o      704   1 h                                       0.9721010
   703   8 o      705   1 h                                       0.9729308
   706   8 o      707   1 h                                       0.9697896
   706   8 o      708   1 h                                       0.9665475
   709   8 o      710   1 h                                       0.9793243
   709   8 o      711   1 h                                       0.9710454
   712   8 o      713   1 h                                       0.9750927
   712   8 o      714   1 h                                       0.9847026
   715   8 o      716   1 h                                       0.9633846
   715   8 o      717   1 h                                       0.9765693
   718   8 o      719   1 h                                       0.9618112
   718   8 o      720   1 h                                       0.9814853
   721   8 o      722   1 h                                       0.9756628
   721   8 o      723   1 h                                       0.9662259
   724   8 o      725   1 h                                       0.9764606
   724   8 o      726   1 h                                       0.9767769
   727   8 o      728   1 h                                       0.9619662
   727   8 o      729   1 h                                       0.9797868
   730   8 o      731   1 h                                       0.9561130
   730   8 o      732   1 h                                       0.9966343
   733   8 o      734   1 h                                       0.9849482
   733   8 o      735   1 h                                       0.9745861
   736   8 o      737   1 h                                       0.9985347 (max)
   736   8 o      738   1 h                                       0.9683894
   739   8 o      740   1 h                                       0.9691728
   739   8 o      741   1 h                                       0.9712088
   742   8 o      743   1 h                                       0.9775714
   742   8 o      744   1 h                                       0.9655264
   745   8 o      746   1 h                                       0.9750572
   745   8 o      747   1 h                                       0.9710288
   748   8 o      749   1 h                                       0.9694230
   748   8 o      750   1 h                                       0.9849558
   751   8 o      752   1 h                                       0.9684272
   751   8 o      753   1 h                                       0.9787498
   754   8 o      755   1 h                                       0.9623664
   754   8 o      756   1 h                                       0.9588740

 * 1 distinct bonds (by element types)

   Z      Z             #   av. dist./Å        max./Å        min./Å
   1 H    8 O         504     0.9737908     0.9985347     0.9554384


optimized geometry written to: xtbopt.coord


           -------------------------------------------------
          | TOTAL ENERGY            -1283.314036741752 Eh   |
          | GRADIENT NORM               0.004465643823 Eh/α |
          | HOMO-LUMO GAP               6.187542986651 eV   |
           -------------------------------------------------

------------------------------------------------------------------------
 * finished run on 2022/11/24 at 12:10:18.245     
------------------------------------------------------------------------
 total:
 * wall-time:     0 d,  0 h,  5 min, 34.246 sec
 *  cpu-time:     0 d,  0 h,  8 min, 12.838 sec
 * ratio c/w:     1.474 speedup
 SCF:
 * wall-time:     0 d,  0 h,  0 min, 21.304 sec
 *  cpu-time:     0 d,  0 h,  0 min, 33.924 sec
 * ratio c/w:     1.592 speedup
 ANC optimizer:
 * wall-time:     0 d,  0 h,  5 min, 11.888 sec
 *  cpu-time:     0 d,  0 h,  7 min, 37.151 sec
 * ratio c/w:     1.466 speedup

