      -----------------------------------------------------------      
     |                   =====================                   |     
     |                           x T B                           |     
     |                   =====================                   |     
     |                         S. Grimme                         |     
     |          Mulliken Center for Theoretical Chemistry        |     
     |                    University of Bonn                     |     
      -----------------------------------------------------------      

   * xtb version 6.5.1 (579679a) compiled by 'ehlert@majestix' on 2022-07-11

   xtb is free software: you can redistribute it and/or modify it under
   the terms of the GNU Lesser General Public License as published by
   the Free Software Foundation, either version 3 of the License, or
   (at your option) any later version.
   
   xtb is distributed in the hope that it will be useful,
   but WITHOUT ANY WARRANTY; without even the implied warranty of
   MERCHANTABILITY or FITNESS FOR A PARTICULAR PURPOSE.  See the
   GNU Lesser General Public License for more details.
   
   Cite this work as:
   * C. Bannwarth, E. Caldeweyher, S. Ehlert, A. Hansen, P. Pracht,
     J. Seibert, S. Spicher, S. Grimme, WIREs Comput. Mol. Sci., 2020, 11,
     e01493. DOI: 10.1002/wcms.1493
   
   for GFN2-xTB:
   * C. Bannwarth, S. Ehlert and S. Grimme., J. Chem. Theory Comput., 2019,
     15, 1652-1671. DOI: 10.1021/acs.jctc.8b01176
   for GFN1-xTB:
   * S. Grimme, C. Bannwarth, P. Shushkov, J. Chem. Theory Comput., 2017,
     13, 1989-2009. DOI: 10.1021/acs.jctc.7b00118
   for GFN0-xTB:
   * P. Pracht, E. Caldeweyher, S. Ehlert, S. Grimme, ChemRxiv, 2019, preprint.
     DOI: 10.26434/chemrxiv.8326202.v1
   for GFN-FF:
   * S. Spicher and S. Grimme, Angew. Chem. Int. Ed., 2020, 59, 15665-15673.
     DOI: 10.1002/anie.202004239
   
   for ALPB and GBSA implicit solvation:
   * S. Ehlert, M. Stahn, S. Spicher, S. Grimme, J. Chem. Theory Comput.,
     2021, 17, 4250-4261. DOI: 10.1021/acs.jctc.1c00471
   
   for DFT-D4:
   * E. Caldeweyher, C. Bannwarth and S. Grimme, J. Chem. Phys., 2017,
     147, 034112. DOI: 10.1063/1.4993215
   * E. Caldeweyher, S. Ehlert, A. Hansen, H. Neugebauer, S. Spicher,
     C. Bannwarth and S. Grimme, J. Chem. Phys., 2019, 150, 154122.
     DOI: 10.1063/1.5090222
   * E. Caldeweyher, J.-M. Mewes, S. Ehlert and S. Grimme, Phys. Chem. Chem. Phys.
     2020, 22, 8499-8512. DOI: 10.1039/D0CP00502A
   
   for sTDA-xTB:
   * S. Grimme and C. Bannwarth, J. Chem. Phys., 2016, 145, 054103.
     DOI: 10.1063/1.4959605
   
   in the mass-spec context:
   * V. Asgeirsson, C. Bauer and S. Grimme, Chem. Sci., 2017, 8, 4879.
     DOI: 10.1039/c7sc00601b
   * J. Koopman and S. Grimme, ACS Omega 2019, 4, 12, 15120-15133.
     DOI: 10.1021/acsomega.9b02011
   
   for metadynamics refer to:
   * S. Grimme, J. Chem. Theory Comput., 2019, 155, 2847-2862
     DOI: 10.1021/acs.jctc.9b00143
   
   for SPH calculations refer to:
   * S. Spicher and S. Grimme, J. Chem. Theory Comput., 2021, 17, 1701-1714
     DOI: 10.1021/acs.jctc.0c01306
   
   with help from (in alphabetical order)
   P. Atkinson, C. Bannwarth, F. Bohle, G. Brandenburg, E. Caldeweyher
   M. Checinski, S. Dohm, S. Ehlert, S. Ehrlich, I. Gerasimov, C. Hölzer
   A. Katbashev, J. Koopman, C. Lavigne, S. Lehtola, F. März, M. Müller,
   F. Musil, H. Neugebauer, J. Pisarek, C. Plett, P. Pracht, F. Pultar,
   J. Seibert, P. Shushkov, S. Spicher, M. Stahn, M. Steiner, T. Strunk,
   J. Stückrath, T. Rose, and J. Unsleber
   
 * started run on 2022/11/24 at 12:21:16.684     

           -------------------------------------------------
          |                Calculation Setup                |
           -------------------------------------------------

          program call               : xtb xtbopt.coord --gfn2 --sp --gbsa water
          hostname                   : cn0430
          coordinate file            : xtbopt.coord
          omp threads                :                     2

   ID    Z sym.   atoms
    1    8 o      1, 4, 7, 10, 13, 16, 19, 22, 25, 28, 31, 34, 37, 40, 43,
                  46, 49, 52, 55, 58, 61, 64, 67, 70, 73, 76, 79, 82, 85, 88,
                  91, 94, 97, 100, 103, 106, 109, 112, 115, 118, 121, 124,
                  127, 130, 133, 136, 139, 142, 145, 148, 151, 154, 157, 160,
                  163, 166, 169, 172, 175, 178, 181, 184, 187, 190, 193, 196,
                  199, 202, 205, 208, 211, 214, 217, 220, 223, 226, 229, 232,
                  235, 238, 241, 244, 247, 250, 253, 256, 259, 262, 265, 268,
                  271, 274, 277, 280, 283, 286, 289, 292, 295, 298, 301, 304,
                  307, 310, 313, 316, 319, 322, 325, 328, 331, 334, 337, 340,
                  343, 346, 349, 352, 355, 358, 361, 364, 367, 370, 373, 376,
                  379, 382, 385, 388, 391, 394, 397, 400, 403, 406, 409, 412,
                  415, 418, 421, 424, 427, 430, 433, 436, 439, 442, 445, 448,
                  451, 454, 457, 460, 463, 466, 469, 472, 475, 478, 481, 484,
                  487, 490, 493, 496, 499, 502, 505, 508, 511, 514, 517, 520,
                  523, 526, 529, 532, 535, 538, 541, 544, 547, 550, 553, 556,
                  559, 562, 565, 568, 571, 574, 577, 580, 583, 586, 589, 592,
                  595, 598, 601, 604, 607, 610, 613, 616, 619, 622, 625, 628,
                  631, 634, 637, 640, 643, 646, 649, 652, 655, 658, 661, 664,
                  667, 670, 673, 676, 679, 682, 685, 688, 691, 694, 697, 700,
                  703, 706, 709, 712, 715, 718, 721, 724, 727, 730, 733, 736,
                  739, 742, 745, 748, 751, 754
    2    1 h      2, 3, 5, 6, 8, 9, 11, 12, 14, 15, 17, 18, 20, 21, 23, 24,
                  26, 27, 29, 30, 32, 33, 35, 36, 38, 39, 41, 42, 44, 45, 47,
                  48, 50, 51, 53, 54, 56, 57, 59, 60, 62, 63, 65, 66, 68, 69,
                  71, 72, 74, 75, 77, 78, 80, 81, 83, 84, 86, 87, 89, 90, 92,
                  93, 95, 96, 98, 99, 101, 102, 104, 105, 107, 108, 110, 111,
                  113, 114, 116, 117, 119, 120, 122, 123, 125, 126, 128, 129,
                  131, 132, 134, 135, 137, 138, 140, 141, 143, 144, 146, 147,
                  149, 150, 152, 153, 155, 156, 158, 159, 161, 162, 164, 165,
                  167, 168, 170, 171, 173, 174, 176, 177, 179, 180, 182, 183,
                  185, 186, 188, 189, 191, 192, 194, 195, 197, 198, 200, 201,
                  203, 204, 206, 207, 209, 210, 212, 213, 215, 216, 218, 219,
                  221, 222, 224, 225, 227, 228, 230, 231, 233, 234, 236, 237,
                  239, 240, 242, 243, 245, 246, 248, 249, 251, 252, 254, 255,
                  257, 258, 260, 261, 263, 264, 266, 267, 269, 270, 272, 273,
                  275, 276, 278, 279, 281, 282, 284, 285, 287, 288, 290, 291,
                  293, 294, 296, 297, 299, 300, 302, 303, 305, 306, 308, 309,
                  311, 312, 314, 315, 317, 318, 320, 321, 323, 324, 326, 327,
                  329, 330, 332, 333, 335, 336, 338, 339, 341, 342, 344, 345,
                  347, 348, 350, 351, 353, 354, 356, 357, 359, 360, 362, 363,
                  365, 366, 368, 369, 371, 372, 374, 375, 377, 378, 380, 381,
                  383, 384, 386, 387, 389, 390, 392, 393, 395, 396, 398, 399,
                  401, 402, 404, 405, 407, 408, 410, 411, 413, 414, 416, 417,
                  419, 420, 422, 423, 425, 426, 428, 429, 431, 432, 434, 435,
                  437, 438, 440, 441, 443, 444, 446, 447, 449, 450, 452, 453,
                  455, 456, 458, 459, 461, 462, 464, 465, 467, 468, 470, 471,
                  473, 474, 476, 477, 479, 480, 482, 483, 485, 486, 488, 489,
                  491, 492, 494, 495, 497, 498, 500, 501, 503, 504, 506, 507,
                  509, 510, 512, 513, 515, 516, 518, 519, 521, 522, 524, 525,
                  527, 528, 530, 531, 533, 534, 536, 537, 539, 540, 542, 543,
                  545, 546, 548, 549, 551, 552, 554, 555, 557, 558, 560, 561,
                  563, 564, 566, 567, 569, 570, 572, 573, 575, 576, 578, 579,
                  581, 582, 584, 585, 587, 588, 590, 591, 593, 594, 596, 597,
                  599, 600, 602, 603, 605, 606, 608, 609, 611, 612, 614, 615,
                  617, 618, 620, 621, 623, 624, 626, 627, 629, 630, 632, 633,
                  635, 636, 638, 639, 641, 642, 644, 645, 647, 648, 650, 651,
                  653, 654, 656, 657, 659, 660, 662, 663, 665, 666, 668, 669,
                  671, 672, 674, 675, 677, 678, 680, 681, 683, 684, 686, 687,
                  689, 690, 692, 693, 695, 696, 698, 699, 701, 702, 704, 705,
                  707, 708, 710, 711, 713, 714, 716, 717, 719, 720, 722, 723,
                  725, 726, 728, 729, 731, 732, 734, 735, 737, 738, 740, 741,
                  743, 744, 746, 747, 749, 750, 752, 753, 755, 756

molecular fragmentation (1/2 indicates fragments):
111222222222222222222222222222222222222222222222222222222222222222222222
222222222222222222222222222222222222222222222222222222222222222222222222
222222222222222222222222222222222222222222222222222222222222222222222222
222222222222222222222222222222222222222222222222222222222222222222222222
222222222222222222222222222222222222222222222222222222222222222222222222
222222222222222222222222222222222222222222222222222222222222222222222222
222222222222222222222222222222222222222222222222222222222222222222222222
222222222222222222222222222222222222222222222222222222222222222222222222
222222222222222222222222222222222222222222222222222222222222222222222222
222222222222222222222222222222222222222222222222222222222222222222222222
222222222222222222222222222222222222
# atoms in fragment 1/2:     3   753
 fragment masses (1/2) :       18.02     4521.84
CMA distance (Bohr)    :  16.778
constraining FC (au)   :  0.0500

           -------------------------------------------------
          |                 G F N 2 - x T B                 |
           -------------------------------------------------

        Reference                      10.1021/acs.jctc.8b01176
      * Hamiltonian:
        H0-scaling (s, p, d)           1.850000    2.230000    2.230000
        zeta-weighting                 0.500000
      * Dispersion:
        s8                             2.700000
        a1                             0.520000
        a2                             5.000000
        s9                             5.000000
      * Repulsion:
        kExp                           1.500000    1.000000
        rExp                           1.000000
      * Coulomb:
        alpha                          2.000000
        third order                    shell-resolved
        anisotropic                    true
        a3                             3.000000
        a5                             4.000000
        cn-shift                       1.200000
        cn-exp                         4.000000
        max-rad                        5.000000

      * Solvation model:               GBSA
        Solvent                        water
        Parameter file                 internal GFN2-xTB/GBSA
        Dielectric constant                8.0200E+01
        Reference state                gsolv [1 M gas/solution]
        Free energy shift                  1.8574E-03 Eh       1.1656E+00 kcal/mol
        Temperature                        2.9815E+02 K
        Density                            1.0000E+00 kg/L
        Solvent mass                       1.8000E+01 g/mol
        Interaction kernel             Still
        Born radius scaling (c1)           1.5524E+00
        Born radii integrator          GBOBC
        Born offset                        2.4628E-02 a0       4.6540E-02 AA
        H-bond correction              true
        Ion screening                  false
        Surface tension                    1.0000E-05 Eh       1.5569E+01 dyn/cm
        Grid points                               230 per atom

          ...................................................
          :                      SETUP                      :
          :.................................................:
          :  # basis functions                1512          :
          :  # atomic orbitals                1512          :
          :  # shells                         1008          :
          :  # electrons                      2016          :
          :  max. iterations                   250          :
          :  Hamiltonian                  GFN2-xTB          :
          :  restarted?                      false          :
          :  GBSA solvation                   true          :
          :  PC potential                    false          :
          :  electronic temp.          300.0000000     K    :
          :  accuracy                    1.0000000          :
          :  -> integral cutoff          0.2500000E+02      :
          :  -> integral neglect         0.1000000E-07      :
          :  -> SCF convergence          0.1000000E-05 Eh   :
          :  -> wf. convergence          0.1000000E-03 e    :
          :  Broyden damping             0.4000000          :
          ...................................................

 iter      E             dE          RMSdq      gap      omega  full diag
   1  -1291.2195116 -0.129122E+04  0.408E+00    8.40       0.0  T
   2  -1291.3026078 -0.830962E-01  0.242E+00    7.90       1.0  T
   3  -1291.3380769 -0.354691E-01  0.223E-01    6.83       1.0  T
   4  -1291.3434881 -0.541126E-02  0.478E-02    7.10       1.0  T
   5  -1291.3436432 -0.155018E-03  0.310E-02    7.05       1.0  T
   6  -1291.3436911 -0.479233E-04  0.386E-03    7.06       1.0  T
   7  -1291.3436929 -0.178593E-05  0.964E-04    7.06       3.8  T
   8  -1291.3436930 -0.103482E-06  0.465E-04    7.06       7.8  T
   9  -1291.3436930 -0.341779E-07  0.133E-04    7.06      27.3  T

   *** convergence criteria satisfied after 9 iterations ***

         #    Occupation            Energy/Eh            Energy/eV
      -------------------------------------------------------------
         1        2.0000           -0.6540674             -17.7981
       ...           ...                  ...                  ...
      1002        2.0000           -0.3319082              -9.0317
      1003        2.0000           -0.3310368              -9.0080
      1004        2.0000           -0.3304900              -8.9931
      1005        2.0000           -0.3276834              -8.9167
      1006        2.0000           -0.3231727              -8.7940
      1007        2.0000           -0.3180971              -8.6559
      1008        2.0000           -0.3098644              -8.4318 (HOMO)
      1009                         -0.0505058              -1.3743 (LUMO)
      1010                         -0.0433560              -1.1798
      1011                         -0.0323031              -0.8790
      1012                         -0.0294990              -0.8027
      1013                         -0.0241534              -0.6572
       ...                                ...                  ...
      1512                          0.5192009              14.1282
      -------------------------------------------------------------
                  HL-Gap            0.2593586 Eh            7.0575 eV
             Fermi-level           -0.1801851 Eh           -4.9031 eV

 SCC (total)                   0 d,  0 h,  0 min, 19.851 sec
 SCC setup                      ...        0 min,  0.117 sec (  0.588%)
 Dispersion                     ...        0 min,  0.109 sec (  0.548%)
 classical contributions        ...        0 min,  0.023 sec (  0.118%)
 integral evaluation            ...        0 min,  0.592 sec (  2.982%)
 iterations                     ...        0 min,  6.446 sec ( 32.472%)
 molecular gradient             ...        0 min, 12.499 sec ( 62.965%)
 printout                       ...        0 min,  0.065 sec (  0.328%)

         :::::::::::::::::::::::::::::::::::::::::::::::::::::
         ::                     SUMMARY                     ::
         :::::::::::::::::::::::::::::::::::::::::::::::::::::
         :: total energy           -1283.561547308355 Eh    ::
         :: total w/o Gsasa/hb     -1283.326534667107 Eh    ::
         :: gradient norm              0.116127422660 Eh/a0 ::
         :: HOMO-LUMO gap              7.057506683532 eV    ::
         ::.................................................::
         :: SCC energy             -1291.343693012071 Eh    ::
         :: -> isotropic ES            7.346119984458 Eh    ::
         :: -> anisotropic ES         -1.638514240508 Eh    ::
         :: -> anisotropic XC         -0.120892749323 Eh    ::
         :: -> dispersion             -0.798040205293 Eh    ::
         :: -> Gsolv                  -0.264417854628 Eh    ::
         ::    -> Gelec               -0.029405213379 Eh    ::
         ::    -> Gsasa                0.004644749444 Eh    ::
         ::    -> Ghb                 -0.241514833819 Eh    ::
         ::    -> Gshift               0.001857443127 Eh    ::
         :: repulsion energy           7.624626916819 Eh    ::
         :: add. restraining           0.000000000000 Eh    ::
         :: total charge              -0.000000000000 e     ::
         :::::::::::::::::::::::::::::::::::::::::::::::::::::

           -------------------------------------------------
          |                Property Printout                |
           -------------------------------------------------

    * Orbital Energies and Occupations

         #    Occupation            Energy/Eh            Energy/eV
      -------------------------------------------------------------
         1        2.0000           -0.6540674             -17.7981
       ...           ...                  ...                  ...
       996        2.0000           -0.3389420              -9.2231
       997        2.0000           -0.3374183              -9.1816
       998        2.0000           -0.3359918              -9.1428
       999        2.0000           -0.3345097              -9.1025
      1000        2.0000           -0.3340006              -9.0886
      1001        2.0000           -0.3339025              -9.0860
      1002        2.0000           -0.3319082              -9.0317
      1003        2.0000           -0.3310368              -9.0080
      1004        2.0000           -0.3304900              -8.9931
      1005        2.0000           -0.3276834              -8.9167
      1006        2.0000           -0.3231727              -8.7940
      1007        2.0000           -0.3180971              -8.6559
      1008        2.0000           -0.3098644              -8.4318 (HOMO)
      1009                         -0.0505058              -1.3743 (LUMO)
      1010                         -0.0433560              -1.1798
      1011                         -0.0323031              -0.8790
      1012                         -0.0294990              -0.8027
      1013                         -0.0241534              -0.6572
      1014                         -0.0182313              -0.4961
      1015                         -0.0174989              -0.4762
      1016                         -0.0059754              -0.1626
      1017                         -0.0050895              -0.1385
      1018                         -0.0028969              -0.0788
      1019                          0.0026172               0.0712
       ...                                ...                  ...
      1512                          0.5192009              14.1282
      -------------------------------------------------------------
                  HL-Gap            0.2593586 Eh            7.0575 eV
             Fermi-level           -0.1801851 Eh           -4.9031 eV

     #   Z          covCN         q      C6AA      α(0)
     1   8 o        1.607    -0.685    27.311     7.053
     2   1 h        0.803     0.349     0.590     1.207
     3   1 h        0.803     0.336     0.623     1.240
     4   8 o        1.604    -0.710    27.972     7.138
     5   1 h        0.804     0.351     0.585     1.201
     6   1 h        0.803     0.344     0.603     1.220
     7   8 o        1.608    -0.683    27.256     7.046
     8   1 h        0.803     0.347     0.594     1.211
     9   1 h        0.805     0.325     0.651     1.267
    10   8 o        1.608    -0.678    27.122     7.029
    11   1 h        0.804     0.353     0.580     1.197
    12   1 h        0.804     0.339     0.616     1.233
    13   8 o        1.607    -0.691    27.483     7.075
    14   1 h        0.804     0.344     0.602     1.219
    15   1 h        0.803     0.343     0.606     1.223
    16   8 o        1.607    -0.684    27.298     7.052
    17   1 h        0.804     0.331     0.634     1.251
    18   1 h        0.803     0.358     0.570     1.186
    19   8 o        1.608    -0.660    26.668     6.970
    20   1 h        0.803     0.335     0.624     1.241
    21   1 h        0.805     0.344     0.603     1.219
    22   8 o        1.607    -0.686    27.346     7.058
    23   1 h        0.804     0.336     0.623     1.240
    24   1 h        0.804     0.332     0.633     1.250
    25   8 o        1.608    -0.699    27.676     7.100
    26   1 h        0.804     0.339     0.614     1.231
    27   1 h        0.804     0.333     0.629     1.246
    28   8 o        1.606    -0.703    27.779     7.113
    29   1 h        0.804     0.333     0.631     1.248
    30   1 h        0.802     0.362     0.560     1.176
    31   8 o        1.606    -0.701    27.736     7.108
    32   1 h        0.804     0.338     0.617     1.234
    33   1 h        0.803     0.353     0.582     1.199
    34   8 o        1.606    -0.696    27.616     7.092
    35   1 h        0.803     0.353     0.582     1.199
    36   1 h        0.803     0.353     0.581     1.197
    37   8 o        1.607    -0.679    27.146     7.032
    38   1 h        0.804     0.340     0.611     1.228
    39   1 h        0.803     0.351     0.585     1.202
    40   8 o        1.608    -0.696    27.596     7.090
    41   1 h        0.804     0.340     0.612     1.229
    42   1 h        0.804     0.337     0.620     1.237
    43   8 o        1.607    -0.690    27.443     7.070
    44   1 h        0.803     0.342     0.607     1.224
    45   1 h        0.804     0.339     0.614     1.231
    46   8 o        1.607    -0.689    27.428     7.068
    47   1 h        0.804     0.350     0.589     1.205
    48   1 h        0.803     0.352     0.585     1.201
    49   8 o        1.607    -0.700    27.715     7.105
    50   1 h        0.804     0.334     0.628     1.245
    51   1 h        0.803     0.339     0.614     1.231
    52   8 o        1.607    -0.681    27.208     7.040
    53   1 h        0.803     0.334     0.628     1.245
    54   1 h        0.803     0.342     0.607     1.224
    55   8 o        1.607    -0.686    27.331     7.056
    56   1 h        0.803     0.337     0.620     1.237
    57   1 h        0.804     0.335     0.625     1.241
    58   8 o        1.607    -0.667    26.852     6.994
    59   1 h        0.804     0.334     0.626     1.243
    60   1 h        0.803     0.344     0.604     1.221
    61   8 o        1.608    -0.681    27.222     7.042
    62   1 h        0.804     0.338     0.618     1.234
    63   1 h        0.804     0.337     0.620     1.237
    64   8 o        1.607    -0.688    27.401     7.065
    65   1 h        0.804     0.351     0.586     1.203
    66   1 h        0.804     0.340     0.613     1.230
    67   8 o        1.610    -0.683    27.250     7.046
    68   1 h        0.804     0.342     0.608     1.225
    69   1 h        0.804     0.342     0.607     1.224
    70   8 o        1.605    -0.703    27.805     7.117
    71   1 h        0.801     0.362     0.561     1.177
    72   1 h        0.803     0.339     0.615     1.232
    73   8 o        1.608    -0.677    27.111     7.027
    74   1 h        0.804     0.339     0.615     1.232
    75   1 h        0.804     0.337     0.621     1.237
    76   8 o        1.607    -0.695    27.572     7.087
    77   1 h        0.804     0.342     0.606     1.223
    78   1 h        0.803     0.351     0.587     1.204
    79   8 o        1.608    -0.692    27.500     7.078
    80   1 h        0.803     0.358     0.569     1.185
    81   1 h        0.805     0.338     0.618     1.235
    82   8 o        1.608    -0.678    27.129     7.030
    83   1 h        0.805     0.346     0.597     1.214
    84   1 h        0.803     0.351     0.586     1.202
    85   8 o        1.607    -0.689    27.424     7.068
    86   1 h        0.803     0.350     0.589     1.206
    87   1 h        0.804     0.352     0.584     1.200
    88   8 o        1.608    -0.693    27.514     7.079
    89   1 h        0.804     0.346     0.598     1.214
    90   1 h        0.803     0.356     0.575     1.192
    91   8 o        1.607    -0.666    26.826     6.990
    92   1 h        0.804     0.327     0.644     1.261
    93   1 h        0.804     0.332     0.632     1.248
    94   8 o        1.609    -0.698    27.647     7.097
    95   1 h        0.805     0.338     0.618     1.235
    96   1 h        0.805     0.359     0.569     1.184
    97   8 o        1.608    -0.677    27.101     7.026
    98   1 h        0.804     0.325     0.650     1.267
    99   1 h        0.804     0.351     0.585     1.202
   100   8 o        1.609    -0.679    27.155     7.033
   101   1 h        0.804     0.323     0.655     1.271
   102   1 h        0.804     0.339     0.615     1.231
   103   8 o        1.605    -0.710    27.967     7.137
   104   1 h        0.804     0.345     0.601     1.217
   105   1 h        0.803     0.357     0.572     1.189
   106   8 o        1.609    -0.674    27.017     7.015
   107   1 h        0.805     0.329     0.640     1.257
   108   1 h        0.805     0.336     0.622     1.239
   109   8 o        1.609    -0.670    26.931     7.004
   110   1 h        0.803     0.364     0.556     1.172
   111   1 h        0.806     0.309     0.694     1.308
   112   8 o        1.608    -0.666    26.832     6.991
   113   1 h        0.804     0.325     0.650     1.267
   114   1 h        0.804     0.348     0.593     1.210
   115   8 o        1.605    -0.704    27.830     7.120
   116   1 h        0.804     0.337     0.619     1.236
   117   1 h        0.802     0.362     0.562     1.178
   118   8 o        1.606    -0.706    27.869     7.125
   119   1 h        0.803     0.357     0.572     1.188
   120   1 h        0.803     0.347     0.594     1.211
   121   8 o        1.610    -0.661    26.681     6.972
   122   1 h        0.805     0.321     0.661     1.277
   123   1 h        0.805     0.342     0.608     1.225
   124   8 o        1.608    -0.694    27.546     7.084
   125   1 h        0.804     0.342     0.607     1.223
   126   1 h        0.804     0.330     0.637     1.254
   127   8 o        1.607    -0.688    27.406     7.065
   128   1 h        0.804     0.327     0.646     1.263
   129   1 h        0.804     0.331     0.636     1.253
   130   8 o        1.608    -0.690    27.447     7.071
   131   1 h        0.804     0.336     0.623     1.239
   132   1 h        0.804     0.363     0.560     1.175
   133   8 o        1.610    -0.664    26.773     6.983
   134   1 h        0.805     0.323     0.655     1.271
   135   1 h        0.805     0.321     0.660     1.276
   136   8 o        1.608    -0.679    27.156     7.033
   137   1 h        0.804     0.323     0.655     1.271
   138   1 h        0.804     0.316     0.676     1.292
   139   8 o        1.608    -0.665    26.793     6.986
   140   1 h        0.803     0.340     0.613     1.230
   141   1 h        0.804     0.345     0.601     1.217
   142   8 o        1.609    -0.646    26.307     6.923
   143   1 h        0.806     0.321     0.660     1.276
   144   1 h        0.804     0.344     0.602     1.219
   145   8 o        1.608    -0.693    27.518     7.080
   146   1 h        0.804     0.344     0.603     1.220
   147   1 h        0.804     0.336     0.621     1.238
   148   8 o        1.608    -0.678    27.125     7.029
   149   1 h        0.804     0.344     0.601     1.218
   150   1 h        0.804     0.343     0.605     1.222
   151   8 o        1.611    -0.678    27.120     7.029
   152   1 h        0.804     0.341     0.610     1.227
   153   1 h        0.804     0.344     0.602     1.218
   154   8 o        1.606    -0.696    27.608     7.091
   155   1 h        0.804     0.327     0.645     1.261
   156   1 h        0.802     0.350     0.589     1.206
   157   8 o        1.608    -0.694    27.542     7.083
   158   1 h        0.804     0.346     0.597     1.213
   159   1 h        0.804     0.350     0.588     1.204
   160   8 o        1.610    -0.657    26.598     6.961
   161   1 h        0.806     0.317     0.673     1.288
   162   1 h        0.804     0.357     0.573     1.189
   163   8 o        1.607    -0.687    27.360     7.059
   164   1 h        0.804     0.341     0.610     1.227
   165   1 h        0.803     0.362     0.562     1.177
   166   8 o        1.608    -0.691    27.472     7.074
   167   1 h        0.804     0.345     0.600     1.217
   168   1 h        0.803     0.362     0.561     1.177
   169   8 o        1.608    -0.677    27.115     7.028
   170   1 h        0.805     0.338     0.617     1.234
   171   1 h        0.803     0.351     0.586     1.203
   172   8 o        1.608    -0.678    27.133     7.030
   173   1 h        0.803     0.353     0.582     1.198
   174   1 h        0.805     0.318     0.669     1.285
   175   8 o        1.607    -0.687    27.359     7.059
   176   1 h        0.804     0.351     0.586     1.202
   177   1 h        0.803     0.354     0.578     1.195
   178   8 o        1.609    -0.700    27.703     7.104
   179   1 h        0.805     0.346     0.597     1.214
   180   1 h        0.804     0.338     0.617     1.234
   181   8 o        1.603    -0.695    27.589     7.089
   182   1 h        0.803     0.334     0.627     1.244
   183   1 h        0.802     0.350     0.589     1.206
   184   8 o        1.607    -0.681    27.212     7.040
   185   1 h        0.802     0.349     0.590     1.207
   186   1 h        0.805     0.325     0.652     1.268
   187   8 o        1.609    -0.674    27.039     7.018
   188   1 h        0.804     0.349     0.591     1.207
   189   1 h        0.805     0.339     0.613     1.230
   190   8 o        1.607    -0.672    26.973     7.009
   191   1 h        0.804     0.349     0.591     1.207
   192   1 h        0.803     0.326     0.647     1.263
   193   8 o        1.609    -0.663    26.751     6.981
   194   1 h        0.805     0.332     0.633     1.250
   195   1 h        0.804     0.339     0.615     1.232
   196   8 o        1.608    -0.675    27.065     7.021
   197   1 h        0.805     0.333     0.629     1.246
   198   1 h        0.803     0.341     0.610     1.227
   199   8 o        1.609    -0.677    27.103     7.026
   200   1 h        0.804     0.352     0.583     1.199
   201   1 h        0.804     0.362     0.562     1.177
   202   8 o        1.610    -0.652    26.471     6.944
   203   1 h        0.805     0.320     0.663     1.279
   204   1 h        0.805     0.341     0.610     1.227
   205   8 o        1.609    -0.669    26.893     6.999
   206   1 h        0.805     0.329     0.639     1.255
   207   1 h        0.804     0.346     0.598     1.215
   208   8 o        1.607    -0.683    27.265     7.047
   209   1 h        0.802     0.368     0.547     1.162
   210   1 h        0.806     0.314     0.681     1.296
   211   8 o        1.609    -0.664    26.767     6.983
   212   1 h        0.803     0.363     0.559     1.174
   213   1 h        0.805     0.319     0.666     1.282
   214   8 o        1.607    -0.696    27.616     7.092
   215   1 h        0.804     0.344     0.603     1.220
   216   1 h        0.803     0.345     0.600     1.217
   217   8 o        1.607    -0.692    27.497     7.077
   218   1 h        0.804     0.338     0.616     1.233
   219   1 h        0.804     0.353     0.581     1.197
   220   8 o        1.607    -0.670    26.930     7.004
   221   1 h        0.804     0.320     0.663     1.279
   222   1 h        0.803     0.348     0.592     1.209
   223   8 o        1.608    -0.693    27.515     7.079
   224   1 h        0.803     0.360     0.567     1.183
   225   1 h        0.805     0.333     0.629     1.246
   226   8 o        1.610    -0.663    26.746     6.980
   227   1 h        0.805     0.335     0.625     1.242
   228   1 h        0.805     0.331     0.634     1.250
   229   8 o        1.608    -0.683    27.250     7.045
   230   1 h        0.805     0.334     0.626     1.243
   231   1 h        0.803     0.364     0.558     1.173
   232   8 o        1.609    -0.680    27.175     7.036
   233   1 h        0.804     0.324     0.652     1.268
   234   1 h        0.804     0.337     0.619     1.236
   235   8 o        1.608    -0.663    26.754     6.981
   236   1 h        0.805     0.321     0.661     1.277
   237   1 h        0.803     0.353     0.581     1.198
   238   8 o        1.604    -0.717    28.157     7.162
   239   1 h        0.803     0.342     0.608     1.225
   240   1 h        0.801     0.359     0.568     1.184
   241   8 o        1.607    -0.672    26.990     7.012
   242   1 h        0.802     0.332     0.632     1.248
   243   1 h        0.805     0.330     0.637     1.254
   244   8 o        1.607    -0.677    27.099     7.026
   245   1 h        0.804     0.326     0.647     1.264
   246   1 h        0.803     0.358     0.571     1.187
   247   8 o        1.609    -0.654    26.508     6.949
   248   1 h        0.804     0.346     0.598     1.214
   249   1 h        0.805     0.329     0.639     1.256
   250   8 o        1.608    -0.674    27.018     7.015
   251   1 h        0.803     0.346     0.599     1.216
   252   1 h        0.805     0.318     0.668     1.284
   253   8 o        1.606    -0.693    27.530     7.081
   254   1 h        0.802     0.354     0.579     1.196
   255   1 h        0.803     0.350     0.589     1.205
   256   8 o        1.606    -0.689    27.422     7.068
   257   1 h        0.802     0.366     0.553     1.168
   258   1 h        0.805     0.317     0.672     1.287
   259   8 o        1.607    -0.686    27.337     7.057
   260   1 h        0.805     0.326     0.649     1.265
   261   1 h        0.802     0.353     0.581     1.198
   262   8 o        1.609    -0.691    27.474     7.074
   263   1 h        0.804     0.346     0.597     1.214
   264   1 h        0.804     0.343     0.604     1.221
   265   8 o        1.605    -0.696    27.610     7.092
   266   1 h        0.803     0.333     0.630     1.247
   267   1 h        0.803     0.360     0.566     1.182
   268   8 o        1.609    -0.658    26.630     6.965
   269   1 h        0.804     0.346     0.597     1.214
   270   1 h        0.806     0.313     0.683     1.298
   271   8 o        1.607    -0.688    27.400     7.065
   272   1 h        0.803     0.361     0.564     1.180
   273   1 h        0.804     0.335     0.624     1.240
   274   8 o        1.606    -0.669    26.899     7.000
   275   1 h        0.804     0.334     0.628     1.245
   276   1 h        0.802     0.333     0.629     1.246
   277   8 o        1.607    -0.682    27.233     7.043
   278   1 h        0.802     0.364     0.557     1.172
   279   1 h        0.805     0.325     0.651     1.267
   280   8 o        1.609    -0.664    26.762     6.982
   281   1 h        0.805     0.348     0.593     1.210
   282   1 h        0.804     0.327     0.644     1.261
   283   8 o        1.607    -0.660    26.663     6.969
   284   1 h        0.806     0.313     0.684     1.299
   285   1 h        0.802     0.348     0.593     1.210
   286   8 o        1.608    -0.681    27.204     7.039
   287   1 h        0.805     0.326     0.648     1.265
   288   1 h        0.804     0.342     0.606     1.223
   289   8 o        1.606    -0.682    27.229     7.043
   290   1 h        0.805     0.310     0.691     1.306
   291   1 h        0.802     0.365     0.554     1.169
   292   8 o        1.607    -0.676    27.089     7.024
   293   1 h        0.802     0.357     0.572     1.188
   294   1 h        0.806     0.315     0.677     1.292
   295   8 o        1.609    -0.671    26.938     7.005
   296   1 h        0.805     0.331     0.634     1.251
   297   1 h        0.805     0.332     0.632     1.249
   298   8 o        1.606    -0.696    27.596     7.090
   299   1 h        0.804     0.339     0.614     1.231
   300   1 h        0.803     0.331     0.636     1.253
   301   8 o        1.610    -0.667    26.852     6.994
   302   1 h        0.805     0.351     0.585     1.202
   303   1 h        0.805     0.316     0.676     1.291
   304   8 o        1.608    -0.696    27.593     7.090
   305   1 h        0.803     0.357     0.572     1.188
   306   1 h        0.805     0.325     0.651     1.267
   307   8 o        1.609    -0.672    26.965     7.008
   308   1 h        0.804     0.338     0.616     1.233
   309   1 h        0.804     0.341     0.610     1.226
   310   8 o        1.609    -0.673    26.989     7.012
   311   1 h        0.804     0.347     0.595     1.211
   312   1 h        0.805     0.323     0.656     1.272
   313   8 o        1.607    -0.683    27.273     7.048
   314   1 h        0.803     0.335     0.625     1.242
   315   1 h        0.803     0.367     0.550     1.165
   316   8 o        1.610    -0.651    26.427     6.938
   317   1 h        0.805     0.336     0.622     1.239
   318   1 h        0.805     0.343     0.604     1.221
   319   8 o        1.607    -0.682    27.249     7.045
   320   1 h        0.803     0.345     0.600     1.217
   321   1 h        0.804     0.323     0.655     1.271
   322   8 o        1.607    -0.672    26.983     7.011
   323   1 h        0.803     0.327     0.646     1.263
   324   1 h        0.804     0.356     0.576     1.192
   325   8 o        1.605    -0.704    27.815     7.118
   326   1 h        0.803     0.347     0.596     1.213
   327   1 h        0.804     0.357     0.571     1.187
   328   8 o        1.606    -0.695    27.592     7.089
   329   1 h        0.803     0.326     0.648     1.265
   330   1 h        0.803     0.366     0.552     1.167
   331   8 o        1.609    -0.676    27.069     7.022
   332   1 h        0.805     0.330     0.637     1.253
   333   1 h        0.804     0.345     0.599     1.216
   334   8 o        1.608    -0.673    26.990     7.012
   335   1 h        0.804     0.324     0.654     1.271
   336   1 h        0.804     0.341     0.609     1.226
   337   8 o        1.607    -0.690    27.438     7.070
   338   1 h        0.803     0.357     0.573     1.189
   339   1 h        0.804     0.350     0.589     1.205
   340   8 o        1.606    -0.671    26.956     7.007
   341   1 h        0.806     0.315     0.676     1.292
   342   1 h        0.801     0.352     0.585     1.201
   343   8 o        1.604    -0.696    27.595     7.090
   344   1 h        0.802     0.361     0.564     1.180
   345   1 h        0.802     0.348     0.594     1.211
   346   8 o        1.608    -0.679    27.148     7.032
   347   1 h        0.804     0.355     0.576     1.192
   348   1 h        0.804     0.329     0.641     1.258
   349   8 o        1.609    -0.663    26.740     6.979
   350   1 h        0.804     0.324     0.652     1.269
   351   1 h        0.804     0.347     0.595     1.212
   352   8 o        1.608    -0.684    27.280     7.049
   353   1 h        0.805     0.318     0.668     1.284
   354   1 h        0.802     0.353     0.581     1.198
   355   8 o        1.610    -0.634    26.021     6.885
   356   1 h        0.805     0.333     0.631     1.247
   357   1 h        0.805     0.321     0.661     1.277
   358   8 o        1.607    -0.682    27.245     7.045
   359   1 h        0.804     0.319     0.666     1.281
   360   1 h        0.803     0.356     0.574     1.190
   361   8 o        1.606    -0.690    27.439     7.070
   362   1 h        0.803     0.342     0.607     1.224
   363   1 h        0.804     0.334     0.628     1.245
   364   8 o        1.608    -0.684    27.298     7.052
   365   1 h        0.804     0.351     0.587     1.203
   366   1 h        0.803     0.344     0.604     1.220
   367   8 o        1.605    -0.705    27.855     7.123
   368   1 h        0.803     0.361     0.564     1.180
   369   1 h        0.803     0.355     0.577     1.194
   370   8 o        1.607    -0.693    27.516     7.080
   371   1 h        0.805     0.324     0.653     1.269
   372   1 h        0.802     0.350     0.589     1.206
   373   8 o        1.610    -0.651    26.447     6.941
   374   1 h        0.805     0.332     0.631     1.248
   375   1 h        0.805     0.339     0.615     1.232
   376   8 o        1.607    -0.669    26.913     7.002
   377   1 h        0.804     0.341     0.611     1.228
   378   1 h        0.803     0.330     0.638     1.255
   379   8 o        1.602    -0.714    28.083     7.152
   380   1 h        0.802     0.355     0.576     1.192
   381   1 h        0.802     0.340     0.613     1.230
   382   8 o        1.607    -0.682    27.232     7.043
   383   1 h        0.804     0.343     0.604     1.221
   384   1 h        0.803     0.334     0.626     1.243
   385   8 o        1.607    -0.675    27.051     7.020
   386   1 h        0.806     0.315     0.676     1.292
   387   1 h        0.802     0.357     0.573     1.189
   388   8 o        1.607    -0.671    26.947     7.006
   389   1 h        0.803     0.358     0.570     1.186
   390   1 h        0.804     0.337     0.620     1.237
   391   8 o        1.609    -0.685    27.309     7.053
   392   1 h        0.804     0.357     0.572     1.188
   393   1 h        0.805     0.323     0.656     1.273
   394   8 o        1.609    -0.670    26.937     7.005
   395   1 h        0.805     0.329     0.640     1.257
   396   1 h        0.804     0.334     0.628     1.245
   397   8 o        1.608    -0.675    27.054     7.020
   398   1 h        0.803     0.348     0.594     1.211
   399   1 h        0.805     0.319     0.667     1.283
   400   8 o        1.605    -0.711    28.009     7.143
   401   1 h        0.803     0.342     0.608     1.225
   402   1 h        0.803     0.340     0.612     1.229
   403   8 o        1.609    -0.678    27.140     7.031
   404   1 h        0.804     0.331     0.635     1.252
   405   1 h        0.804     0.344     0.603     1.220
   406   8 o        1.605    -0.702    27.776     7.113
   407   1 h        0.802     0.344     0.602     1.219
   408   1 h        0.803     0.358     0.570     1.186
   409   8 o        1.607    -0.678    27.135     7.030
   410   1 h        0.804     0.332     0.632     1.249
   411   1 h        0.803     0.371     0.542     1.156
   412   8 o        1.608    -0.682    27.224     7.042
   413   1 h        0.804     0.354     0.579     1.195
   414   1 h        0.805     0.345     0.601     1.218
   415   8 o        1.607    -0.681    27.203     7.039
   416   1 h        0.805     0.322     0.659     1.276
   417   1 h        0.802     0.355     0.576     1.192
   418   8 o        1.607    -0.682    27.230     7.043
   419   1 h        0.802     0.371     0.542     1.157
   420   1 h        0.805     0.319     0.666     1.282
   421   8 o        1.609    -0.681    27.212     7.041
   422   1 h        0.804     0.351     0.587     1.203
   423   1 h        0.804     0.361     0.563     1.178
   424   8 o        1.606    -0.694    27.552     7.084
   425   1 h        0.803     0.334     0.628     1.245
   426   1 h        0.803     0.360     0.566     1.182
   427   8 o        1.608    -0.667    26.859     6.995
   428   1 h        0.805     0.346     0.599     1.215
   429   1 h        0.803     0.329     0.641     1.258
   430   8 o        1.609    -0.675    27.066     7.022
   431   1 h        0.804     0.341     0.609     1.226
   432   1 h        0.805     0.320     0.665     1.281
   433   8 o        1.606    -0.681    27.217     7.041
   434   1 h        0.804     0.326     0.647     1.264
   435   1 h        0.802     0.357     0.573     1.189
   436   8 o        1.608    -0.671    26.960     7.008
   437   1 h        0.803     0.343     0.606     1.223
   438   1 h        0.805     0.319     0.666     1.282
   439   8 o        1.609    -0.642    26.216     6.911
   440   1 h        0.805     0.318     0.668     1.284
   441   1 h        0.804     0.340     0.613     1.229
   442   8 o        1.606    -0.704    27.811     7.117
   443   1 h        0.803     0.357     0.572     1.188
   444   1 h        0.804     0.342     0.607     1.223
   445   8 o        1.606    -0.697    27.637     7.095
   446   1 h        0.805     0.329     0.640     1.257
   447   1 h        0.802     0.353     0.582     1.199
   448   8 o        1.608    -0.656    26.575     6.958
   449   1 h        0.803     0.334     0.626     1.243
   450   1 h        0.803     0.338     0.617     1.234
   451   8 o        1.605    -0.675    27.049     7.019
   452   1 h        0.803     0.331     0.634     1.251
   453   1 h        0.803     0.330     0.638     1.255
   454   8 o        1.609    -0.656    26.577     6.958
   455   1 h        0.803     0.340     0.613     1.230
   456   1 h        0.805     0.335     0.624     1.241
   457   8 o        1.607    -0.677    27.098     7.026
   458   1 h        0.804     0.336     0.622     1.239
   459   1 h        0.803     0.362     0.561     1.177
   460   8 o        1.607    -0.694    27.548     7.084
   461   1 h        0.803     0.353     0.581     1.197
   462   1 h        0.804     0.345     0.601     1.218
   463   8 o        1.610    -0.659    26.653     6.968
   464   1 h        0.805     0.334     0.627     1.244
   465   1 h        0.805     0.342     0.607     1.223
   466   8 o        1.608    -0.659    26.632     6.965
   467   1 h        0.804     0.336     0.621     1.238
   468   1 h        0.803     0.338     0.617     1.234
   469   8 o        1.609    -0.666    26.834     6.991
   470   1 h        0.805     0.325     0.650     1.266
   471   1 h        0.804     0.345     0.600     1.217
   472   8 o        1.608    -0.684    27.279     7.049
   473   1 h        0.804     0.344     0.604     1.220
   474   1 h        0.805     0.335     0.626     1.243
   475   8 o        1.607    -0.670    26.922     7.003
   476   1 h        0.805     0.331     0.635     1.252
   477   1 h        0.802     0.369     0.547     1.162
   478   8 o        1.607    -0.686    27.350     7.058
   479   1 h        0.804     0.339     0.614     1.231
   480   1 h        0.803     0.334     0.628     1.245
   481   8 o        1.607    -0.691    27.469     7.074
   482   1 h        0.804     0.328     0.642     1.259
   483   1 h        0.803     0.351     0.587     1.204
   484   8 o        1.608    -0.647    26.335     6.926
   485   1 h        0.805     0.326     0.647     1.264
   486   1 h        0.803     0.337     0.621     1.238
   487   8 o        1.606    -0.696    27.614     7.092
   488   1 h        0.801     0.364     0.557     1.172
   489   1 h        0.805     0.320     0.664     1.280
   490   8 o        1.608    -0.672    26.980     7.010
   491   1 h        0.805     0.335     0.626     1.243
   492   1 h        0.803     0.336     0.622     1.239
   493   8 o        1.608    -0.653    26.481     6.945
   494   1 h        0.806     0.307     0.700     1.314
   495   1 h        0.802     0.352     0.584     1.201
   496   8 o        1.607    -0.671    26.959     7.008
   497   1 h        0.806     0.312     0.687     1.302
   498   1 h        0.802     0.357     0.572     1.189
   499   8 o        1.607    -0.660    26.665     6.969
   500   1 h        0.806     0.311     0.689     1.303
   501   1 h        0.802     0.356     0.576     1.192
   502   8 o        1.609    -0.666    26.818     6.989
   503   1 h        0.805     0.333     0.630     1.247
   504   1 h        0.805     0.339     0.615     1.232
   505   8 o        1.607    -0.695    27.580     7.088
   506   1 h        0.802     0.360     0.565     1.181
   507   1 h        0.805     0.319     0.667     1.283
   508   8 o        1.608    -0.677    27.108     7.027
   509   1 h        0.804     0.342     0.607     1.224
   510   1 h        0.803     0.356     0.574     1.190
   511   8 o        1.609    -0.666    26.823     6.990
   512   1 h        0.805     0.335     0.625     1.242
   513   1 h        0.804     0.342     0.607     1.224
   514   8 o        1.609    -0.682    27.245     7.045
   515   1 h        0.805     0.335     0.625     1.241
   516   1 h        0.804     0.340     0.611     1.228
   517   8 o        1.607    -0.675    27.055     7.020
   518   1 h        0.803     0.330     0.637     1.253
   519   1 h        0.804     0.333     0.629     1.246
   520   8 o        1.606    -0.671    26.960     7.008
   521   1 h        0.804     0.325     0.650     1.266
   522   1 h        0.802     0.337     0.619     1.236
   523   8 o        1.609    -0.648    26.354     6.929
   524   1 h        0.803     0.345     0.600     1.217
   525   1 h        0.806     0.301     0.719     1.332
   526   8 o        1.607    -0.676    27.082     7.024
   527   1 h        0.803     0.350     0.589     1.206
   528   1 h        0.805     0.322     0.658     1.274
   529   8 o        1.609    -0.672    26.964     7.008
   530   1 h        0.805     0.349     0.591     1.208
   531   1 h        0.804     0.325     0.650     1.266
   532   8 o        1.606    -0.687    27.382     7.062
   533   1 h        0.805     0.323     0.656     1.272
   534   1 h        0.802     0.369     0.546     1.161
   535   8 o        1.606    -0.666    26.819     6.989
   536   1 h        0.806     0.309     0.695     1.309
   537   1 h        0.801     0.360     0.566     1.182
   538   8 o        1.608    -0.667    26.861     6.995
   539   1 h        0.805     0.328     0.642     1.259
   540   1 h        0.804     0.337     0.620     1.237
   541   8 o        1.610    -0.651    26.434     6.939
   542   1 h        0.805     0.323     0.655     1.271
   543   1 h        0.805     0.333     0.630     1.247
   544   8 o        1.607    -0.683    27.267     7.048
   545   1 h        0.802     0.352     0.584     1.200
   546   1 h        0.805     0.322     0.657     1.273
   547   8 o        1.606    -0.690    27.450     7.071
   548   1 h        0.804     0.323     0.655     1.271
   549   1 h        0.802     0.361     0.563     1.179
   550   8 o        1.605    -0.682    27.230     7.043
   551   1 h        0.802     0.335     0.625     1.242
   552   1 h        0.804     0.333     0.629     1.246
   553   8 o        1.608    -0.684    27.283     7.050
   554   1 h        0.804     0.334     0.626     1.243
   555   1 h        0.804     0.338     0.617     1.234
   556   8 o        1.607    -0.688    27.393     7.064
   557   1 h        0.804     0.337     0.620     1.237
   558   1 h        0.802     0.368     0.549     1.164
   559   8 o        1.606    -0.717    28.177     7.164
   560   1 h        0.804     0.341     0.610     1.227
   561   1 h        0.802     0.353     0.581     1.198
   562   8 o        1.603    -0.721    28.287     7.178
   563   1 h        0.803     0.344     0.602     1.219
   564   1 h        0.802     0.361     0.563     1.179
   565   8 o        1.607    -0.683    27.257     7.046
   566   1 h        0.804     0.323     0.656     1.272
   567   1 h        0.803     0.351     0.585     1.202
   568   8 o        1.608    -0.687    27.366     7.060
   569   1 h        0.803     0.349     0.591     1.208
   570   1 h        0.805     0.329     0.639     1.255
   571   8 o        1.607    -0.694    27.564     7.086
   572   1 h        0.804     0.334     0.627     1.244
   573   1 h        0.802     0.369     0.545     1.160
   574   8 o        1.607    -0.690    27.440     7.070
   575   1 h        0.803     0.326     0.648     1.264
   576   1 h        0.803     0.341     0.611     1.228
   577   8 o        1.608    -0.690    27.456     7.072
   578   1 h        0.804     0.342     0.607     1.224
   579   1 h        0.804     0.336     0.621     1.238
   580   8 o        1.606    -0.692    27.489     7.076
   581   1 h        0.804     0.330     0.639     1.255
   582   1 h        0.802     0.359     0.569     1.185
   583   8 o        1.605    -0.695    27.571     7.087
   584   1 h        0.805     0.314     0.680     1.296
   585   1 h        0.802     0.367     0.550     1.165
   586   8 o        1.607    -0.712    28.025     7.145
   587   1 h        0.804     0.338     0.618     1.235
   588   1 h        0.804     0.348     0.593     1.210
   589   8 o        1.607    -0.679    27.166     7.035
   590   1 h        0.805     0.320     0.664     1.280
   591   1 h        0.803     0.356     0.575     1.191
   592   8 o        1.608    -0.686    27.343     7.057
   593   1 h        0.805     0.322     0.659     1.275
   594   1 h        0.803     0.355     0.578     1.194
   595   8 o        1.608    -0.666    26.814     6.989
   596   1 h        0.804     0.328     0.644     1.260
   597   1 h        0.804     0.338     0.617     1.234
   598   8 o        1.608    -0.661    26.702     6.974
   599   1 h        0.806     0.313     0.683     1.298
   600   1 h        0.803     0.341     0.610     1.227
   601   8 o        1.609    -0.675    27.066     7.022
   602   1 h        0.803     0.354     0.579     1.195
   603   1 h        0.805     0.315     0.677     1.292
   604   8 o        1.609    -0.686    27.349     7.058
   605   1 h        0.804     0.340     0.612     1.228
   606   1 h        0.804     0.341     0.610     1.227
   607   8 o        1.609    -0.666    26.824     6.990
   608   1 h        0.805     0.325     0.651     1.268
   609   1 h        0.804     0.341     0.611     1.228
   610   8 o        1.609    -0.667    26.848     6.993
   611   1 h        0.805     0.318     0.668     1.284
   612   1 h        0.803     0.361     0.564     1.180
   613   8 o        1.607    -0.665    26.794     6.986
   614   1 h        0.802     0.353     0.581     1.197
   615   1 h        0.806     0.313     0.682     1.297
   616   8 o        1.608    -0.658    26.614     6.963
   617   1 h        0.806     0.317     0.673     1.288
   618   1 h        0.802     0.348     0.593     1.209
   619   8 o        1.609    -0.653    26.493     6.947
   620   1 h        0.803     0.335     0.625     1.242
   621   1 h        0.805     0.311     0.688     1.303
   622   8 o        1.606    -0.672    26.987     7.011
   623   1 h        0.802     0.330     0.637     1.253
   624   1 h        0.804     0.329     0.641     1.258
   625   8 o        1.608    -0.658    26.623     6.964
   626   1 h        0.803     0.373     0.538     1.152
   627   1 h        0.805     0.309     0.694     1.308
   628   8 o        1.609    -0.676    27.068     7.022
   629   1 h        0.803     0.355     0.577     1.193
   630   1 h        0.805     0.323     0.655     1.271
   631   8 o        1.607    -0.685    27.315     7.054
   632   1 h        0.804     0.335     0.624     1.241
   633   1 h        0.803     0.368     0.549     1.164
   634   8 o        1.608    -0.679    27.157     7.033
   635   1 h        0.804     0.339     0.614     1.231
   636   1 h        0.805     0.329     0.639     1.256
   637   8 o        1.607    -0.684    27.287     7.050
   638   1 h        0.803     0.357     0.571     1.187
   639   1 h        0.804     0.326     0.647     1.264
   640   8 o        1.606    -0.685    27.314     7.054
   641   1 h        0.802     0.355     0.576     1.192
   642   1 h        0.804     0.326     0.649     1.266
   643   8 o        1.608    -0.667    26.853     6.994
   644   1 h        0.805     0.324     0.654     1.270
   645   1 h        0.802     0.344     0.604     1.221
   646   8 o        1.608    -0.661    26.693     6.973
   647   1 h        0.802     0.353     0.581     1.198
   648   1 h        0.806     0.315     0.676     1.292
   649   8 o        1.607    -0.668    26.884     6.998
   650   1 h        0.806     0.312     0.685     1.300
   651   1 h        0.802     0.342     0.608     1.225
   652   8 o        1.608    -0.657    26.584     6.959
   653   1 h        0.804     0.341     0.611     1.228
   654   1 h        0.805     0.329     0.639     1.256
   655   8 o        1.608    -0.680    27.187     7.037
   656   1 h        0.804     0.324     0.653     1.269
   657   1 h        0.804     0.329     0.639     1.256
   658   8 o        1.609    -0.674    27.025     7.016
   659   1 h        0.804     0.341     0.609     1.226
   660   1 h        0.804     0.345     0.600     1.216
   661   8 o        1.608    -0.674    27.041     7.018
   662   1 h        0.804     0.357     0.571     1.187
   663   1 h        0.803     0.345     0.600     1.217
   664   8 o        1.607    -0.695    27.571     7.087
   665   1 h        0.804     0.331     0.634     1.251
   666   1 h        0.803     0.349     0.591     1.208
   667   8 o        1.607    -0.693    27.514     7.079
   668   1 h        0.804     0.325     0.649     1.266
   669   1 h        0.802     0.364     0.557     1.173
   670   8 o        1.609    -0.661    26.685     6.972
   671   1 h        0.804     0.331     0.635     1.251
   672   1 h        0.805     0.351     0.585     1.201
   673   8 o        1.607    -0.680    27.181     7.036
   674   1 h        0.803     0.333     0.629     1.246
   675   1 h        0.804     0.340     0.612     1.229
   676   8 o        1.610    -0.667    26.843     6.993
   677   1 h        0.804     0.338     0.618     1.235
   678   1 h        0.805     0.338     0.617     1.233
   679   8 o        1.608    -0.670    26.937     7.005
   680   1 h        0.803     0.366     0.553     1.168
   681   1 h        0.805     0.322     0.657     1.273
   682   8 o        1.607    -0.678    27.139     7.031
   683   1 h        0.802     0.364     0.557     1.173
   684   1 h        0.805     0.328     0.642     1.258
   685   8 o        1.607    -0.681    27.208     7.040
   686   1 h        0.804     0.327     0.644     1.261
   687   1 h        0.803     0.349     0.591     1.208
   688   8 o        1.609    -0.665    26.789     6.986
   689   1 h        0.804     0.335     0.626     1.243
   690   1 h        0.804     0.329     0.639     1.255
   691   8 o        1.605    -0.676    27.084     7.024
   692   1 h        0.802     0.334     0.629     1.245
   693   1 h        0.804     0.330     0.638     1.255
   694   8 o        1.606    -0.664    26.768     6.983
   695   1 h        0.805     0.321     0.662     1.278
   696   1 h        0.801     0.349     0.591     1.208
   697   8 o        1.607    -0.686    27.347     7.058
   698   1 h        0.802     0.354     0.579     1.196
   699   1 h        0.805     0.327     0.645     1.261
   700   8 o        1.608    -0.701    27.737     7.108
   701   1 h        0.804     0.320     0.665     1.281
   702   1 h        0.803     0.347     0.596     1.213
   703   8 o        1.608    -0.682    27.225     7.042
   704   1 h        0.804     0.346     0.597     1.213
   705   1 h        0.804     0.351     0.587     1.204
   706   8 o        1.609    -0.650    26.414     6.936
   707   1 h        0.804     0.344     0.603     1.220
   708   1 h        0.805     0.336     0.622     1.238
   709   8 o        1.607    -0.690    27.434     7.069
   710   1 h        0.803     0.335     0.625     1.242
   711   1 h        0.804     0.323     0.655     1.271
   712   8 o        1.606    -0.695    27.578     7.088
   713   1 h        0.804     0.332     0.633     1.250
   714   1 h        0.802     0.362     0.562     1.177
   715   8 o        1.608    -0.675    27.050     7.020
   716   1 h        0.805     0.327     0.645     1.261
   717   1 h        0.803     0.342     0.607     1.223
   718   8 o        1.608    -0.680    27.177     7.036
   719   1 h        0.805     0.316     0.675     1.290
   720   1 h        0.803     0.359     0.568     1.184
   721   8 o        1.609    -0.677    27.115     7.028
   722   1 h        0.804     0.344     0.603     1.220
   723   1 h        0.805     0.338     0.617     1.234
   724   8 o        1.607    -0.680    27.195     7.038
   725   1 h        0.804     0.350     0.588     1.204
   726   1 h        0.803     0.332     0.631     1.248
   727   8 o        1.608    -0.682    27.232     7.043
   728   1 h        0.805     0.330     0.637     1.253
   729   1 h        0.803     0.347     0.597     1.213
   730   8 o        1.606    -0.662    26.730     6.978
   731   1 h        0.806     0.310     0.692     1.307
   732   1 h        0.801     0.352     0.584     1.201
   733   8 o        1.606    -0.692    27.496     7.077
   734   1 h        0.802     0.362     0.562     1.178
   735   1 h        0.804     0.326     0.648     1.265
   736   8 o        1.605    -0.700    27.715     7.105
   737   1 h        0.801     0.365     0.554     1.170
   738   1 h        0.804     0.325     0.650     1.266
   739   8 o        1.608    -0.685    27.313     7.054
   740   1 h        0.804     0.329     0.641     1.257
   741   1 h        0.804     0.342     0.607     1.224
   742   8 o        1.608    -0.683    27.272     7.048
   743   1 h        0.803     0.353     0.582     1.198
   744   1 h        0.805     0.327     0.645     1.262
   745   8 o        1.609    -0.689    27.409     7.066
   746   1 h        0.804     0.348     0.593     1.210
   747   1 h        0.804     0.348     0.592     1.209
   748   8 o        1.607    -0.683    27.266     7.047
   749   1 h        0.804     0.338     0.616     1.233
   750   1 h        0.802     0.367     0.549     1.165
   751   8 o        1.608    -0.662    26.730     6.978
   752   1 h        0.804     0.334     0.627     1.244
   753   1 h        0.803     0.350     0.587     1.204
   754   8 o        1.611    -0.632    25.956     6.876
   755   1 h        0.805     0.338     0.616     1.233
   756   1 h        0.805     0.308     0.698     1.312

 Mol. C6AA /au·bohr⁶  :    2899363.179117
 Mol. C8AA /au·bohr⁸  :   52605763.167115
 Mol. α(0) /au        :       2393.083883


Wiberg/Mayer (AO) data.
largest (>0.10) Wiberg bond orders for each atom

 ---------------------------------------------------------------------------
     #   Z sym  total        # sym  WBO       # sym  WBO       # sym  WBO
 ---------------------------------------------------------------------------
     1   8 o    1.878 --     3 h    0.817     2 h    0.804
     2   1 h    0.878 --     1 o    0.804
     3   1 h    0.887 --     1 o    0.817
     4   8 o    1.854 --     6 h    0.796     5 h    0.789
     5   1 h    0.876 --     4 o    0.789
     6   1 h    0.882 --     4 o    0.796
     7   8 o    1.837 --     9 h    0.851     8 h    0.810
     8   1 h    0.879 --     7 o    0.810
     9   1 h    0.894 --     7 o    0.851
    10   8 o    1.855 --    12 h    0.830    11 h    0.828
    11   1 h    0.875 --    10 o    0.828
    12   1 h    0.885 --    10 o    0.830
    13   8 o    1.851 --    14 h    0.817    15 h    0.817
    14   1 h    0.881 --    13 o    0.817
    15   1 h    0.883 --    13 o    0.817
    16   8 o    1.855 --    17 h    0.852    18 h    0.801
    17   1 h    0.890 --    16 o    0.852
    18   1 h    0.872 --    16 o    0.801
    19   8 o    1.875 --    21 h    0.860    20 h    0.816
    20   1 h    0.888 --    19 o    0.816
    21   1 h    0.882 --    19 o    0.860
    22   8 o    1.832 --    24 h    0.822    23 h    0.820
    23   1 h    0.887 --    22 o    0.820
    24   1 h    0.890 --    22 o    0.822
    25   8 o    1.810 --    27 h    0.829    26 h    0.819
    26   1 h    0.885 --    25 o    0.819
    27   1 h    0.889 --    25 o    0.829
    28   8 o    1.857 --    29 h    0.819    30 h    0.785
    29   1 h    0.889 --    28 o    0.819
    30   1 h    0.869 --    28 o    0.785
    31   8 o    1.835 --    32 h    0.816    33 h    0.803
    32   1 h    0.886 --    31 o    0.816
    33   1 h    0.876 --    31 o    0.803
    34   8 o    1.883 --    36 h    0.796    35 h    0.795
    35   1 h    0.876 --    34 o    0.795
    36   1 h    0.875 --    34 o    0.796
    37   8 o    1.867 --    38 h    0.836    39 h    0.811
    38   1 h    0.884 --    37 o    0.836
    39   1 h    0.876 --    37 o    0.811
    40   8 o    1.801 --    41 h    0.829    42 h    0.826
    41   1 h    0.884 --    40 o    0.829
    42   1 h    0.886 --    40 o    0.826
    43   8 o    1.856 --    45 h    0.829    44 h    0.808
    44   1 h    0.883 --    43 o    0.808
    45   1 h    0.885 --    43 o    0.829
    46   8 o    1.878 --    47 h    0.821    48 h    0.799
    47   1 h    0.878 --    46 o    0.821
    48   1 h    0.876 --    46 o    0.799
    49   8 o    1.825 --    50 h    0.831    51 h    0.814
    50   1 h    0.889 --    49 o    0.831
    51   1 h    0.885 --    49 o    0.814
    52   8 o    1.836 --    53 h    0.831    54 h    0.822
    53   1 h    0.889 --    52 o    0.831
    54   1 h    0.883 --    52 o    0.822
    55   8 o    1.843 --    57 h    0.826    56 h    0.816
    56   1 h    0.886 --    55 o    0.816
    57   1 h    0.888 --    55 o    0.826
    58   8 o    1.882 --    59 h    0.839    60 h    0.811
    59   1 h    0.888 --    58 o    0.839
    60   1 h    0.882 --    58 o    0.811
    61   8 o    1.833 --    63 h    0.842    62 h    0.830
    62   1 h    0.886 --    61 o    0.830
    63   1 h    0.886 --    61 o    0.842
    64   8 o    1.840 --    66 h    0.835    65 h    0.825
    65   1 h    0.877 --    64 o    0.825
    66   1 h    0.884 --    64 o    0.835
    67   8 o    1.850 --    69 h    0.835    68 h    0.816
    68   1 h    0.883 --    67 o    0.816
    69   1 h    0.883 --    67 o    0.835
    70   8 o    1.855 --    72 h    0.821    71 h    0.783
    71   1 h    0.869 --    70 o    0.783
    72   1 h    0.885 --    70 o    0.821
    73   8 o    1.820 --    75 h    0.849    74 h    0.841
    74   1 h    0.885 --    73 o    0.841
    75   1 h    0.887 --    73 o    0.849
    76   8 o    1.852 --    77 h    0.822    78 h    0.799
    77   1 h    0.883 --    76 o    0.822
    78   1 h    0.877 --    76 o    0.799
    79   8 o    1.841 --    81 h    0.843    80 h    0.791
    80   1 h    0.871 --    79 o    0.791
    81   1 h    0.886 --    79 o    0.843
    82   8 o    1.860 --    83 h    0.850    84 h    0.802
    83   1 h    0.880 --    82 o    0.850
    84   1 h    0.877 --    82 o    0.802
    85   8 o    1.867 --    87 h    0.819    86 h    0.817
    86   1 h    0.878 --    85 o    0.817
    87   1 h    0.876 --    85 o    0.819
    88   8 o    1.865 --    89 h    0.813    90 h    0.797
    89   1 h    0.880 --    88 o    0.813
    90   1 h    0.873 --    88 o    0.797
    91   8 o    1.860 --    93 h    0.835    92 h    0.834
    92   1 h    0.893 --    91 o    0.834
    93   1 h    0.889 --    91 o    0.835
    94   8 o    1.836 --    95 h    0.847    96 h    0.789
    95   1 h    0.886 --    94 o    0.847
    96   1 h    0.871 --    94 o    0.789
    97   8 o    1.849 --    98 h    0.834    99 h    0.820
    98   1 h    0.894 --    97 o    0.834
    99   1 h    0.877 --    97 o    0.820
   100   8 o    1.820 --   101 h    0.840   102 h    0.832
   101   1 h    0.895 --   100 o    0.840
   102   1 h    0.885 --   100 o    0.832
   103   8 o    1.855 --   104 h    0.805   105 h    0.777
   104   1 h    0.881 --   103 o    0.805
   105   1 h    0.873 --   103 o    0.777
   106   8 o    1.825 --   107 h    0.845   108 h    0.832
   107   1 h    0.892 --   106 o    0.845
   108   1 h    0.887 --   106 o    0.832
   109   8 o    1.838 --   111 h    0.887   110 h    0.783
   110   1 h    0.867 --   109 o    0.783
   111   1 h    0.904 --   109 o    0.887
   112   8 o    1.857 --   113 h    0.842   114 h    0.831
   113   1 h    0.894 --   112 o    0.842
   114   1 h    0.879 --   112 o    0.831
   115   8 o    1.873 --   116 h    0.813   117 h    0.774
   116   1 h    0.886 --   115 o    0.813
   117   1 h    0.869 --   115 o    0.774
   118   8 o    1.845 --   120 h    0.804   119 h    0.800
   119   1 h    0.872 --   118 o    0.800
   120   1 h    0.879 --   118 o    0.804
   121   8 o    1.830 --   122 h    0.866   123 h    0.840
   122   1 h    0.897 --   121 o    0.866
   123   1 h    0.883 --   121 o    0.840
   124   8 o    1.812 --   125 h    0.832   126 h    0.830
   125   1 h    0.883 --   124 o    0.832
   126   1 h    0.891 --   124 o    0.830
   127   8 o    1.796 --   128 h    0.845   129 h    0.836
   128   1 h    0.893 --   127 o    0.845
   129   1 h    0.891 --   127 o    0.836
   130   8 o    1.845 --   131 h    0.827   132 h    0.803
   131   1 h    0.887 --   130 o    0.827
   132   1 h    0.868 --   130 o    0.803
   133   8 o    1.805 --   135 h    0.869   134 h    0.844
   134   1 h    0.895 --   133 o    0.844
   135   1 h    0.897 --   133 o    0.869
   136   8 o    1.799 --   137 h    0.837   138 h    0.836
   137   1 h    0.895 --   136 o    0.837
   138   1 h    0.900 --   136 o    0.836
   139   8 o    1.880 --   141 h    0.835   140 h    0.821
   140   1 h    0.885 --   139 o    0.821
   141   1 h    0.881 --   139 o    0.835
   142   8 o    1.849 --   143 h    0.890   144 h    0.836
   143   1 h    0.897 --   142 o    0.890
   144   1 h    0.881 --   142 o    0.836
   145   8 o    1.803 --   147 h    0.845   146 h    0.827
   146   1 h    0.882 --   145 o    0.827
   147   1 h    0.887 --   145 o    0.845
   148   8 o    1.869 --   150 h    0.829   149 h    0.822
   149   1 h    0.881 --   148 o    0.822
   150   1 h    0.882 --   148 o    0.829
   151   8 o    1.862 --   153 h    0.826   152 h    0.818
   152   1 h    0.884 --   151 o    0.818
   153   1 h    0.881 --   151 o    0.826
   154   8 o    1.827 --   155 h    0.844   156 h    0.799
   155   1 h    0.893 --   154 o    0.844
   156   1 h    0.878 --   154 o    0.799
   157   8 o    1.851 --   159 h    0.818   158 h    0.816
   158   1 h    0.880 --   157 o    0.816
   159   1 h    0.877 --   157 o    0.818
   160   8 o    1.832 --   161 h    0.894   162 h    0.834
   161   1 h    0.900 --   160 o    0.894
   162   1 h    0.873 --   160 o    0.834
   163   8 o    1.875 --   164 h    0.818   165 h    0.796
   164   1 h    0.884 --   163 o    0.818
   165   1 h    0.869 --   163 o    0.796
   166   8 o    1.883 --   167 h    0.821   168 h    0.776
   167   1 h    0.881 --   166 o    0.821
   168   1 h    0.869 --   166 o    0.776
   169   8 o    1.857 --   170 h    0.864   171 h    0.808
   170   1 h    0.886 --   169 o    0.864
   171   1 h    0.877 --   169 o    0.808
   172   8 o    1.837 --   174 h    0.858   173 h    0.811
   173   1 h    0.875 --   172 o    0.811
   174   1 h    0.899 --   172 o    0.858
   175   8 o    1.884 --   177 h    0.808   176 h    0.807
   176   1 h    0.876 --   175 o    0.807
   177   1 h    0.874 --   175 o    0.808
   178   8 o    1.800 --   180 h    0.844   179 h    0.836
   179   1 h    0.880 --   178 o    0.836
   180   1 h    0.886 --   178 o    0.844
   181   8 o    1.863 --   182 h    0.822   183 h    0.777
   182   1 h    0.888 --   181 o    0.822
   183   1 h    0.878 --   181 o    0.777
   184   8 o    1.839 --   186 h    0.866   185 h    0.801
   185   1 h    0.878 --   184 o    0.801
   186   1 h    0.895 --   184 o    0.866
   187   8 o    1.852 --   189 h    0.846   188 h    0.828
   188   1 h    0.878 --   187 o    0.828
   189   1 h    0.885 --   187 o    0.846
   190   8 o    1.863 --   192 h    0.830   191 h    0.826
   191   1 h    0.878 --   190 o    0.826
   192   1 h    0.893 --   190 o    0.830
   193   8 o    1.837 --   194 h    0.856   195 h    0.841
   194   1 h    0.890 --   193 o    0.856
   195   1 h    0.885 --   193 o    0.841
   196   8 o    1.840 --   197 h    0.842   198 h    0.817
   197   1 h    0.889 --   196 o    0.842
   198   1 h    0.884 --   196 o    0.817
   199   8 o    1.876 --   200 h    0.834   201 h    0.820
   200   1 h    0.876 --   199 o    0.834
   201   1 h    0.869 --   199 o    0.820
   202   8 o    1.853 --   203 h    0.857   204 h    0.842
   203   1 h    0.897 --   202 o    0.857
   204   1 h    0.884 --   202 o    0.842
   205   8 o    1.832 --   206 h    0.868   207 h    0.829
   206   1 h    0.891 --   205 o    0.868
   207   1 h    0.880 --   205 o    0.829
   208   8 o    1.826 --   210 h    0.890   209 h    0.784
   209   1 h    0.864 --   208 o    0.784
   210   1 h    0.901 --   208 o    0.890
   211   8 o    1.843 --   213 h    0.883   212 h    0.813
   212   1 h    0.868 --   211 o    0.813
   213   1 h    0.898 --   211 o    0.883
   214   8 o    1.852 --   215 h    0.814   216 h    0.811
   215   1 h    0.882 --   214 o    0.814
   216   1 h    0.881 --   214 o    0.811
   217   8 o    1.850 --   218 h    0.818   219 h    0.798
   218   1 h    0.885 --   217 o    0.818
   219   1 h    0.875 --   217 o    0.798
   220   8 o    1.868 --   221 h    0.854   222 h    0.804
   221   1 h    0.897 --   220 o    0.854
   222   1 h    0.879 --   220 o    0.804
   223   8 o    1.827 --   225 h    0.861   224 h    0.805
   224   1 h    0.871 --   223 o    0.805
   225   1 h    0.889 --   223 o    0.861
   226   8 o    1.816 --   228 h    0.869   227 h    0.856
   227   1 h    0.888 --   226 o    0.856
   228   1 h    0.890 --   226 o    0.869
   229   8 o    1.860 --   230 h    0.847   231 h    0.785
   230   1 h    0.888 --   229 o    0.847
   231   1 h    0.868 --   229 o    0.785
   232   8 o    1.809 --   233 h    0.847   234 h    0.838
   233   1 h    0.895 --   232 o    0.847
   234   1 h    0.886 --   232 o    0.838
   235   8 o    1.856 --   236 h    0.862   237 h    0.807
   236   1 h    0.897 --   235 o    0.862
   237   1 h    0.875 --   235 o    0.807
   238   8 o    1.845 --   239 h    0.820   240 h    0.775
   239   1 h    0.883 --   238 o    0.820
   240   1 h    0.871 --   238 o    0.775
   241   8 o    1.838 --   243 h    0.864   242 h    0.821
   242   1 h    0.889 --   241 o    0.821
   243   1 h    0.891 --   241 o    0.864
   244   8 o    1.860 --   245 h    0.848   246 h    0.815
   245   1 h    0.894 --   244 o    0.848
   246   1 h    0.872 --   244 o    0.815
   247   8 o    1.861 --   249 h    0.871   248 h    0.822
   248   1 h    0.880 --   247 o    0.822
   249   1 h    0.892 --   247 o    0.871
   250   8 o    1.815 --   252 h    0.889   251 h    0.809
   251   1 h    0.880 --   250 o    0.809
   252   1 h    0.899 --   250 o    0.889
   253   8 o    1.895 --   255 h    0.803   254 h    0.798
   254   1 h    0.875 --   253 o    0.798
   255   1 h    0.878 --   253 o    0.803
   256   8 o    1.847 --   258 h    0.861   257 h    0.779
   257   1 h    0.866 --   256 o    0.779
   258   1 h    0.899 --   256 o    0.861
   259   8 o    1.840 --   260 h    0.865   261 h    0.800
   260   1 h    0.894 --   259 o    0.865
   261   1 h    0.875 --   259 o    0.800
   262   8 o    1.838 --   263 h    0.820   264 h    0.818
   263   1 h    0.880 --   262 o    0.820
   264   1 h    0.882 --   262 o    0.818
   265   8 o    1.874 --   266 h    0.814   267 h    0.799
   266   1 h    0.889 --   265 o    0.814
   267   1 h    0.871 --   265 o    0.799
   268   8 o    1.824 --   270 h    0.897   269 h    0.828
   269   1 h    0.880 --   268 o    0.828
   270   1 h    0.902 --   268 o    0.897
   271   8 o    1.875 --   273 h    0.830   272 h    0.787
   272   1 h    0.870 --   271 o    0.787
   273   1 h    0.887 --   271 o    0.830
   274   8 o    1.884 --   275 h    0.836   276 h    0.804
   275   1 h    0.889 --   274 o    0.836
   276   1 h    0.889 --   274 o    0.804
   277   8 o    1.863 --   279 h    0.857   278 h    0.780
   278   1 h    0.867 --   277 o    0.780
   279   1 h    0.894 --   277 o    0.857
   280   8 o    1.863 --   282 h    0.843   281 h    0.837
   281   1 h    0.879 --   280 o    0.837
   282   1 h    0.893 --   280 o    0.843
   283   8 o    1.841 --   284 h    0.899   285 h    0.801
   284   1 h    0.902 --   283 o    0.899
   285   1 h    0.879 --   283 o    0.801
   286   8 o    1.810 --   287 h    0.867   288 h    0.829
   287   1 h    0.894 --   286 o    0.867
   288   1 h    0.883 --   286 o    0.829
   289   8 o    1.832 --   290 h    0.891   291 h    0.775
   290   1 h    0.904 --   289 o    0.891
   291   1 h    0.866 --   289 o    0.775
   292   8 o    1.829 --   294 h    0.895   293 h    0.790
   293   1 h    0.872 --   292 o    0.790
   294   1 h    0.901 --   292 o    0.895
   295   8 o    1.808 --   297 h    0.863   296 h    0.853
   296   1 h    0.890 --   295 o    0.853
   297   1 h    0.890 --   295 o    0.863
   298   8 o    1.819 --   299 h    0.822   300 h    0.818
   299   1 h    0.885 --   298 o    0.822
   300   1 h    0.891 --   298 o    0.818
   301   8 o    1.819 --   303 h    0.865   302 h    0.838
   302   1 h    0.877 --   301 o    0.838
   303   1 h    0.900 --   301 o    0.865
   304   8 o    1.803 --   306 h    0.867   305 h    0.800
   305   1 h    0.873 --   304 o    0.800
   306   1 h    0.895 --   304 o    0.867
   307   8 o    1.852 --   308 h    0.840   309 h    0.821
   308   1 h    0.886 --   307 o    0.840
   309   1 h    0.884 --   307 o    0.821
   310   8 o    1.817 --   312 h    0.857   311 h    0.825
   311   1 h    0.879 --   310 o    0.825
   312   1 h    0.896 --   310 o    0.857
   313   8 o    1.895 --   314 h    0.809   315 h    0.795
   314   1 h    0.888 --   313 o    0.809
   315   1 h    0.865 --   313 o    0.795
   316   8 o    1.862 --   317 h    0.858   318 h    0.847
   317   1 h    0.887 --   316 o    0.858
   318   1 h    0.882 --   316 o    0.847
   319   8 o    1.849 --   321 h    0.837   320 h    0.814
   320   1 h    0.881 --   319 o    0.814
   321   1 h    0.895 --   319 o    0.837
   322   8 o    1.876 --   323 h    0.831   324 h    0.814
   323   1 h    0.893 --   322 o    0.831
   324   1 h    0.874 --   322 o    0.814
   325   8 o    1.867 --   327 h    0.823   326 h    0.781
   326   1 h    0.880 --   325 o    0.781
   327   1 h    0.872 --   325 o    0.823
   328   8 o    1.867 --   329 h    0.814   330 h    0.788
   329   1 h    0.894 --   328 o    0.814
   330   1 h    0.866 --   328 o    0.788
   331   8 o    1.824 --   332 h    0.874   333 h    0.829
   332   1 h    0.891 --   331 o    0.874
   333   1 h    0.881 --   331 o    0.829
   334   8 o    1.847 --   335 h    0.842   336 h    0.822
   335   1 h    0.895 --   334 o    0.842
   336   1 h    0.883 --   334 o    0.822
   337   8 o    1.883 --   339 h    0.809   338 h    0.805
   338   1 h    0.873 --   337 o    0.805
   339   1 h    0.878 --   337 o    0.809
   340   8 o    1.842 --   341 h    0.895   342 h    0.788
   341   1 h    0.900 --   340 o    0.895
   342   1 h    0.876 --   340 o    0.788
   343   8 o    1.882 --   345 h    0.807   344 h    0.784
   344   1 h    0.870 --   343 o    0.784
   345   1 h    0.879 --   343 o    0.807
   346   8 o    1.853 --   348 h    0.833   347 h    0.811
   347   1 h    0.874 --   346 o    0.811
   348   1 h    0.892 --   346 o    0.833
   349   8 o    1.864 --   350 h    0.841   351 h    0.830
   350   1 h    0.895 --   349 o    0.841
   351   1 h    0.879 --   349 o    0.830
   352   8 o    1.816 --   353 h    0.884   354 h    0.800
   353   1 h    0.899 --   352 o    0.884
   354   1 h    0.875 --   352 o    0.800
   355   8 o    1.852 --   357 h    0.882   356 h    0.861
   356   1 h    0.889 --   355 o    0.861
   357   1 h    0.897 --   355 o    0.882
   358   8 o    1.843 --   359 h    0.851   360 h    0.798
   359   1 h    0.898 --   358 o    0.851
   360   1 h    0.873 --   358 o    0.798
   361   8 o    1.832 --   363 h    0.838   362 h    0.814
   362   1 h    0.883 --   361 o    0.814
   363   1 h    0.889 --   361 o    0.838
   364   8 o    1.858 --   365 h    0.827   366 h    0.811
[...]
   369   1 h    0.874 --   367 o    0.813
   370   8 o    1.812 --   371 h    0.863   372 h    0.805
   371   1 h    0.895 --   370 o    0.863
   372   1 h    0.878 --   370 o    0.805
   373   8 o    1.839 --   374 h    0.877   375 h    0.860
   374   1 h    0.890 --   373 o    0.877
   375   1 h    0.885 --   373 o    0.860
   376   8 o    1.879 --   377 h    0.826   378 h    0.819
   377   1 h    0.884 --   376 o    0.826
   378   1 h    0.891 --   376 o    0.819
   379   8 o    1.857 --   381 h    0.787   380 h    0.786
   380   1 h    0.874 --   379 o    0.786
   381   1 h    0.884 --   379 o    0.787
   382   8 o    1.856 --   383 h    0.822   384 h    0.821
   383   1 h    0.882 --   382 o    0.822
   384   1 h    0.888 --   382 o    0.821
   385   8 o    1.828 --   386 h    0.895   387 h    0.790
   386   1 h    0.900 --   385 o    0.895
   387   1 h    0.873 --   385 o    0.790
   388   8 o    1.892 --   390 h    0.845   389 h    0.803
   389   1 h    0.872 --   388 o    0.803
   390   1 h    0.886 --   388 o    0.845
   391   8 o    1.814 --   393 h    0.856   392 h    0.829
   392   1 h    0.872 --   391 o    0.829
   393   1 h    0.896 --   391 o    0.856
   394   8 o    1.802 --   395 h    0.870   396 h    0.850
   395   1 h    0.892 --   394 o    0.870
   396   1 h    0.889 --   394 o    0.850
   397   8 o    1.824 --   399 h    0.883   398 h    0.805
   398   1 h    0.879 --   397 o    0.805
   399   1 h    0.898 --   397 o    0.883
   400   8 o    1.818 --   402 h    0.816   401 h    0.812
   401   1 h    0.883 --   400 o    0.812
   402   1 h    0.884 --   400 o    0.816
   403   8 o    1.856 --   404 h    0.833   405 h    0.824
   404   1 h    0.890 --   403 o    0.833
   405   1 h    0.882 --   403 o    0.824
   406   8 o    1.868 --   408 h    0.816   407 h    0.794
   407   1 h    0.881 --   406 o    0.794
   408   1 h    0.872 --   406 o    0.816
   409   8 o    1.880 --   410 h    0.838   411 h    0.801
   410   1 h    0.890 --   409 o    0.838
   411   1 h    0.862 --   409 o    0.801
   412   8 o    1.858 --   414 h    0.837   413 h    0.813
   413   1 h    0.875 --   412 o    0.813
   414   1 h    0.881 --   412 o    0.837
   415   8 o    1.842 --   416 h    0.860   417 h    0.802
   416   1 h    0.897 --   415 o    0.860
   417   1 h    0.874 --   415 o    0.802
   418   8 o    1.842 --   420 h    0.868   419 h    0.786
   419   1 h    0.862 --   418 o    0.786
   420   1 h    0.898 --   418 o    0.868
   421   8 o    1.861 --   422 h    0.832   423 h    0.817
   422   1 h    0.877 --   421 o    0.832
   423   1 h    0.869 --   421 o    0.817
   424   8 o    1.853 --   425 h    0.824   426 h    0.814
   425   1 h    0.889 --   424 o    0.824
   426   1 h    0.870 --   424 o    0.814
   427   8 o    1.871 --   428 h    0.831   429 h    0.827
   428   1 h    0.881 --   427 o    0.831
   429   1 h    0.892 --   427 o    0.827
   430   8 o    1.801 --   432 h    0.876   431 h    0.832
   431   1 h    0.883 --   430 o    0.832
   432   1 h    0.898 --   430 o    0.876
   433   8 o    1.868 --   434 h    0.833   435 h    0.790
   434   1 h    0.893 --   433 o    0.833
   435   1 h    0.873 --   433 o    0.790
   436   8 o    1.826 --   438 h    0.887   437 h    0.814
   437   1 h    0.883 --   436 o    0.814
   438   1 h    0.898 --   436 o    0.887
   439   8 o    1.858 --   440 h    0.888   441 h    0.837
   440   1 h    0.899 --   439 o    0.888
   441   1 h    0.884 --   439 o    0.837
   442   8 o    1.845 --   444 h    0.819   443 h    0.788
   443   1 h    0.873 --   442 o    0.788
   444   1 h    0.883 --   442 o    0.819
   445   8 o    1.822 --   446 h    0.873   447 h    0.789
   446   1 h    0.892 --   445 o    0.873
   447   1 h    0.875 --   445 o    0.789
   448   8 o    1.899 --   449 h    0.828   450 h    0.818
   449   1 h    0.888 --   448 o    0.828
   450   1 h    0.886 --   448 o    0.818
   451   8 o    1.878 --   453 h    0.820   452 h    0.817
   452   1 h    0.890 --   451 o    0.817
   453   1 h    0.891 --   451 o    0.820
   454   8 o    1.866 --   456 h    0.868   455 h    0.825
   455   1 h    0.884 --   454 o    0.825
   456   1 h    0.888 --   454 o    0.868
   457   8 o    1.894 --   458 h    0.835   459 h    0.796
   458   1 h    0.887 --   457 o    0.835
   459   1 h    0.869 --   457 o    0.796
   460   8 o    1.846 --   462 h    0.822   461 h    0.803
   461   1 h    0.875 --   460 o    0.803
   462   1 h    0.881 --   460 o    0.822
   463   8 o    1.834 --   464 h    0.870   465 h    0.852
   464   1 h    0.888 --   463 o    0.870
   465   1 h    0.883 --   463 o    0.852
   466   8 o    1.876 --   467 h    0.854   468 h    0.813
   467   1 h    0.887 --   466 o    0.854
   468   1 h    0.886 --   466 o    0.813
   469   8 o    1.836 --   470 h    0.874   471 h    0.829
   470   1 h    0.894 --   469 o    0.874
   471   1 h    0.881 --   469 o    0.829
   472   8 o    1.826 --   474 h    0.862   473 h    0.828
   473   1 h    0.882 --   472 o    0.828
   474   1 h    0.888 --   472 o    0.862
   475   8 o    1.898 --   476 h    0.857   477 h    0.771
   476   1 h    0.890 --   475 o    0.857
   477   1 h    0.864 --   475 o    0.771
   478   8 o    1.818 --   479 h    0.833   480 h    0.825
   479   1 h    0.885 --   478 o    0.833
   480   1 h    0.888 --   478 o    0.825
   481   8 o    1.814 --   482 h    0.857   483 h    0.805
   482   1 h    0.892 --   481 o    0.857
   483   1 h    0.877 --   481 o    0.805
   484   8 o    1.875 --   485 h    0.872   486 h    0.823
   485   1 h    0.894 --   484 o    0.872
   486   1 h    0.887 --   484 o    0.823
   487   8 o    1.836 --   489 h    0.865   488 h    0.774
   488   1 h    0.867 --   487 o    0.774
   489   1 h    0.898 --   487 o    0.865
   490   8 o    1.842 --   491 h    0.845   492 h    0.825
   491   1 h    0.888 --   490 o    0.845
   492   1 h    0.887 --   490 o    0.825
   493   8 o    1.840 --   494 h    0.903   495 h    0.812
   494   1 h    0.906 --   493 o    0.903
   495   1 h    0.876 --   493 o    0.812
   496   8 o    1.828 --   497 h    0.895   498 h    0.793
   497   1 h    0.903 --   496 o    0.895
   498   1 h    0.872 --   496 o    0.793
   499   8 o    1.850 --   500 h    0.898   501 h    0.794
   500   1 h    0.903 --   499 o    0.898
   501   1 h    0.874 --   499 o    0.794
   502   8 o    1.822 --   504 h    0.860   503 h    0.856
   503   1 h    0.889 --   502 o    0.856
   504   1 h    0.885 --   502 o    0.860
   505   8 o    1.820 --   507 h    0.877   506 h    0.786
   506   1 h    0.870 --   505 o    0.786
   507   1 h    0.898 --   505 o    0.877
   508   8 o    1.860 --   509 h    0.844   510 h    0.815
   509   1 h    0.883 --   508 o    0.844
   510   1 h    0.873 --   508 o    0.815
   511   8 o    1.844 --   512 h    0.849   513 h    0.847
   512   1 h    0.888 --   511 o    0.849
   513   1 h    0.883 --   511 o    0.847
   514   8 o    1.826 --   515 h    0.854   516 h    0.824
   515   1 h    0.888 --   514 o    0.854
   516   1 h    0.884 --   514 o    0.824
   517   8 o    1.850 --   519 h    0.838   518 h    0.826
   518   1 h    0.891 --   517 o    0.826
   519   1 h    0.889 --   517 o    0.838
   520   8 o    1.859 --   521 h    0.842   522 h    0.802
   521   1 h    0.894 --   520 o    0.842
   522   1 h    0.886 --   520 o    0.802
   523   8 o    1.831 --   525 h    0.905   524 h    0.821
   524   1 h    0.881 --   523 o    0.821
   525   1 h    0.909 --   523 o    0.905
   526   8 o    1.839 --   528 h    0.868   527 h    0.810
   527   1 h    0.878 --   526 o    0.810
   528   1 h    0.896 --   526 o    0.868
   529   8 o    1.827 --   531 h    0.853   530 h    0.851
   530   1 h    0.878 --   529 o    0.851
   531   1 h    0.894 --   529 o    0.853
   532   8 o    1.861 --   533 h    0.857   534 h    0.775
   533   1 h    0.896 --   532 o    0.857
   534   1 h    0.864 --   532 o    0.775
   535   8 o    1.848 --   536 h    0.897   537 h    0.778
   536   1 h    0.904 --   535 o    0.897
   537   1 h    0.870 --   535 o    0.778
   538   8 o    1.837 --   539 h    0.859   540 h    0.832
   539   1 h    0.892 --   538 o    0.859
   540   1 h    0.886 --   538 o    0.832
   541   8 o    1.812 --   542 h    0.883   543 h    0.862
   542   1 h    0.895 --   541 o    0.883
   543   1 h    0.889 --   541 o    0.862
   544   8 o    1.829 --   546 h    0.859   545 h    0.804
   545   1 h    0.876 --   544 o    0.804
   546   1 h    0.896 --   544 o    0.859
   547   8 o    1.842 --   548 h    0.855   549 h    0.788
   548   1 h    0.895 --   547 o    0.855
   549   1 h    0.870 --   547 o    0.788
   550   8 o    1.844 --   552 h    0.840   551 h    0.799
   551   1 h    0.888 --   550 o    0.799
   552   1 h    0.889 --   550 o    0.840
   553   8 o    1.822 --   554 h    0.851   555 h    0.842
   554   1 h    0.888 --   553 o    0.851
   555   1 h    0.886 --   553 o    0.842
   556   8 o    1.873 --   557 h    0.831   558 h    0.788
   557   1 h    0.886 --   556 o    0.831
   558   1 h    0.865 --   556 o    0.788
   559   8 o    1.818 --   560 h    0.823   561 h    0.793
   560   1 h    0.884 --   559 o    0.823
   561   1 h    0.875 --   559 o    0.793
   562   8 o    1.851 --   563 h    0.783   564 h    0.772
   563   1 h    0.881 --   562 o    0.783
   564   1 h    0.869 --   562 o    0.772
   565   8 o    1.857 --   566 h    0.836   567 h    0.796
   566   1 h    0.896 --   565 o    0.836
   567   1 h    0.876 --   565 o    0.796
   568   8 o    1.817 --   570 h    0.871   569 h    0.819
   569   1 h    0.878 --   568 o    0.819
   570   1 h    0.891 --   568 o    0.871
   571   8 o    1.859 --   572 h    0.835   573 h    0.777
   572   1 h    0.888 --   571 o    0.835
   573   1 h    0.863 --   571 o    0.777
   574   8 o    1.835 --   575 h    0.826   576 h    0.817
   575   1 h    0.894 --   574 o    0.826
   576   1 h    0.884 --   574 o    0.817
   577   8 o    1.824 --   579 h    0.852   578 h    0.829
   578   1 h    0.883 --   577 o    0.829
   579   1 h    0.887 --   577 o    0.852
   580   8 o    1.861 --   581 h    0.838   582 h    0.799
   581   1 h    0.891 --   580 o    0.838
   582   1 h    0.871 --   580 o    0.799
   583   8 o    1.821 --   584 h    0.879   585 h    0.761
   584   1 h    0.901 --   583 o    0.879
   585   1 h    0.865 --   583 o    0.761
   586   8 o    1.809 --   587 h    0.830   588 h    0.820
   587   1 h    0.886 --   586 o    0.830
   588   1 h    0.879 --   586 o    0.820
   589   8 o    1.859 --   590 h    0.854   591 h    0.787
   590   1 h    0.898 --   589 o    0.854
   591   1 h    0.873 --   589 o    0.787
   592   8 o    1.829 --   593 h    0.868   594 h    0.803
   593   1 h    0.896 --   592 o    0.868
   594   1 h    0.874 --   592 o    0.803
   595   8 o    1.846 --   596 h    0.849   597 h    0.835
   596   1 h    0.893 --   595 o    0.849
   597   1 h    0.886 --   595 o    0.835
   598   8 o    1.828 --   599 h    0.894   600 h    0.819
   599   1 h    0.902 --   598 o    0.894
   600   1 h    0.884 --   598 o    0.819
   601   8 o    1.811 --   603 h    0.887   602 h    0.809
   602   1 h    0.875 --   601 o    0.809
   603   1 h    0.901 --   601 o    0.887
   604   8 o    1.837 --   606 h    0.838   605 h    0.835
   605   1 h    0.884 --   604 o    0.835
   606   1 h    0.884 --   604 o    0.838
   607   8 o    1.821 --   608 h    0.868   609 h    0.827
   608   1 h    0.895 --   607 o    0.868
   609   1 h    0.884 --   607 o    0.827
   610   8 o    1.822 --   611 h    0.879   612 h    0.819
   611   1 h    0.899 --   610 o    0.879
   612   1 h    0.870 --   610 o    0.819
   613   8 o    1.846 --   615 h    0.887   614 h    0.791
   614   1 h    0.875 --   613 o    0.791
   615   1 h    0.902 --   613 o    0.887
   616   8 o    1.855 --   617 h    0.895   618 h    0.805
   617   1 h    0.900 --   616 o    0.895
   618   1 h    0.879 --   616 o    0.805
   619   8 o    1.842 --   621 h    0.884   620 h    0.813
   620   1 h    0.888 --   619 o    0.813
   621   1 h    0.903 --   619 o    0.884
   622   8 o    1.857 --   624 h    0.838   623 h    0.817
   623   1 h    0.891 --   622 o    0.817
   624   1 h    0.892 --   622 o    0.838
   625   8 o    1.861 --   627 h    0.894   626 h    0.806
   626   1 h    0.861 --   625 o    0.806
   627   1 h    0.904 --   625 o    0.894
   628   8 o    1.834 --   630 h    0.870   629 h    0.801
   629   1 h    0.874 --   628 o    0.801
   630   1 h    0.895 --   628 o    0.870
   631   8 o    1.877 --   632 h    0.832   633 h    0.795
   632   1 h    0.888 --   631 o    0.832
   633   1 h    0.865 --   631 o    0.795
   634   8 o    1.808 --   636 h    0.865   635 h    0.822
   635   1 h    0.885 --   634 o    0.822
   636   1 h    0.891 --   634 o    0.865
   637   8 o    1.858 --   639 h    0.835   638 h    0.809
   638   1 h    0.872 --   637 o    0.809
   639   1 h    0.893 --   637 o    0.835
   640   8 o    1.861 --   642 h    0.832   641 h    0.787
   641   1 h    0.874 --   640 o    0.787
   642   1 h    0.894 --   640 o    0.832
   643   8 o    1.837 --   644 h    0.876   645 h    0.816
   644   1 h    0.895 --   643 o    0.876
   645   1 h    0.882 --   643 o    0.816
   646   8 o    1.837 --   648 h    0.894   647 h    0.816
   647   1 h    0.875 --   646 o    0.816
   648   1 h    0.900 --   646 o    0.894
   649   8 o    1.826 --   650 h    0.893   651 h    0.798
   650   1 h    0.902 --   649 o    0.893
   651   1 h    0.883 --   649 o    0.798
   652   8 o    1.864 --   654 h    0.859   653 h    0.825
   653   1 h    0.884 --   652 o    0.825
   654   1 h    0.891 --   652 o    0.859
   655   8 o    1.834 --   656 h    0.831   657 h    0.823
   656   1 h    0.895 --   655 o    0.831
   657   1 h    0.891 --   655 o    0.823
   658   8 o    1.850 --   660 h    0.852   659 h    0.833
   659   1 h    0.883 --   658 o    0.833
   660   1 h    0.881 --   658 o    0.852
   661   8 o    1.887 --   662 h    0.824   663 h    0.816
   662   1 h    0.872 --   661 o    0.824
   663   1 h    0.881 --   661 o    0.816
   664   8 o    1.833 --   665 h    0.852   666 h    0.801
   665   1 h    0.890 --   664 o    0.852
   666   1 h    0.878 --   664 o    0.801
   667   8 o    1.852 --   668 h    0.849   669 h    0.786
   668   1 h    0.894 --   667 o    0.849
   669   1 h    0.868 --   667 o    0.786
   670   8 o    1.875 --   671 h    0.839   672 h    0.836
   671   1 h    0.890 --   670 o    0.839
   672   1 h    0.876 --   670 o    0.836
   673   8 o    1.846 --   675 h    0.829   674 h    0.822
   674   1 h    0.889 --   673 o    0.822
   675   1 h    0.884 --   673 o    0.829
   676   8 o    1.844 --   678 h    0.855   677 h    0.845
   677   1 h    0.886 --   676 o    0.845
   678   1 h    0.886 --   676 o    0.855
   679   8 o    1.865 --   681 h    0.863   680 h    0.802
   680   1 h    0.866 --   679 o    0.802
   681   1 h    0.896 --   679 o    0.863
   682   8 o    1.868 --   684 h    0.859   683 h    0.789
   683   1 h    0.868 --   682 o    0.789
   684   1 h    0.892 --   682 o    0.859
   685   8 o    1.842 --   686 h    0.847   687 h    0.817
   686   1 h    0.893 --   685 o    0.847
   687   1 h    0.878 --   685 o    0.817
   688   8 o    1.839 --   690 h    0.854   689 h    0.838
   689   1 h    0.888 --   688 o    0.838
   690   1 h    0.891 --   688 o    0.854
   691   8 o    1.867 --   693 h    0.837   692 h    0.801
   692   1 h    0.889 --   691 o    0.801
   693   1 h    0.891 --   691 o    0.837
   694   8 o    1.880 --   695 h    0.870   696 h    0.792
   695   1 h    0.897 --   694 o    0.870
   696   1 h    0.878 --   694 o    0.792
   697   8 o    1.837 --   699 h    0.855   698 h    0.806
   698   1 h    0.875 --   697 o    0.806
   699   1 h    0.893 --   697 o    0.855
   700   8 o    1.789 --   701 h    0.846   702 h    0.815
   701   1 h    0.898 --   700 o    0.846
   702   1 h    0.880 --   700 o    0.815
   703   8 o    1.850 --   704 h    0.830   705 h    0.819
   704   1 h    0.880 --   703 o    0.830
   705   1 h    0.877 --   703 o    0.819
   706   8 o    1.879 --   708 h    0.847   707 h    0.835
   707   1 h    0.882 --   706 o    0.835
   708   1 h    0.887 --   706 o    0.847
   709   8 o    1.804 --   711 h    0.846   710 h    0.818
   710   1 h    0.888 --   709 o    0.818
   711   1 h    0.895 --   709 o    0.846
   712   8 o    1.863 --   713 h    0.827   714 h    0.786
   713   1 h    0.890 --   712 o    0.827
   714   1 h    0.869 --   712 o    0.786
   715   8 o    1.825 --   716 h    0.867   717 h    0.820
   716   1 h    0.893 --   715 o    0.867
   717   1 h    0.883 --   715 o    0.820
   718   8 o    1.828 --   719 h    0.881   720 h    0.802
   719   1 h    0.900 --   718 o    0.881
   720   1 h    0.871 --   718 o    0.802
   721   8 o    1.847 --   723 h    0.859   722 h    0.826
   722   1 h    0.882 --   721 o    0.826
   723   1 h    0.886 --   721 o    0.859
   724   8 o    1.871 --   726 h    0.829   725 h    0.805
   725   1 h    0.877 --   724 o    0.805
   726   1 h    0.889 --   724 o    0.829
   727   8 o    1.826 --   728 h    0.874   729 h    0.817
   728   1 h    0.891 --   727 o    0.874
   729   1 h    0.880 --   727 o    0.817
   730   8 o    1.850 --   731 h    0.898   732 h    0.784
   731   1 h    0.904 --   730 o    0.898
   732   1 h    0.876 --   730 o    0.784
   733   8 o    1.853 --   735 h    0.838   734 h    0.783
   734   1 h    0.869 --   733 o    0.783
   735   1 h    0.894 --   733 o    0.838
   736   8 o    1.856 --   738 h    0.851   737 h    0.763
   737   1 h    0.867 --   736 o    0.763
   738   1 h    0.894 --   736 o    0.851
   739   8 o    1.811 --   740 h    0.855   741 h    0.838
   740   1 h    0.892 --   739 o    0.855
   741   1 h    0.883 --   739 o    0.838
   742   8 o    1.821 --   744 h    0.864   743 h    0.813
   743   1 h    0.875 --   742 o    0.813
   744   1 h    0.893 --   742 o    0.864
   745   8 o    1.854 --   747 h    0.822   746 h    0.818
   746   1 h    0.879 --   745 o    0.818
   747   1 h    0.879 --   745 o    0.822
   748   8 o    1.877 --   749 h    0.843   750 h    0.778
   749   1 h    0.885 --   748 o    0.843
   750   1 h    0.865 --   748 o    0.778
   751   8 o    1.872 --   752 h    0.853   753 h    0.821
   752   1 h    0.888 --   751 o    0.853
   753   1 h    0.877 --   751 o    0.821
   754   8 o    1.839 --   756 h    0.900   755 h    0.850
   755   1 h    0.885 --   754 o    0.850
   756   1 h    0.905 --   754 o    0.900
 ---------------------------------------------------------------------------

Topologies differ in total number of bonds
Writing topology from bond orders to xtbtopo.mol

molecular dipole:
                 x           y           z       tot (Debye)
 q only:        0.723       0.256      -1.498
   full:        0.244      -0.055      -2.102       5.379
molecular quadrupole (traceless):
                xx          xy          yy          xz          yz          zz
 q only:      184.755      63.250    -145.516      33.994      -8.000     -39.239
  q+dip:      230.754      97.063    -185.332      38.003     -12.904     -45.423
   full:      231.762      99.510    -185.524      36.874     -13.294     -46.238


           -------------------------------------------------
          | TOTAL ENERGY            -1283.561547308355 Eh   |
          | GRADIENT NORM               0.116127422660 Eh/α |
          | HOMO-LUMO GAP               7.057506683532 eV   |
           -------------------------------------------------

------------------------------------------------------------------------
 * finished run on 2022/11/24 at 12:21:37.554     
------------------------------------------------------------------------
 total:
 * wall-time:     0 d,  0 h,  0 min, 20.870 sec
 *  cpu-time:     0 d,  0 h,  0 min, 33.244 sec
 * ratio c/w:     1.593 speedup
 SCF:
 * wall-time:     0 d,  0 h,  0 min, 19.863 sec
 *  cpu-time:     0 d,  0 h,  0 min, 31.540 sec
 * ratio c/w:     1.588 speedup

