      -----------------------------------------------------------      
     |                   =====================                   |     
     |                           x T B                           |     
     |                   =====================                   |     
     |                         S. Grimme                         |     
     |          Mulliken Center for Theoretical Chemistry        |     
     |                    University of Bonn                     |     
      -----------------------------------------------------------      

   * xtb version 6.5.1 (579679a) compiled by 'ehlert@majestix' on 2022-07-11

   xtb is free software: you can redistribute it and/or modify it under
   the terms of the GNU Lesser General Public License as published by
   the Free Software Foundation, either version 3 of the License, or
   (at your option) any later version.
   
   xtb is distributed in the hope that it will be useful,
   but WITHOUT ANY WARRANTY; without even the implied warranty of
   MERCHANTABILITY or FITNESS FOR A PARTICULAR PURPOSE.  See the
   GNU Lesser General Public License for more details.
   
   Cite this work as:
   * C. Bannwarth, E. Caldeweyher, S. Ehlert, A. Hansen, P. Pracht,
     J. Seibert, S. Spicher, S. Grimme, WIREs Comput. Mol. Sci., 2020, 11,
     e01493. DOI: 10.1002/wcms.1493
   
   for GFN2-xTB:
   * C. Bannwarth, S. Ehlert and S. Grimme., J. Chem. Theory Comput., 2019,
     15, 1652-1671. DOI: 10.1021/acs.jctc.8b01176
   for GFN1-xTB:
   * S. Grimme, C. Bannwarth, P. Shushkov, J. Chem. Theory Comput., 2017,
     13, 1989-2009. DOI: 10.1021/acs.jctc.7b00118
   for GFN0-xTB:
   * P. Pracht, E. Caldeweyher, S. Ehlert, S. Grimme, ChemRxiv, 2019, preprint.
     DOI: 10.26434/chemrxiv.8326202.v1
   for GFN-FF:
   * S. Spicher and S. Grimme, Angew. Chem. Int. Ed., 2020, 59, 15665-15673.
     DOI: 10.1002/anie.202004239
   
   for ALPB and GBSA implicit solvation:
   * S. Ehlert, M. Stahn, S. Spicher, S. Grimme, J. Chem. Theory Comput.,
     2021, 17, 4250-4261. DOI: 10.1021/acs.jctc.1c00471
   
   for DFT-D4:
   * E. Caldeweyher, C. Bannwarth and S. Grimme, J. Chem. Phys., 2017,
     147, 034112. DOI: 10.1063/1.4993215
   * E. Caldeweyher, S. Ehlert, A. Hansen, H. Neugebauer, S. Spicher,
     C. Bannwarth and S. Grimme, J. Chem. Phys., 2019, 150, 154122.
     DOI: 10.1063/1.5090222
   * E. Caldeweyher, J.-M. Mewes, S. Ehlert and S. Grimme, Phys. Chem. Chem. Phys.
     2020, 22, 8499-8512. DOI: 10.1039/D0CP00502A
   
   for sTDA-xTB:
   * S. Grimme and C. Bannwarth, J. Chem. Phys., 2016, 145, 054103.
     DOI: 10.1063/1.4959605
   
   in the mass-spec context:
   * V. Asgeirsson, C. Bauer and S. Grimme, Chem. Sci., 2017, 8, 4879.
     DOI: 10.1039/c7sc00601b
   * J. Koopman and S. Grimme, ACS Omega 2019, 4, 12, 15120-15133.
     DOI: 10.1021/acsomega.9b02011
   
   for metadynamics refer to:
   * S. Grimme, J. Chem. Theory Comput., 2019, 155, 2847-2862
     DOI: 10.1021/acs.jctc.9b00143
   
   for SPH calculations refer to:
   * S. Spicher and S. Grimme, J. Chem. Theory Comput., 2021, 17, 1701-1714
     DOI: 10.1021/acs.jctc.0c01306
   
   with help from (in alphabetical order)
   P. Atkinson, C. Bannwarth, F. Bohle, G. Brandenburg, E. Caldeweyher
   M. Checinski, S. Dohm, S. Ehlert, S. Ehrlich, I. Gerasimov, C. Hölzer
   A. Katbashev, J. Koopman, C. Lavigne, S. Lehtola, F. März, M. Müller,
   F. Musil, H. Neugebauer, J. Pisarek, C. Plett, P. Pracht, F. Pultar,
   J. Seibert, P. Shushkov, S. Spicher, M. Stahn, M. Steiner, T. Strunk,
   J. Stückrath, T. Rose, and J. Unsleber
   
 * started run on 2022/11/24 at 12:21:40.834     

           -------------------------------------------------
          |                Calculation Setup                |
           -------------------------------------------------

          program call               : xtb solvent_cluster.coord --gfn2 --sp --lmo --chrg 0
          hostname                   : cn0430
          coordinate file            : solvent_cluster.coord
          omp threads                :                     2

   ID    Z sym.   atoms
    1    8 o      1, 4, 7, 10, 13, 16, 19, 22, 25, 28, 31, 34, 37, 40, 43,
                  46, 49, 52, 55, 58, 61, 64, 67, 70, 73, 76, 79, 82, 85, 88,
                  91, 94, 97, 100, 103, 106, 109, 112, 115, 118, 121, 124,
                  127, 130, 133, 136, 139, 142, 145, 148, 151, 154, 157, 160,
                  163, 166, 169, 172, 175, 178, 181, 184, 187, 190, 193, 196,
                  199, 202, 205, 208, 211, 214, 217, 220, 223, 226, 229, 232,
                  235, 238, 241, 244, 247, 250, 253, 256, 259, 262, 265, 268,
                  271, 274, 277, 280, 283, 286, 289, 292, 295, 298, 301, 304,
                  307, 310, 313, 316, 319, 322, 325, 328, 331, 334, 337, 340,
                  343, 346, 349, 352, 355, 358, 361, 364, 367, 370, 373, 376,
                  379, 382, 385, 388, 391, 394, 397, 400, 403, 406, 409, 412,
                  415, 418, 421, 424, 427, 430, 433, 436, 439, 442, 445, 448,
                  451, 454, 457, 460, 463, 466, 469, 472, 475, 478, 481, 484,
                  487, 490, 493, 496, 499, 502, 505, 508, 511, 514, 517, 520,
                  523, 526, 529, 532, 535, 538, 541, 544, 547, 550, 553, 556,
                  559, 562, 565, 568, 571, 574, 577, 580, 583, 586, 589, 592,
                  595, 598, 601, 604, 607, 610, 613, 616, 619, 622, 625, 628,
                  631, 634, 637, 640, 643, 646, 649, 652, 655, 658, 661, 664,
                  667, 670, 673, 676, 679, 682, 685, 688, 691, 694, 697, 700,
                  703, 706, 709, 712, 715, 718, 721, 724, 727, 730, 733, 736,
                  739, 742, 745, 748, 751, 754
    2    1 h      2, 3, 5, 6, 8, 9, 11, 12, 14, 15, 17, 18, 20, 21, 23, 24,
                  26, 27, 29, 30, 32, 33, 35, 36, 38, 39, 41, 42, 44, 45, 47,
                  48, 50, 51, 53, 54, 56, 57, 59, 60, 62, 63, 65, 66, 68, 69,
                  71, 72, 74, 75, 77, 78, 80, 81, 83, 84, 86, 87, 89, 90, 92,
                  93, 95, 96, 98, 99, 101, 102, 104, 105, 107, 108, 110, 111,
                  113, 114, 116, 117, 119, 120, 122, 123, 125, 126, 128, 129,
                  131, 132, 134, 135, 137, 138, 140, 141, 143, 144, 146, 147,
                  149, 150, 152, 153, 155, 156, 158, 159, 161, 162, 164, 165,
                  167, 168, 170, 171, 173, 174, 176, 177, 179, 180, 182, 183,
                  185, 186, 188, 189, 191, 192, 194, 195, 197, 198, 200, 201,
                  203, 204, 206, 207, 209, 210, 212, 213, 215, 216, 218, 219,
                  221, 222, 224, 225, 227, 228, 230, 231, 233, 234, 236, 237,
                  239, 240, 242, 243, 245, 246, 248, 249, 251, 252, 254, 255,
                  257, 258, 260, 261, 263, 264, 266, 267, 269, 270, 272, 273,
                  275, 276, 278, 279, 281, 282, 284, 285, 287, 288, 290, 291,
                  293, 294, 296, 297, 299, 300, 302, 303, 305, 306, 308, 309,
                  311, 312, 314, 315, 317, 318, 320, 321, 323, 324, 326, 327,
                  329, 330, 332, 333, 335, 336, 338, 339, 341, 342, 344, 345,
                  347, 348, 350, 351, 353, 354, 356, 357, 359, 360, 362, 363,
                  365, 366, 368, 369, 371, 372, 374, 375, 377, 378, 380, 381,
                  383, 384, 386, 387, 389, 390, 392, 393, 395, 396, 398, 399,
                  401, 402, 404, 405, 407, 408, 410, 411, 413, 414, 416, 417,
                  419, 420, 422, 423, 425, 426, 428, 429, 431, 432, 434, 435,
                  437, 438, 440, 441, 443, 444, 446, 447, 449, 450, 452, 453,
                  455, 456, 458, 459, 461, 462, 464, 465, 467, 468, 470, 471,
                  473, 474, 476, 477, 479, 480, 482, 483, 485, 486, 488, 489,
                  491, 492, 494, 495, 497, 498, 500, 501, 503, 504, 506, 507,
                  509, 510, 512, 513, 515, 516, 518, 519, 521, 522, 524, 525,
                  527, 528, 530, 531, 533, 534, 536, 537, 539, 540, 542, 543,
                  545, 546, 548, 549, 551, 552, 554, 555, 557, 558, 560, 561,
                  563, 564, 566, 567, 569, 570, 572, 573, 575, 576, 578, 579,
                  581, 582, 584, 585, 587, 588, 590, 591, 593, 594, 596, 597,
                  599, 600, 602, 603, 605, 606, 608, 609, 611, 612, 614, 615,
                  617, 618, 620, 621, 623, 624, 626, 627, 629, 630, 632, 633,
                  635, 636, 638, 639, 641, 642, 644, 645, 647, 648, 650, 651,
                  653, 654, 656, 657, 659, 660, 662, 663, 665, 666, 668, 669,
                  671, 672, 674, 675, 677, 678, 680, 681, 683, 684, 686, 687,
                  689, 690, 692, 693, 695, 696, 698, 699, 701, 702, 704, 705,
                  707, 708, 710, 711, 713, 714, 716, 717, 719, 720, 722, 723,
                  725, 726, 728, 729, 731, 732, 734, 735, 737, 738, 740, 741,
                  743, 744, 746, 747, 749, 750, 752, 753, 755, 756

molecular fragmentation (1/2 indicates fragments):
111222222222222222222222222222222222222222222222222222222222222222222222
222222222222222222222222222222222222222222222222222222222222222222222222
222222222222222222222222222222222222222222222222222222222222222222222222
222222222222222222222222222222222222222222222222222222222222222222222222
222222222222222222222222222222222222222222222222222222222222222222222222
222222222222222222222222222222222222222222222222222222222222222222222222
222222222222222222222222222222222222222222222222222222222222222222222222
222222222222222222222222222222222222222222222222222222222222222222222222
222222222222222222222222222222222222222222222222222222222222222222222222
222222222222222222222222222222222222222222222222222222222222222222222222
222222222222222222222222222222222222
# atoms in fragment 1/2:     3   753
 fragment masses (1/2) :       18.02     4521.84
CMA distance (Bohr)    :  16.778
constraining FC (au)   :  0.0500

           -------------------------------------------------
          |                 G F N 2 - x T B                 |
           -------------------------------------------------

        Reference                      10.1021/acs.jctc.8b01176
      * Hamiltonian:
        H0-scaling (s, p, d)           1.850000    2.230000    2.230000
        zeta-weighting                 0.500000
      * Dispersion:
        s8                             2.700000
        a1                             0.520000
        a2                             5.000000
        s9                             5.000000
      * Repulsion:
        kExp                           1.500000    1.000000
        rExp                           1.000000
      * Coulomb:
        alpha                          2.000000
        third order                    shell-resolved
        anisotropic                    true
        a3                             3.000000
        a5                             4.000000
        cn-shift                       1.200000
        cn-exp                         4.000000
        max-rad                        5.000000


          ...................................................
          :                      SETUP                      :
          :.................................................:
          :  # basis functions                1512          :
          :  # atomic orbitals                1512          :
          :  # shells                         1008          :
          :  # electrons                      2016          :
          :  max. iterations                   250          :
          :  Hamiltonian                  GFN2-xTB          :
          :  restarted?                      false          :
          :  GBSA solvation                  false          :
          :  PC potential                    false          :
          :  electronic temp.          300.0000000     K    :
          :  accuracy                    1.0000000          :
          :  -> integral cutoff          0.2500000E+02      :
          :  -> integral neglect         0.1000000E-07      :
          :  -> SCF convergence          0.1000000E-05 Eh   :
          :  -> wf. convergence          0.1000000E-03 e    :
          :  Broyden damping             0.4000000          :
          ...................................................

 iter      E             dE          RMSdq      gap      omega  full diag
   1  -1290.9829148 -0.129098E+04  0.406E+00    8.44       0.0  T
   2  -1291.0593480 -0.764332E-01  0.241E+00    7.32       1.0  T
   3  -1291.0907501 -0.314021E-01  0.209E-01    5.77       1.0  T
   4  -1291.0960609 -0.531085E-02  0.460E-02    6.22       1.0  T
   5  -1291.0961403 -0.793904E-04  0.308E-02    6.15       1.0  T
   6  -1291.0961797 -0.393487E-04  0.448E-03    6.19       1.0  T
   7  -1291.0961824 -0.273423E-05  0.752E-04    6.19       4.8  T
   8  -1291.0961824 -0.314658E-07  0.367E-04    6.19       9.9  T
   9  -1291.0961824 -0.127432E-07  0.733E-05    6.19      49.6  T

   *** convergence criteria satisfied after 9 iterations ***

         #    Occupation            Energy/Eh            Energy/eV
      -------------------------------------------------------------
         1        2.0000           -0.6896628             -18.7667
       ...           ...                  ...                  ...
      1002        2.0000           -0.3403328              -9.2609
      1003        2.0000           -0.3399454              -9.2504
      1004        2.0000           -0.3376198              -9.1871
      1005        2.0000           -0.3363447              -9.1524
      1006        2.0000           -0.3346771              -9.1070
      1007        2.0000           -0.3174737              -8.6389
      1008        2.0000           -0.3136559              -8.5350 (HOMO)
      1009                         -0.0862718              -2.3476 (LUMO)
      1010                         -0.0711328              -1.9356
      1011                         -0.0636306              -1.7315
      1012                         -0.0561302              -1.5274
      1013                         -0.0520583              -1.4166
       ...                                ...                  ...
      1512                          0.5105967              13.8940
      -------------------------------------------------------------
                  HL-Gap            0.2273840 Eh            6.1874 eV
             Fermi-level           -0.1999639 Eh           -5.4413 eV
 
 localization/xTB-IFF output generation
 averaging CT terms over            2  occ. levels
 averaging CT terms over            1  virt. levels
 dipole moment from electron density (au)
     X       Y       Z   
   0.1149  -0.1024  -1.8016  total (Debye):    4.596
cpu  time for init local    0.78 s
wall time for init local    0.40 s
 doing rotations ...
 initialization of trafo matrix to unity

 converged in     16 iterations, threshold :   0.99999414D-06
 doing transformations ...
 lmo centers(Z=2) and atoms on file <lmocent.coord>
 LMO Fii/eV  ncent    charge center   contributions...
    1 LP   *******   0.00  -8.54567  -8.12305   4.64530  271O : 25.25  697O : 19.85  352O : 17.52  568O : 17.09  457O : 16.38  325O : 15.80  247O : 15.74  172O : 15.47  166O : 14.60   49O : 14.34  250O : 13.14   52O : 13.04
  724O : 12.64  478O : 12.43  451O : 12.40  574O : 12.39  505O : 12.36  601O : 11.96  712O : 11.28   10O : 11.28  388O : 11.16  709O : 11.13  157O : 11.08  445O : 10.89
  664O : 10.86   40O : 10.82  430O : 10.68  274O : 10.30   13O : 10.21  121O : 10.12  154O : 10.08  661O :  9.99  700O :  9.90  253O :  9.46  370O :  9.27  232O :  9.21
  706O :  9.20  295O :  9.05   43O :  8.77  151O :  8.46  403O :  8.39  448O :  8.38   91O :  8.25  211O :  8.08  502O :  7.94  412O :  7.79  187O :  7.63  244O :  7.47
   73O :  7.38   25O :  7.24  454O :  7.24  118O :  7.21    1O :  7.09  487O :  7.07  694O :  7.00   16O :  7.00  361O :  6.98  553O :  6.90  310O :  6.70   94O :  6.55
  331O :  6.53  145O :  6.53  571O :  6.53  184O :  6.47   85O :  6.44  421O :  6.37  589O :  6.35  673O :  6.28   34O :  6.27  307O :  6.23    4O :  6.17  238O :  6.14
  607O :  6.14  133O :  6.12  622O :  6.11   28O :  6.08  442O :  6.05  745O :  6.03  418O :  5.97    7O :  5.95  103O :  5.92  322O :  5.89   37O :  5.75  241O :  5.63
  262O :  5.63  115O :  5.61  670O :  5.58  169O :  5.57  382O :  5.51   22O :  5.49  148O :  5.41  400O :  5.34  742O :  5.33  640O :  5.19  283O :  5.18  628O :  5.18
  124O :  5.17  277O :  5.11  619O :  5.09  100O :  5.00  349O :  4.89  583O :  4.82   31O :  4.82  181O :  4.80  217O :  4.80  214O :  4.68  130O :  4.65   61O :  4.62
  196O :  4.54  631O :  4.46  493O :  4.44   67O :  4.40  136O :  4.31  373O :  4.30  235O :  4.26   58O :  4.25   79O :  4.21  391O :  4.17  475O :  4.15  415O :  4.10
  676O :  4.07  466O :  4.05  346O :  4.00  658O :  4.00  496O :  3.92  514O :  3.91  592O :  3.91  736O :  3.89   88O :  3.89  355O :  3.88  739O :  3.88  301O :  3.81
  163O :  3.70  109O :  3.67  538O :  3.67  562O :  3.61  727O :  3.59  367O :  3.53  376O :  3.51  679O :  3.50  112O :  3.48  586O :  3.46  340O :  3.40  751O :  3.36
   76O :  3.31  463O :  3.24  691O :  3.18  517O :  3.18  259O :  3.15  286O :  3.14  394O :  3.06  439O :  3.03  613O :  2.99  703O :  2.98  190O :  2.97  328O :  2.90
  127O :  2.83  532O :  2.82   70O :  2.76  409O :  2.73  106O :  2.73  343O :  2.58  174H :  2.54   55O :  2.53  616O :  2.52  541O :  2.52  535O :  2.49  311H :  2.48
  520O :  2.45  472O :  2.40  730O :  2.25  268O :  2.21  364O :  2.15  688O :  2.13  556O :  2.12  565O :  2.07  577O :  2.03  337O :  2.02  208O :  1.97  649O :  1.93
  459H :  1.91   82O :  1.90  667O :  1.88   97O :  1.87  550O :  1.76  754O :  1.75  444H :  1.75  120H :  1.74  199O :  1.74  226O :  1.73  499O :  1.73  202O :  1.67
   19O :  1.64  333H :  1.61  243H :  1.61  193O :  1.60  255H :  1.56  265O :  1.55  484O :  1.50  559O :  1.49  137H :  1.49  625O :  1.45  385O :  1.45  354H :  1.44
  637O :  1.42   53H :  1.41  313O :  1.39  316O :  1.38   50H :  1.38  666H :  1.37  490O :  1.36  718O :  1.33  175O :  1.33  178O :  1.32  205O :  1.32  655O :  1.29
  233H :  1.27  406O :  1.27  696H :  1.24  304O :  1.24  229O :  1.24  220O :  1.23  748O :  1.21   11H :  1.20  142O :  1.16  339H :  1.14  610O :  1.14  746H :  1.09
  598O :  1.08  436O :  1.06  280O :  1.05   56H :  1.05  523O :  1.03  595O :  1.02  544O :  1.01  526O :  1.00  507H :  0.99  710H :  0.98  481O :  0.96  319O :  0.96
  160O :  0.95  397O :  0.94  646O :  0.93  580O :  0.92  634O :  0.92  569H :  0.88   46O :  0.88  643O :  0.86   12H :  0.85  155H :  0.84  246H :  0.80  197H :  0.80
   75H :  0.79  180H :  0.78  682O :  0.76  543H :  0.76  292O :  0.73  590H :  0.73  503H :  0.73  296H :  0.73   44H :  0.72  139O :  0.71  398H :  0.71  593H :  0.71
   87H :  0.70  312H :  0.70  215H :  0.70  407H :  0.69   45H :  0.67  116H :  0.65  256O :  0.65   18H :  0.63   29H :  0.63  527H :  0.63  715O :  0.63   54H :  0.63
  348H :  0.62  122H :  0.62   64O :  0.61  366H :  0.61  604O :  0.60  213H :  0.60  584H :  0.59  460O :  0.59  675H :  0.58  685O :  0.58  477H :  0.57  702H :  0.57
  125H :  0.57  554H :  0.56  309H :  0.55  473H :  0.55  276H :  0.55  344H :  0.55  288H :  0.54  297H :  0.54  614H :  0.53  131H :  0.53  135H :  0.52  433O :  0.52
  170H :  0.51  389H :  0.51  201H :  0.50  300H :  0.49  105H :  0.48  371H :  0.47  508O :  0.47  102H :  0.47  674H :  0.46  223O :  0.46   24H :  0.46  588H :  0.46
  287H :  0.45  453H :  0.45  182H :  0.45   23H :  0.45  678H :  0.45  378H :  0.44  435H :  0.44  298O :  0.44  652O :  0.44    3H :  0.44   35H :  0.43  449H :  0.43
   33H :  0.43  570H :  0.42  704H :  0.42  341H :  0.41  379O :  0.41  289O :  0.41  252H :  0.40  185H :  0.40  368H :  0.40  537H :  0.40  219H :  0.40  591H :  0.40
  266H :  0.40   69H :  0.39  237H :  0.39  198H :  0.39  123H :  0.39  440H :  0.38  479H :  0.38  707H :  0.37  699H :  0.37   90H :  0.37  318H :  0.37  660H :  0.36
   95H :  0.36  708H :  0.36  495H :  0.36  752H :  0.36  740H :  0.36  693H :  0.35  134H :  0.35  128H :  0.34  419H :  0.34  350H :  0.34  469O :  0.33  721O :  0.33
  410H :  0.33  516H :  0.33  149H :  0.32  396H :  0.32  147H :  0.32  560H :  0.31  358O :  0.31  338H :  0.31  273H :  0.30  714H :  0.30  210H :  0.30  326H :  0.30
   32H :  0.30  152H :  0.30  733O :  0.29  744H :  0.29   42H :  0.28  279H :  0.28  369H :  0.28  585H :  0.28  405H :  0.28  156H :  0.27  334O :  0.27   47H :  0.27
  573H :  0.27   41H :  0.27  506H :  0.27  189H :  0.27  404H :  0.26  511O :  0.26  278H :  0.26  119H :  0.26  641H :  0.26  672H :  0.25  402H :  0.25  681H :  0.25
  525H :  0.24  594H :  0.24  150H :  0.24  575H :  0.24  558H :  0.24  722H :  0.23  365H :  0.23   74H :  0.23  482H :  0.23  308H :  0.23  188H :  0.22  713H :  0.22
  251H :  0.22  431H :  0.22  737H :  0.22  275H :  0.21  153H :  0.21  254H :  0.21  261H :  0.20  474H :  0.20  629H :  0.20  231H :  0.20   30H :  0.20  377H :  0.20
    6H :  0.20  146H :  0.20  360H :  0.20  555H :  0.20  716H :  0.19  567H :  0.19  671H :  0.19  743H :  0.18   72H :  0.18  491H :  0.18  372H :  0.18  683H :  0.18
  195H :  0.18  159H :  0.18  498H :  0.18  618H :  0.18  738H :  0.17   81H :  0.17  500H :  0.17  630H :  0.17  414H :  0.17  606H :  0.17  540H :  0.17  545H :  0.17
  542H :  0.17  719H :  0.17  306H :  0.17  186H :  0.16  579H :  0.16  380H :  0.16  140H :  0.16  533H :  0.16   71H :  0.16   93H :  0.16  684H :  0.15  464H :  0.15
   66H :  0.15  424O :  0.15  731H :  0.15   86H :  0.15  260H :  0.14   77H :  0.14  293H :  0.14  636H :  0.14  654H :  0.14  357H :  0.14  347H :  0.13  234H :  0.13
  529O :  0.13  401H :  0.13  192H :  0.13  720H :  0.13  162H :  0.13  171H :  0.13  126H :  0.13  315H :  0.13    2H :  0.13  285H :  0.13  272H :  0.12  447H :  0.12
  422H :  0.12  611H :  0.12  497H :  0.12  692H :  0.12  384H :  0.12  522H :  0.12  420H :  0.12   38H :  0.12  650H :  0.11  167H :  0.11  335H :  0.11  483H :  0.11
  429H :  0.11  547O :  0.11  425H :  0.11   59H :  0.11  427O :  0.11  375H :  0.11  564H :  0.11   99H :  0.11  572H :  0.11  413H :  0.11  329H :  0.11   63H :  0.10
  515H :  0.10  521H :  0.10  144H :  0.10  416H :  0.10  417H :  0.10  455H :  0.10  609H :  0.10   39H :  0.10  191H :  0.09  504H :  0.09  320H :  0.09   14H :  0.09
  177H :  0.09  624H :  0.09  284H :  0.09  468H :  0.09  437H :  0.09  206H :  0.09  200H :  0.08  626H :  0.08  645H :  0.08  741H :  0.08  143H :  0.08  299H :  0.08
   68H :  0.08  597H :  0.08  467H :  0.08   51H :  0.08  536H :  0.08  114H :  0.08  204H :  0.08  249H :  0.08  711H :  0.08   78H :  0.07  600H :  0.07  129H :  0.07
  438H :  0.07  164H :  0.07
    2 LP   *******   0.00 -32.29210 -26.03596   0.32427  271O : 22.43  568O : 19.80  697O : 18.83  352O : 16.61  457O : 15.53  325O : 14.98  247O : 14.93  172O : 14.67  166O : 13.85   49O : 13.60  250O : 12.47   52O : 12.37
  724O : 11.99  478O : 11.79  451O : 11.76  574O : 11.75  505O : 11.72  601O : 11.34   10O : 10.70  712O : 10.70  388O : 10.59  709O : 10.56  157O : 10.51  445O : 10.33
  664O : 10.30   40O : 10.26  430O : 10.13  274O :  9.77   13O :  9.68  121O :  9.60  154O :  9.56  661O :  9.48  700O :  9.39  253O :  8.97  370O :  8.79  232O :  8.74
  706O :  8.73  295O :  8.58   43O :  8.32  151O :  8.02  403O :  7.95  448O :  7.95   91O :  7.82  211O :  7.66  502O :  7.53  412O :  7.39  118O :  7.27  187O :  7.23
  244O :  7.09   73O :  7.00   25O :  6.87  454O :  6.87    1O :  6.72  487O :  6.70   16O :  6.69  694O :  6.64  361O :  6.62  553O :  6.55  310O :  6.36   94O :  6.22
  331O :  6.21  145O :  6.19  571O :  6.19  184O :  6.14   85O :  6.11  421O :  6.04  589O :  6.02  673O :  5.95   34O :  5.95  307O :  5.91    4O :  5.85  607O :  5.82
  133O :  5.81  238O :  5.79  622O :  5.79   28O :  5.77  442O :  5.73  745O :  5.72  418O :  5.67    7O :  5.64  103O :  5.62  322O :  5.59   37O :  5.45  670O :  5.43
  241O :  5.34  262O :  5.34  115O :  5.32  169O :  5.28  382O :  5.23   22O :  5.21  148O :  5.14  400O :  5.07  742O :  5.05  640O :  4.92  283O :  4.92  628O :  4.91
  124O :  4.90  277O :  4.85  619O :  4.82  100O :  4.74  349O :  4.64   31O :  4.57  583O :  4.57  217O :  4.55  181O :  4.53  214O :  4.44  130O :  4.41   61O :  4.34
  196O :  4.31  631O :  4.23  493O :  4.22   67O :  4.18  136O :  4.09  373O :  4.08  235O :  4.04   58O :  4.03   79O :  4.00  391O :  3.95  475O :  3.94  415O :  3.89
  676O :  3.86  466O :  3.84  658O :  3.79  346O :  3.79  496O :  3.72  514O :  3.71  592O :  3.70  736O :  3.69   88O :  3.69  739O :  3.68  355O :  3.68  301O :  3.61
  163O :  3.51  109O :  3.48  538O :  3.48  562O :  3.42  727O :  3.40  367O :  3.35  376O :  3.33  679O :  3.32  112O :  3.30  586O :  3.25  340O :  3.22  751O :  3.18
   76O :  3.14  463O :  3.08  691O :  3.02  517O :  3.02  259O :  2.98  286O :  2.98  394O :  2.90  439O :  2.87  613O :  2.83  703O :  2.82  190O :  2.82  328O :  2.75
  127O :  2.69  532O :  2.67   70O :  2.62  409O :  2.59  106O :  2.58  343O :  2.45  174H :  2.40  616O :  2.39  541O :  2.39   55O :  2.37  535O :  2.36  311H :  2.36
  520O :  2.32  472O :  2.28  730O :  2.13  268O :  2.10  364O :  2.04  688O :  2.02  556O :  2.01  565O :  1.96  577O :  1.93  337O :  1.89  667O :  1.88  208O :  1.87
  649O :  1.83  459H :  1.81   82O :  1.80   97O :  1.77  550O :  1.67  120H :  1.66  754O :  1.66  444H :  1.66  199O :  1.64  226O :  1.64  499O :  1.64  202O :  1.59
   19O :  1.55  333H :  1.53  243H :  1.52  193O :  1.52  255H :  1.48  265O :  1.47  559O :  1.42  137H :  1.41  625O :  1.37  385O :  1.37  354H :  1.37  484O :  1.35
  637O :  1.35   53H :  1.34  313O :  1.32  316O :  1.31   50H :  1.31  666H :  1.30  490O :  1.29  718O :  1.26  175O :  1.26  178O :  1.25  205O :  1.25  655O :  1.23
  233H :  1.21  406O :  1.20  696H :  1.18  304O :  1.18  229O :  1.18  220O :  1.17  748O :  1.14   11H :  1.14  142O :  1.10  339H :  1.08  610O :  1.07  746H :  1.03
  598O :  1.03  436O :  1.00   56H :  0.99  280O :  0.99  523O :  0.98  595O :  0.97  544O :  0.96  526O :  0.95  507H :  0.94  710H :  0.93  481O :  0.91  319O :  0.91
  160O :  0.90  397O :  0.89  646O :  0.88  580O :  0.88  634O :  0.87   46O :  0.83  643O :  0.82   12H :  0.80  155H :  0.80  569H :  0.76  246H :  0.76  197H :  0.75
   75H :  0.75  180H :  0.74  682O :  0.72  543H :  0.72  292O :  0.69  590H :  0.69  503H :  0.69  296H :  0.69   44H :  0.68  398H :  0.67  593H :  0.67   87H :  0.66
  312H :  0.66  215H :  0.66  407H :  0.65   45H :  0.63  139O :  0.63   18H :  0.62  116H :  0.62  256O :  0.62   29H :  0.60  527H :  0.60  715O :  0.59   54H :  0.59
  348H :  0.59  122H :  0.59   64O :  0.58  366H :  0.57  604O :  0.57  213H :  0.56  584H :  0.56  460O :  0.56  675H :  0.55  685O :  0.55  477H :  0.55  702H :  0.54
  125H :  0.54  554H :  0.53  309H :  0.52  473H :  0.52  276H :  0.52  344H :  0.52  288H :  0.51  297H :  0.51  614H :  0.51  131H :  0.50  135H :  0.49  433O :  0.49
  170H :  0.49  389H :  0.48  201H :  0.48  300H :  0.46  105H :  0.46  371H :  0.45  508O :  0.45  102H :  0.45  674H :  0.44  223O :  0.44   24H :  0.44  287H :  0.43
  453H :  0.43  182H :  0.43   23H :  0.43  678H :  0.43  588H :  0.42  378H :  0.42  435H :  0.42  298O :  0.42  652O :  0.41    3H :  0.41   35H :  0.41  449H :  0.41
   33H :  0.41  704H :  0.40  341H :  0.39  379O :  0.39  289O :  0.38  252H :  0.38  185H :  0.38  368H :  0.38  537H :  0.38  219H :  0.38  591H :  0.38  266H :  0.37
  237H :  0.37   69H :  0.37  119H :  0.37  198H :  0.37  123H :  0.37  273H :  0.36  440H :  0.36  479H :  0.36  707H :  0.35  699H :  0.35   90H :  0.35  318H :  0.35
  660H :  0.34   95H :  0.34  708H :  0.34  570H :  0.34  495H :  0.34  752H :  0.34  740H :  0.34  693H :  0.34  134H :  0.33  128H :  0.33  419H :  0.32  350H :  0.32
  469O :  0.31  721O :  0.31  410H :  0.31  516H :  0.31  149H :  0.31  396H :  0.30  147H :  0.30  338H :  0.30  560H :  0.30  358O :  0.30  714H :  0.29  210H :  0.29
  326H :  0.29   32H :  0.28  152H :  0.28  733O :  0.28  744H :  0.27   42H :  0.27  279H :  0.27  369H :  0.27  585H :  0.26  405H :  0.26  156H :  0.26  334O :  0.26
   47H :  0.26  573H :  0.25   41H :  0.25  506H :  0.25  189H :  0.25  404H :  0.25  511O :  0.25  278H :  0.24  641H :  0.24  402H :  0.24  672H :  0.24  681H :  0.23
  525H :  0.23  594H :  0.23  150H :  0.23  575H :  0.23  558H :  0.23  722H :  0.22  365H :  0.22   74H :  0.22  482H :  0.22  308H :  0.22  188H :  0.21  713H :  0.21
  251H :  0.21  431H :  0.21  737H :  0.21  275H :  0.20  153H :  0.20  254H :  0.20  261H :  0.19  474H :  0.19  629H :  0.19  231H :  0.19   30H :  0.19  377H :  0.19
    6H :  0.19  146H :  0.19  360H :  0.19  555H :  0.19  671H :  0.18  716H :  0.18  567H :  0.18  743H :  0.18   72H :  0.18  491H :  0.17  372H :  0.17  683H :  0.17
  195H :  0.17  159H :  0.17  498H :  0.17  618H :  0.17  738H :  0.16   81H :  0.16  500H :  0.16  630H :  0.16  414H :  0.16  606H :  0.16  540H :  0.16  545H :  0.16
  542H :  0.16  719H :  0.16  306H :  0.16  186H :  0.16  579H :  0.16  380H :  0.16  272H :  0.15  533H :  0.15   71H :  0.15  140H :  0.15   93H :  0.15  684H :  0.14
  464H :  0.14   66H :  0.14  424O :  0.14  731H :  0.14   86H :  0.14  260H :  0.14   77H :  0.14  293H :  0.13  636H :  0.13  654H :  0.13  357H :  0.13  234H :  0.13
  347H :  0.13  529O :  0.13  401H :  0.13  192H :  0.12  720H :  0.12  162H :  0.12  171H :  0.12  126H :  0.12  315H :  0.12    2H :  0.12  285H :  0.12  447H :  0.12
  422H :  0.12  611H :  0.12  497H :  0.11  692H :  0.11  384H :  0.11  522H :  0.11  420H :  0.11   38H :  0.11  650H :  0.11  167H :  0.11  335H :  0.11  483H :  0.11
  429H :  0.11  547O :  0.11  425H :  0.11   59H :  0.11  427O :  0.10  375H :  0.10  564H :  0.10   99H :  0.10  572H :  0.10  413H :  0.10  329H :  0.10  515H :  0.10
  521H :  0.10  144H :  0.10  416H :  0.10   63H :  0.10  417H :  0.09  455H :  0.09   39H :  0.09  609H :  0.09  191H :  0.09  504H :  0.09  320H :  0.09   14H :  0.09
  177H :  0.08  624H :  0.08  284H :  0.08  468H :  0.08  437H :  0.08  206H :  0.08  626H :  0.08  645H :  0.08  741H :  0.08  143H :  0.08  299H :  0.08   68H :  0.08
  597H :  0.08  467H :  0.08   51H :  0.08  536H :  0.08  114H :  0.08  204H :  0.07  200H :  0.07  249H :  0.07  711H :  0.07
    3 LP   *******   0.00   2.82354  12.26599  -5.55089  697O : 22.12  271O : 22.08  352O : 16.37  568O : 15.95  457O : 15.29  325O : 14.76  247O : 14.72  172O : 14.46  166O : 13.65   49O : 13.41  250O : 12.29   52O : 12.19
  724O : 11.82  478O : 11.62  451O : 11.59  574O : 11.58  505O : 11.55  601O : 11.17   10O : 10.55  712O : 10.54  388O : 10.43  709O : 10.41  157O : 10.35  445O : 10.18
  664O : 10.15   40O : 10.10  430O :  9.99  274O :  9.62   13O :  9.54  121O :  9.46  154O :  9.43  661O :  9.34  700O :  9.25  253O :  8.84  370O :  8.67  232O :  8.61
  706O :  8.60  295O :  8.45   43O :  8.18  151O :  7.90  403O :  7.83  448O :  7.83   91O :  7.71  211O :  7.55  502O :  7.42  412O :  7.28  118O :  7.16  187O :  7.13
  244O :  6.99   73O :  6.90   25O :  6.77  454O :  6.75    1O :  6.62  487O :  6.60   16O :  6.59  694O :  6.55  361O :  6.52  553O :  6.45  310O :  6.26   94O :  6.13
  331O :  6.12  145O :  6.10  571O :  6.10  184O :  6.05   85O :  6.02  421O :  5.95  589O :  5.93   34O :  5.89  673O :  5.87  307O :  5.82    4O :  5.76  238O :  5.74
  607O :  5.74  133O :  5.72  622O :  5.71   28O :  5.67  442O :  5.65  745O :  5.64  418O :  5.58    7O :  5.56  103O :  5.54  322O :  5.50   37O :  5.37  670O :  5.35
  241O :  5.26  262O :  5.26  115O :  5.24  169O :  5.21  382O :  5.15   22O :  5.13  148O :  5.07  400O :  4.99  742O :  4.98  640O :  4.85  283O :  4.84  628O :  4.84
  124O :  4.83  277O :  4.78  619O :  4.75  100O :  4.67  349O :  4.57   31O :  4.51  583O :  4.51  217O :  4.48  181O :  4.47  214O :  4.37  130O :  4.34   61O :  4.28
  196O :  4.24  631O :  4.17  493O :  4.15   67O :  4.11  136O :  4.03  373O :  4.02  235O :  3.99   58O :  3.98   79O :  3.94  391O :  3.89  475O :  3.88  415O :  3.83
  676O :  3.80  466O :  3.79  658O :  3.74  346O :  3.74  496O :  3.66  514O :  3.66  592O :  3.65  736O :  3.64   88O :  3.64  739O :  3.63  355O :  3.63  301O :  3.56
  163O :  3.46  538O :  3.43  109O :  3.43  562O :  3.37  727O :  3.35  367O :  3.30  376O :  3.28  679O :  3.27  112O :  3.25  586O :  3.21  340O :  3.18  751O :  3.14
   76O :  3.09  463O :  3.03  517O :  2.97  691O :  2.97  259O :  2.94  286O :  2.94  394O :  2.86  439O :  2.83  613O :  2.79  703O :  2.78  190O :  2.77  328O :  2.71
  127O :  2.65  532O :  2.63   70O :  2.59  409O :  2.55  106O :  2.55  343O :  2.41  174H :  2.37  541O :  2.35  616O :  2.35   55O :  2.34  535O :  2.33  311H :  2.32
  520O :  2.29  472O :  2.24  730O :  2.10  268O :  2.07  364O :  2.01  688O :  1.99  556O :  1.98  565O :  1.93  577O :  1.92  337O :  1.86  667O :  1.84  208O :  1.84
  649O :  1.80  459H :  1.78   82O :  1.77   97O :  1.74  550O :  1.65  754O :  1.64  120H :  1.64  444H :  1.64  199O :  1.62  226O :  1.62  499O :  1.61  202O :  1.56
   19O :  1.53  333H :  1.51  243H :  1.50  193O :  1.50  255H :  1.45  265O :  1.45  484O :  1.40  559O :  1.39  137H :  1.39  625O :  1.35  385O :  1.35  354H :  1.35
  637O :  1.33   53H :  1.32  313O :  1.30  316O :  1.29   50H :  1.29  666H :  1.28  490O :  1.27  718O :  1.24  175O :  1.24  178O :  1.23  205O :  1.23  233H :  1.19
  406O :  1.18  696H :  1.16  304O :  1.16  229O :  1.16  655O :  1.15  220O :  1.15  748O :  1.13   11H :  1.12  142O :  1.09  339H :  1.06  610O :  1.06  746H :  1.02
  598O :  1.02  436O :  0.99   56H :  0.98  280O :  0.98  523O :  0.97  595O :  0.96  544O :  0.94  526O :  0.93  507H :  0.92  710H :  0.92  481O :  0.90  319O :  0.90
  160O :  0.89  397O :  0.88  646O :  0.87  580O :  0.86  634O :  0.86  569H :  0.82   46O :  0.82  643O :  0.81   12H :  0.79  155H :  0.79  246H :  0.75  197H :  0.74
   75H :  0.74  180H :  0.73  682O :  0.71  543H :  0.71  292O :  0.68  590H :  0.68  503H :  0.68  296H :  0.68   44H :  0.67  398H :  0.66  593H :  0.66   87H :  0.65
  312H :  0.65  215H :  0.65  407H :  0.64  139O :  0.64   45H :  0.62   18H :  0.61  116H :  0.61  256O :  0.61  527H :  0.59   29H :  0.59  715O :  0.59   54H :  0.58
  348H :  0.58  122H :  0.58   64O :  0.57  366H :  0.56  604O :  0.56  213H :  0.56  584H :  0.55  460O :  0.55  685O :  0.54  675H :  0.54  477H :  0.54  702H :  0.54
  125H :  0.53  554H :  0.53  309H :  0.52  473H :  0.52  276H :  0.51  344H :  0.51  288H :  0.50  297H :  0.50  614H :  0.50  131H :  0.50  433O :  0.49  135H :  0.48
  170H :  0.48  389H :  0.47  201H :  0.47  300H :  0.45  105H :  0.45  371H :  0.44  508O :  0.44  102H :  0.44  674H :  0.43  223O :  0.43   24H :  0.43  287H :  0.42
  453H :  0.42  182H :  0.42   23H :  0.42  678H :  0.42  435H :  0.42  588H :  0.42  378H :  0.41  298O :  0.41  652O :  0.41    3H :  0.41   35H :  0.41  449H :  0.40
   33H :  0.40  570H :  0.40  704H :  0.39  341H :  0.39  379O :  0.38  289O :  0.38  252H :  0.38  185H :  0.38  368H :  0.37  266H :  0.37  537H :  0.37  219H :  0.37
  591H :  0.37  237H :  0.37   69H :  0.37  119H :  0.37  198H :  0.36  123H :  0.36  273H :  0.36  440H :  0.36  479H :  0.35  707H :  0.35   90H :  0.35  318H :  0.34
  660H :  0.34   95H :  0.34  708H :  0.33  495H :  0.33  752H :  0.33  740H :  0.33  693H :  0.33  134H :  0.32  128H :  0.32  419H :  0.31  350H :  0.31  469O :  0.31
  721O :  0.31  410H :  0.31  516H :  0.30  149H :  0.30  396H :  0.30  147H :  0.30  338H :  0.29  560H :  0.29  358O :  0.29  714H :  0.28  210H :  0.28  326H :  0.28
  699H :  0.28   32H :  0.28  152H :  0.28  733O :  0.28  744H :  0.27   42H :  0.26  279H :  0.26  369H :  0.26  585H :  0.26  405H :  0.26  156H :  0.26   47H :  0.25
  334O :  0.25  573H :  0.25   41H :  0.25  506H :  0.25  189H :  0.25  404H :  0.25  511O :  0.24  278H :  0.24  641H :  0.24  402H :  0.24  672H :  0.24  681H :  0.23
  525H :  0.23  594H :  0.23  150H :  0.23  575H :  0.22  558H :  0.22  365H :  0.22  722H :  0.22   74H :  0.22  482H :  0.22  308H :  0.21  188H :  0.21  713H :  0.21
  251H :  0.21  431H :  0.20  737H :  0.20  275H :  0.20  153H :  0.20  254H :  0.19  261H :  0.19  474H :  0.19  629H :  0.19   30H :  0.19  231H :  0.19  377H :  0.19
    6H :  0.19  146H :  0.18  360H :  0.18  555H :  0.18  716H :  0.18  671H :  0.18  567H :  0.18  743H :  0.17  491H :  0.17  372H :  0.17  683H :  0.17  195H :  0.17
   72H :  0.17  159H :  0.17  498H :  0.17  618H :  0.16  738H :  0.16   81H :  0.16  500H :  0.16  630H :  0.16  414H :  0.16  606H :  0.16  540H :  0.16  545H :  0.16
  542H :  0.16  719H :  0.15  306H :  0.15  186H :  0.15  380H :  0.15   71H :  0.15  272H :  0.15  533H :  0.15  579H :  0.15   93H :  0.15  684H :  0.14  464H :  0.14
   66H :  0.14  424O :  0.14  140H :  0.14  731H :  0.14   86H :  0.14  260H :  0.13   77H :  0.13  293H :  0.13  636H :  0.13  654H :  0.13  357H :  0.13  234H :  0.13
  347H :  0.13  529O :  0.12  401H :  0.12  192H :  0.12  720H :  0.12  162H :  0.12  171H :  0.12  126H :  0.12  315H :  0.12    2H :  0.12  285H :  0.12  447H :  0.11
  422H :  0.11  611H :  0.11  497H :  0.11  692H :  0.11  384H :  0.11  522H :  0.11  547O :  0.11  420H :  0.11   38H :  0.11  650H :  0.11  167H :  0.11  335H :  0.11
  483H :  0.11  429H :  0.11  425H :  0.10   59H :  0.10  427O :  0.10  375H :  0.10  564H :  0.10   99H :  0.10  572H :  0.10  413H :  0.10  329H :  0.10  515H :  0.10
  521H :  0.10  144H :  0.10  416H :  0.09   63H :  0.09  417H :  0.09  455H :  0.09   39H :  0.09  609H :  0.09  191H :  0.09  504H :  0.09  320H :  0.09   14H :  0.08
  284H :  0.08  177H :  0.08  624H :  0.08  468H :  0.08  437H :  0.08  206H :  0.08  626H :  0.08  645H :  0.08  741H :  0.08  143H :  0.08  299H :  0.08   68H :  0.08
  597H :  0.08   51H :  0.08  467H :  0.08  536H :  0.07  114H :  0.07  204H :  0.07  200H :  0.07  249H :  0.07  711H :  0.07  656H :  0.07
    4 LP   *******   0.00  38.42442  49.08965   1.05628  271O : 19.78  457O : 16.89  697O : 16.62  352O : 14.66  568O : 14.29  325O : 13.23  247O : 13.18  172O : 12.95  166O : 12.23   49O : 12.01  250O : 11.01   52O : 10.92
  724O : 10.58  478O : 10.41  451O : 10.38  574O : 10.37  505O : 10.34  601O : 10.01   10O :  9.45  712O :  9.44  709O :  9.32  388O :  9.32  157O :  9.27  445O :  9.11
  664O :  9.09   40O :  9.05  430O :  8.94  274O :  8.62   13O :  8.54  121O :  8.47  154O :  8.44  661O :  8.37  700O :  8.29  370O :  7.78  232O :  7.71  706O :  7.70
  253O :  7.59  295O :  7.57   43O :  7.34  151O :  7.08  403O :  7.01   91O :  6.90  448O :  6.89  211O :  6.76  502O :  6.65  412O :  6.52  118O :  6.41  187O :  6.38
  244O :  6.26   73O :  6.18   25O :  6.07  454O :  6.04    1O :  5.93  487O :  5.92   16O :  5.90  694O :  5.87  361O :  5.84  553O :  5.78  310O :  5.61   94O :  5.49
  331O :  5.48  145O :  5.47  571O :  5.47  184O :  5.42   85O :  5.39  421O :  5.33  589O :  5.31  673O :  5.26   34O :  5.25  307O :  5.22    4O :  5.17  238O :  5.14
  607O :  5.14  133O :  5.13  622O :  5.11   28O :  5.09  442O :  5.06  745O :  5.05  418O :  5.00    7O :  4.98  103O :  4.96  322O :  4.93   37O :  4.81  670O :  4.80
  241O :  4.71  262O :  4.71  115O :  4.70  169O :  4.66  382O :  4.61   22O :  4.60  148O :  4.53  400O :  4.47  742O :  4.46  640O :  4.35  628O :  4.34  283O :  4.33
  124O :  4.32  277O :  4.28  619O :  4.26  100O :  4.19  349O :  4.10   31O :  4.04  583O :  4.04  181O :  4.00  217O :  3.99  214O :  3.92  130O :  3.89   61O :  3.83
  196O :  3.80  631O :  3.73  493O :  3.72   67O :  3.69  136O :  3.61  373O :  3.59  235O :  3.57   58O :  3.56   79O :  3.53  391O :  3.49  475O :  3.48  415O :  3.43
  676O :  3.41  466O :  3.39  346O :  3.35  658O :  3.35  496O :  3.28  514O :  3.28  592O :  3.27  736O :  3.26   88O :  3.26  739O :  3.25  355O :  3.25  301O :  3.19
  163O :  3.10  109O :  3.07  538O :  3.07  562O :  3.02  727O :  3.00  367O :  2.96  376O :  2.94  679O :  2.93  112O :  2.92  586O :  2.87  340O :  2.85  751O :  2.81
   76O :  2.77  463O :  2.72  517O :  2.66  691O :  2.66  259O :  2.63  286O :  2.63  394O :  2.56  439O :  2.53  613O :  2.50  703O :  2.49  190O :  2.49  328O :  2.43
  127O :  2.37  532O :  2.36   70O :  2.32  409O :  2.29  106O :  2.24  343O :  2.16  174H :  2.12  541O :  2.11  616O :  2.11   55O :  2.09  535O :  2.09  311H :  2.08
  520O :  2.05  472O :  2.01  730O :  1.88  268O :  1.85  364O :  1.79  688O :  1.78  556O :  1.78  565O :  1.73  577O :  1.70  337O :  1.66   82O :  1.66  667O :  1.65
  208O :  1.65  649O :  1.62   97O :  1.56  550O :  1.48  120H :  1.47  754O :  1.47  444H :  1.47  199O :  1.45  459H :  1.45  226O :  1.45  499O :  1.45  202O :  1.40
   19O :  1.37  333H :  1.35  243H :  1.35  193O :  1.34  265O :  1.30  484O :  1.25  255H :  1.25  137H :  1.25  559O :  1.24  625O :  1.21  385O :  1.21  354H :  1.21
  637O :  1.19   53H :  1.18  313O :  1.16  316O :  1.16   50H :  1.16  666H :  1.15  490O :  1.13  718O :  1.11  175O :  1.11  178O :  1.11  205O :  1.10  655O :  1.08
  233H :  1.06  406O :  1.06  696H :  1.04  304O :  1.04  229O :  1.04  220O :  1.03  748O :  1.01   11H :  1.00  142O :  0.97  339H :  0.95  610O :  0.95  746H :  0.91
  598O :  0.91  436O :  0.89   56H :  0.88  280O :  0.88  523O :  0.86  595O :  0.86  544O :  0.85  526O :  0.83  507H :  0.83  710H :  0.82  481O :  0.80  160O :  0.80
  319O :  0.80  397O :  0.79  646O :  0.78  580O :  0.77  634O :  0.77  569H :  0.74   46O :  0.73  643O :  0.72   12H :  0.71  155H :  0.70  246H :  0.67  197H :  0.67
   75H :  0.66  180H :  0.65  682O :  0.64  543H :  0.63  292O :  0.61  590H :  0.61  503H :  0.61  296H :  0.61   44H :  0.60  398H :  0.59  593H :  0.59   87H :  0.59
  312H :  0.58  215H :  0.58  407H :  0.57  139O :  0.57   45H :  0.56  435H :  0.56   18H :  0.55  116H :  0.55  256O :  0.55   29H :  0.53  527H :  0.53  715O :  0.52
   54H :  0.52  348H :  0.52  122H :  0.52   64O :  0.51  366H :  0.50  604O :  0.50  213H :  0.50  584H :  0.50  460O :  0.49  685O :  0.49  675H :  0.49  477H :  0.48
  702H :  0.48  125H :  0.48  554H :  0.47  309H :  0.46  473H :  0.46  276H :  0.46  344H :  0.46  433O :  0.45  288H :  0.45  297H :  0.45  614H :  0.45  131H :  0.44
  135H :  0.43  170H :  0.43  389H :  0.42  201H :  0.42  300H :  0.41  105H :  0.41  371H :  0.40  508O :  0.39  102H :  0.39  674H :  0.39  223O :  0.39   24H :  0.39
  287H :  0.38  182H :  0.38  453H :  0.38   23H :  0.38  678H :  0.38  588H :  0.37  378H :  0.37  298O :  0.37  652O :  0.36    3H :  0.36   35H :  0.36   33H :  0.36
  449H :  0.36  570H :  0.36  704H :  0.35  341H :  0.35  379O :  0.34  289O :  0.34  252H :  0.34  185H :  0.34  368H :  0.34  537H :  0.33  591H :  0.33  266H :  0.33
  237H :  0.33   69H :  0.33  119H :  0.33  219H :  0.33  198H :  0.33  123H :  0.32  273H :  0.32  440H :  0.32  479H :  0.32  707H :  0.31   90H :  0.31  699H :  0.31
  318H :  0.31  660H :  0.30   95H :  0.30  708H :  0.30  495H :  0.30  740H :  0.30  752H :  0.30  693H :  0.30  134H :  0.29  128H :  0.29  419H :  0.28  350H :  0.28
  469O :  0.28  721O :  0.27  410H :  0.27  516H :  0.27  149H :  0.27  396H :  0.27  147H :  0.27  338H :  0.26  560H :  0.26  358O :  0.26  714H :  0.25  210H :  0.25
  326H :  0.25   32H :  0.25  152H :  0.25  733O :  0.25  744H :  0.24   42H :  0.24  279H :  0.24  369H :  0.23  585H :  0.23  405H :  0.23  156H :  0.23  334O :  0.23
   47H :  0.23  573H :  0.23   41H :  0.22  189H :  0.22  506H :  0.22  404H :  0.22  511O :  0.22  278H :  0.22  641H :  0.21  402H :  0.21  672H :  0.21  681H :  0.21
  525H :  0.20  594H :  0.20  150H :  0.20  575H :  0.20  558H :  0.20  365H :  0.20  722H :  0.20   74H :  0.19  482H :  0.19  308H :  0.19  188H :  0.19  713H :  0.19
  251H :  0.18  431H :  0.18  737H :  0.18  275H :  0.18  153H :  0.18  261H :  0.17  474H :  0.17  629H :  0.17  254H :  0.17  231H :  0.17   30H :  0.17  377H :  0.17
    6H :  0.17  146H :  0.17  360H :  0.17  555H :  0.16  372H :  0.16  716H :  0.16  671H :  0.16  567H :  0.16  743H :  0.15   72H :  0.15  491H :  0.15  683H :  0.15
  195H :  0.15  159H :  0.15  498H :  0.15  618H :  0.15  738H :  0.14   81H :  0.14  500H :  0.14  630H :  0.14  414H :  0.14  606H :  0.14  540H :  0.14  545H :  0.14
  542H :  0.14  719H :  0.14  306H :  0.14  186H :  0.14  579H :  0.14  380H :  0.14  272H :  0.14  533H :  0.13   71H :  0.13   93H :  0.13  684H :  0.13  464H :  0.13
   66H :  0.13  424O :  0.13  140H :  0.12  731H :  0.12   86H :  0.12  260H :  0.12   77H :  0.12  293H :  0.12  636H :  0.12  654H :  0.12  357H :  0.11  234H :  0.11
  347H :  0.11  529O :  0.11  401H :  0.11  192H :  0.11  720H :  0.11  162H :  0.11  171H :  0.11  126H :  0.11  315H :  0.11  285H :  0.11    2H :  0.11  447H :  0.10
  422H :  0.10  611H :  0.10  692H :  0.10  497H :  0.10  384H :  0.10  522H :  0.10  420H :  0.10   38H :  0.10  650H :  0.10  167H :  0.10  335H :  0.10  483H :  0.09
  429H :  0.09  425H :  0.09   59H :  0.09  547O :  0.09  427O :  0.09  375H :  0.09  564H :  0.09   99H :  0.09  572H :  0.09  413H :  0.09  329H :  0.09  515H :  0.09
  521H :  0.09  144H :  0.09  416H :  0.09   63H :  0.08  417H :  0.08   39H :  0.08  609H :  0.08  191H :  0.08  504H :  0.08   14H :  0.08  177H :  0.07  624H :  0.07
  284H :  0.07  320H :  0.07  468H :  0.07  437H :  0.07  206H :  0.07  626H :  0.07  645H :  0.07  741H :  0.07  143H :  0.07
    5 LP   *******   0.00   1.15865  46.63943 -14.71165  271O : 18.81  697O : 15.82  247O : 14.78  352O : 13.94  568O : 13.59  457O : 13.04  325O : 12.58  172O : 12.32  166O : 11.62   49O : 11.42  250O : 10.47   52O : 10.38
  724O : 10.06  478O :  9.90  451O :  9.88  574O :  9.86  505O :  9.84  601O :  9.51  712O :  8.98   10O :  8.98  388O :  8.92  709O :  8.87  157O :  8.82  445O :  8.67
  664O :  8.64  430O :  8.51   40O :  8.41  274O :  8.20   13O :  8.12  121O :  8.06  154O :  8.02  661O :  7.95  700O :  7.88  253O :  7.53  370O :  7.38  232O :  7.34
  706O :  7.33  295O :  7.20   43O :  6.97  151O :  6.73  448O :  6.67  403O :  6.67   91O :  6.57  211O :  6.43  502O :  6.32  412O :  6.20  118O :  6.10  187O :  6.07
  244O :  5.97   73O :  5.88   25O :  5.77  454O :  5.76    1O :  5.64  487O :  5.63   16O :  5.61  694O :  5.58  361O :  5.54  310O :  5.53  553O :  5.50   94O :  5.24
  331O :  5.21  145O :  5.20  571O :  5.20  184O :  5.15   85O :  5.12  421O :  5.07  589O :  5.05  673O :  5.00  307O :  4.96    4O :  4.91  238O :  4.89  607O :  4.89
   34O :  4.89  133O :  4.87  622O :  4.86   28O :  4.84  442O :  4.81  745O :  4.80  418O :  4.76    7O :  4.73  103O :  4.72  322O :  4.65   37O :  4.57  670O :  4.56
  241O :  4.48  262O :  4.48  115O :  4.47  169O :  4.44  382O :  4.39   22O :  4.37  148O :  4.31  400O :  4.25  742O :  4.24  640O :  4.13  283O :  4.13  628O :  4.12
  124O :  4.11  277O :  4.07  619O :  4.05  100O :  3.98  349O :  3.90   31O :  3.84  583O :  3.84  217O :  3.82  181O :  3.80  214O :  3.73  130O :  3.70   61O :  3.65
  196O :  3.62  631O :  3.55  493O :  3.54   67O :  3.50  136O :  3.43  373O :  3.42  235O :  3.40   58O :  3.39   79O :  3.36  391O :  3.32  475O :  3.31  415O :  3.26
  676O :  3.24  466O :  3.23  346O :  3.22  658O :  3.18  496O :  3.12  514O :  3.12  592O :  3.11  736O :  3.10   88O :  3.10  739O :  3.09  355O :  3.09  301O :  3.03
  163O :  2.94  538O :  2.92  109O :  2.87  562O :  2.87  727O :  2.86  367O :  2.81  376O :  2.80  679O :  2.79  112O :  2.75  586O :  2.73  340O :  2.71  751O :  2.67
   76O :  2.64  463O :  2.58  691O :  2.53  517O :  2.53  259O :  2.51  286O :  2.50  394O :  2.43  439O :  2.41  613O :  2.38  703O :  2.37  190O :  2.36  328O :  2.31
  311H :  2.27   70O :  2.27  127O :  2.25  532O :  2.24  409O :  2.18  106O :  2.17  343O :  2.06  174H :  2.02  541O :  2.01  616O :  2.00   55O :  1.99  535O :  1.98
  520O :  1.95  472O :  1.91  730O :  1.79  268O :  1.76  364O :  1.71  688O :  1.70  556O :  1.69  565O :  1.64  577O :  1.62  337O :  1.58  667O :  1.57  208O :  1.57
  649O :  1.54  459H :  1.52   82O :  1.51   97O :  1.49  550O :  1.40  120H :  1.40  754O :  1.40  444H :  1.39  226O :  1.38  199O :  1.38  499O :  1.37  202O :  1.33
   19O :  1.30  333H :  1.28  243H :  1.28  193O :  1.27  255H :  1.24  265O :  1.24  484O :  1.19  559O :  1.19  137H :  1.19  625O :  1.15  385O :  1.15  354H :  1.15
  637O :  1.13   53H :  1.12  313O :  1.11  316O :  1.10   50H :  1.10  666H :  1.09  490O :  1.07  718O :  1.06  175O :  1.06  178O :  1.05  205O :  1.05  655O :  1.03
  233H :  1.01  406O :  1.01  696H :  0.99  304O :  0.99  229O :  0.99  220O :  0.98  748O :  0.96   11H :  0.95  142O :  0.92  339H :  0.90  610O :  0.90  746H :  0.87
  598O :  0.87  436O :  0.84   56H :  0.84  280O :  0.83  523O :  0.82  595O :  0.82  544O :  0.80  526O :  0.79  507H :  0.79  710H :  0.78  481O :  0.77  319O :  0.76
  160O :  0.76  397O :  0.75  646O :  0.74  580O :  0.74  634O :  0.73  569H :  0.70   46O :  0.70  643O :  0.69  155H :  0.67   12H :  0.67  197H :  0.63   75H :  0.63
  180H :  0.62  246H :  0.61  682O :  0.61  543H :  0.60  292O :  0.59  590H :  0.58  503H :  0.58  296H :  0.58  398H :  0.56  593H :  0.56   44H :  0.56   87H :  0.56
  312H :  0.56  215H :  0.55  407H :  0.55  139O :  0.54   45H :  0.53   18H :  0.52  116H :  0.52  256O :  0.52  527H :  0.50   29H :  0.50  715O :  0.50   54H :  0.50
  348H :  0.50  122H :  0.49   64O :  0.49  366H :  0.48  604O :  0.48  213H :  0.47  584H :  0.47  460O :  0.47  675H :  0.46  685O :  0.46  477H :  0.46  702H :  0.46
  125H :  0.45  554H :  0.45  309H :  0.44  473H :  0.44  276H :  0.44  344H :  0.44  288H :  0.43  297H :  0.43  614H :  0.43  131H :  0.42  135H :  0.41  433O :  0.41
  170H :  0.41  389H :  0.41  201H :  0.40  300H :  0.39  105H :  0.39  371H :  0.38  508O :  0.37  102H :  0.37  674H :  0.37  223O :  0.37   24H :  0.37  287H :  0.36
  453H :  0.36  182H :  0.36   23H :  0.36  678H :  0.36  588H :  0.35  378H :  0.35  435H :  0.35  298O :  0.35  652O :  0.35    3H :  0.35  449H :  0.34   33H :  0.34
  570H :  0.34   35H :  0.34  704H :  0.33  341H :  0.33  379O :  0.32  289O :  0.32  252H :  0.32  185H :  0.32  368H :  0.32  537H :  0.32  219H :  0.32  591H :  0.32
  266H :  0.31  237H :  0.31   69H :  0.31  119H :  0.31  198H :  0.31  123H :  0.31  273H :  0.30  440H :  0.30  479H :  0.30  707H :  0.30  699H :  0.30   90H :  0.30
  318H :  0.29  660H :  0.29   95H :  0.29  708H :  0.29  495H :  0.28  752H :  0.28  740H :  0.28  693H :  0.28  134H :  0.28  128H :  0.27  419H :  0.27  350H :  0.27
  469O :  0.26  721O :  0.26  410H :  0.26  516H :  0.26  149H :  0.26  396H :  0.25  147H :  0.25  338H :  0.25  560H :  0.25  358O :  0.25  714H :  0.24  210H :  0.24
  326H :  0.24   32H :  0.24  152H :  0.24  733O :  0.23  744H :  0.23  279H :  0.22  369H :  0.22  585H :  0.22  405H :  0.22  156H :  0.22  334O :  0.22   47H :  0.21
   41H :  0.21  573H :  0.21  189H :  0.21  506H :  0.21  404H :  0.21   42H :  0.21  511O :  0.21  278H :  0.21  641H :  0.20  402H :  0.20  672H :  0.20  681H :  0.20
  525H :  0.19  594H :  0.19  150H :  0.19  575H :  0.19  558H :  0.19  722H :  0.19  365H :  0.19   74H :  0.18  482H :  0.18  308H :  0.18  188H :  0.18  713H :  0.18
  251H :  0.18  431H :  0.17  737H :  0.17  275H :  0.17  153H :  0.17  254H :  0.17  261H :  0.16  474H :  0.16  629H :  0.16  231H :  0.16   30H :  0.16  377H :  0.16
    6H :  0.16  146H :  0.16  360H :  0.16  555H :  0.16  491H :  0.15  671H :  0.15  716H :  0.15  567H :  0.15  743H :  0.15   72H :  0.15  372H :  0.15  683H :  0.15
  195H :  0.14  159H :  0.14  498H :  0.14  618H :  0.14   81H :  0.14  738H :  0.14  500H :  0.14  630H :  0.13  414H :  0.13  606H :  0.13  540H :  0.13  545H :  0.13
  542H :  0.13  719H :  0.13  306H :  0.13  186H :  0.13  579H :  0.13  380H :  0.13  272H :  0.13  533H :  0.13   71H :  0.13   93H :  0.12  684H :  0.12  464H :  0.12
   66H :  0.12  424O :  0.12  140H :  0.12  731H :  0.12   86H :  0.12  260H :  0.11   77H :  0.11  293H :  0.11  636H :  0.11  654H :  0.11  357H :  0.11  234H :  0.11
  347H :  0.11  529O :  0.11  401H :  0.11  192H :  0.10  720H :  0.10  162H :  0.10  171H :  0.10  126H :  0.10  315H :  0.10    2H :  0.10  285H :  0.10  447H :  0.10
  422H :  0.10  611H :  0.10  497H :  0.10  692H :  0.10  384H :  0.10  522H :  0.10  420H :  0.09   38H :  0.09  650H :  0.09  167H :  0.09  335H :  0.09  483H :  0.09
  429H :  0.09  547O :  0.09  425H :  0.09   59H :  0.09  427O :  0.09  375H :  0.09  564H :  0.09   99H :  0.09  572H :  0.09  413H :  0.08  329H :  0.08  515H :  0.08
  521H :  0.08  144H :  0.08  416H :  0.08   63H :  0.08  417H :  0.08  455H :  0.08   39H :  0.08  609H :  0.08  191H :  0.08  504H :  0.07   14H :  0.07  320H :  0.07
  177H :  0.07
    6 LP   *******   0.00 -15.47597  34.31122  32.72161  271O : 18.54  352O : 16.93  697O : 15.58  568O : 13.39  457O : 12.85  325O : 12.40  247O : 12.35  172O : 12.14  166O : 11.44   49O : 11.25  250O : 10.31   52O : 10.21
  724O :  9.92  478O :  9.76  451O :  9.73  574O :  9.72  505O :  9.70  601O :  9.38   10O :  8.85  712O :  8.85  388O :  8.76  709O :  8.74  157O :  8.69  445O :  8.54
  664O :  8.52   40O :  8.49  430O :  8.38  274O :  8.08   13O :  8.01  121O :  7.94  154O :  7.91  661O :  7.84  700O :  7.77  253O :  7.42  370O :  7.28  232O :  7.23
  706O :  7.22  295O :  7.10   43O :  6.89  151O :  6.63  448O :  6.57  403O :  6.57   91O :  6.47  211O :  6.34  502O :  6.23  412O :  6.11  118O :  6.01  187O :  5.98
  244O :  5.87   73O :  5.79   25O :  5.69  454O :  5.68    1O :  5.56  487O :  5.55   16O :  5.53  694O :  5.49  361O :  5.47  553O :  5.42  310O :  5.26   94O :  5.14
  331O :  5.14  145O :  5.12  571O :  5.12  184O :  5.08   85O :  5.05  421O :  5.00  589O :  4.98  673O :  4.93   34O :  4.92  307O :  4.89    4O :  4.84  238O :  4.82
  607O :  4.82  622O :  4.79  133O :  4.79   28O :  4.77  442O :  4.74  745O :  4.73  418O :  4.69    7O :  4.67  103O :  4.65  322O :  4.62   37O :  4.51  670O :  4.49
  241O :  4.42  262O :  4.41  115O :  4.40  169O :  4.37  382O :  4.33   22O :  4.31  148O :  4.25  400O :  4.19  742O :  4.18  640O :  4.07  283O :  4.07  628O :  4.07
  124O :  4.06  277O :  4.01  619O :  3.99  100O :  3.92  349O :  3.84   31O :  3.78  583O :  3.78  217O :  3.76  181O :  3.75  214O :  3.67  130O :  3.65   61O :  3.59
  196O :  3.56  631O :  3.50  493O :  3.49   67O :  3.45  136O :  3.38  373O :  3.37  235O :  3.35   79O :  3.31  391O :  3.27  475O :  3.26  415O :  3.22  676O :  3.19
   58O :  3.19  466O :  3.16  346O :  3.14  658O :  3.14  496O :  3.07  514O :  3.07  592O :  3.07  736O :  3.06   88O :  3.06  739O :  3.05  355O :  3.04  301O :  2.99
  163O :  2.90  109O :  2.88  538O :  2.88  562O :  2.83  727O :  2.81  367O :  2.77  376O :  2.76  679O :  2.75  112O :  2.73  586O :  2.69  340O :  2.67  751O :  2.63
   76O :  2.60  463O :  2.55  691O :  2.50  517O :  2.50  286O :  2.49  259O :  2.47  394O :  2.40  439O :  2.37  613O :  2.34  703O :  2.33  190O :  2.33  328O :  2.28
  127O :  2.22  532O :  2.21   70O :  2.17  409O :  2.14  106O :  2.14  343O :  2.03  174H :  1.99  541O :  1.98  616O :  1.98   55O :  1.96  535O :  1.96  311H :  1.95
  520O :  1.92  472O :  1.88  730O :  1.76  268O :  1.74  364O :  1.69  688O :  1.67  556O :  1.66  565O :  1.62  577O :  1.60  337O :  1.56  667O :  1.55  208O :  1.55
  649O :  1.52  459H :  1.50   82O :  1.49   97O :  1.46  550O :  1.38  120H :  1.38  754O :  1.38  444H :  1.37  199O :  1.36  226O :  1.36  499O :  1.35  202O :  1.31
   19O :  1.28  333H :  1.27  243H :  1.26  193O :  1.26  255H :  1.22  265O :  1.22  484O :  1.17  559O :  1.17  137H :  1.17  625O :  1.14  385O :  1.14  313O :  1.09
   53H :  1.09  316O :  1.09   50H :  1.09  666H :  1.07  490O :  1.06  718O :  1.04  175O :  1.04  205O :  1.04  178O :  1.04  354H :  1.02  655O :  1.01  233H :  1.00
  406O :  0.99  304O :  0.97  229O :  0.97  696H :  0.97  220O :  0.96  748O :  0.95  637O :  0.94   11H :  0.94  142O :  0.91  339H :  0.89  610O :  0.89  746H :  0.85
  598O :  0.85  436O :  0.83   56H :  0.82  280O :  0.82  523O :  0.81  595O :  0.80  544O :  0.79  526O :  0.78  507H :  0.77  710H :  0.77  481O :  0.75  319O :  0.75
  160O :  0.75  397O :  0.74  646O :  0.73  580O :  0.73  634O :  0.72  569H :  0.69   46O :  0.69  643O :  0.68   12H :  0.66  155H :  0.66  246H :  0.63  197H :  0.62
   75H :  0.62  180H :  0.61  682O :  0.60  543H :  0.59  292O :  0.57  590H :  0.57  503H :  0.57  296H :  0.57   44H :  0.56  398H :  0.56  593H :  0.55   87H :  0.55
  312H :  0.55  215H :  0.55  407H :  0.54  139O :  0.53   45H :  0.52   18H :  0.52  116H :  0.51  256O :  0.51   29H :  0.50  527H :  0.50  348H :  0.50  715O :  0.49
   54H :  0.49  122H :  0.49   64O :  0.48  366H :  0.47  604O :  0.47  213H :  0.47  584H :  0.46  460O :  0.46  675H :  0.46  685O :  0.46  477H :  0.45  702H :  0.45
  125H :  0.45  554H :  0.44  309H :  0.43  473H :  0.43  276H :  0.43  344H :  0.43  288H :  0.42  297H :  0.42  614H :  0.42  131H :  0.42  135H :  0.41  433O :  0.40
  170H :  0.40  389H :  0.40  201H :  0.39  300H :  0.38  105H :  0.38  371H :  0.37  508O :  0.37  102H :  0.37  674H :  0.36  223O :  0.36   24H :  0.36  287H :  0.36
  453H :  0.36  182H :  0.35   23H :  0.35  678H :  0.35  588H :  0.35  378H :  0.35  435H :  0.35  298O :  0.34  652O :  0.34    3H :  0.34   35H :  0.34  449H :  0.34
   33H :  0.34  570H :  0.33  704H :  0.33  341H :  0.32  379O :  0.32  289O :  0.32  252H :  0.32  185H :  0.32  368H :  0.31  537H :  0.31  219H :  0.31  591H :  0.31
  266H :  0.31  237H :  0.31   69H :  0.31  119H :  0.31  198H :  0.31  123H :  0.30  273H :  0.30  440H :  0.30  479H :  0.30  707H :  0.29  699H :  0.29   90H :  0.29
  318H :  0.29  660H :  0.28   95H :  0.28  708H :  0.28  495H :  0.28  752H :  0.28  740H :  0.28  693H :  0.28  469O :  0.27  134H :  0.27  128H :  0.27  419H :  0.26
  350H :  0.26  721O :  0.26  410H :  0.26  516H :  0.26  149H :  0.25  396H :  0.25  147H :  0.25  338H :  0.25  560H :  0.25  358O :  0.24  714H :  0.24  210H :  0.24
  326H :  0.24   32H :  0.24  152H :  0.23  733O :  0.23  744H :  0.23   42H :  0.22  279H :  0.22  369H :  0.22  585H :  0.22  405H :  0.22  156H :  0.22  334O :  0.21
   47H :  0.21  573H :  0.21   41H :  0.21  506H :  0.21  189H :  0.21  404H :  0.21  511O :  0.20  278H :  0.20  641H :  0.20  402H :  0.20  672H :  0.20  681H :  0.19
  525H :  0.19  594H :  0.19  150H :  0.19  575H :  0.19  558H :  0.19  722H :  0.18  365H :  0.18   74H :  0.18  482H :  0.18  308H :  0.18  188H :  0.18  713H :  0.17
  251H :  0.17  431H :  0.17  737H :  0.17  275H :  0.17  153H :  0.17  254H :  0.16  261H :  0.16  474H :  0.16  629H :  0.16  231H :  0.16   30H :  0.16  377H :  0.16
    6H :  0.16  146H :  0.16  360H :  0.16  555H :  0.15  671H :  0.15  716H :  0.15  567H :  0.15  743H :  0.15   72H :  0.14  491H :  0.14  372H :  0.14  683H :  0.14
  195H :  0.14  159H :  0.14  498H :  0.14  618H :  0.14  738H :  0.13   81H :  0.13  500H :  0.13  630H :  0.13  414H :  0.13  606H :  0.13  540H :  0.13  545H :  0.13
  542H :  0.13  719H :  0.13  306H :  0.13  186H :  0.13  579H :  0.13  380H :  0.13  272H :  0.13  533H :  0.13   71H :  0.12   93H :  0.12  684H :  0.12  464H :  0.12
   66H :  0.12  424O :  0.12  140H :  0.12  731H :  0.12   86H :  0.11  260H :  0.11   77H :  0.11  293H :  0.11  636H :  0.11  654H :  0.11  357H :  0.11  234H :  0.11
  347H :  0.11  529O :  0.10  401H :  0.10  192H :  0.10  720H :  0.10  162H :  0.10  171H :  0.10  126H :  0.10  315H :  0.10    2H :  0.10  285H :  0.10  447H :  0.10
  422H :  0.10  611H :  0.10  692H :  0.09  497H :  0.09  384H :  0.09  522H :  0.09  420H :  0.09   38H :  0.09  650H :  0.09  167H :  0.09  335H :  0.09  483H :  0.09
  429H :  0.09  547O :  0.09   59H :  0.09  425H :  0.09  427O :  0.09  375H :  0.09  564H :  0.08   99H :  0.08  572H :  0.08  413H :  0.08  329H :  0.08  515H :  0.08
  521H :  0.08  144H :  0.08  416H :  0.08   63H :  0.08  417H :  0.08  455H :  0.08   39H :  0.08  609H :  0.08  191H :  0.07  470H :  0.07  504H :  0.07  320H :  0.07
   14H :  0.07
    7 LP   *******   0.00   6.67088  35.53510  15.36391  271O : 18.36  697O : 15.43  352O : 13.58  568O : 13.26  166O : 12.83  457O : 12.73  325O : 12.26  247O : 12.23  172O : 12.03   49O : 11.26  250O : 10.19   52O : 10.16
  724O :  9.83  478O :  9.66  451O :  9.64  574O :  9.63  505O :  9.60  601O :  9.29  712O :  8.82   10O :  8.77  388O :  8.67  709O :  8.66  157O :  8.61  445O :  8.46
  664O :  8.44   40O :  8.41  430O :  8.30  274O :  8.00  121O :  7.87   13O :  7.85  154O :  7.84  661O :  7.75  700O :  7.69  253O :  7.34  370O :  7.21  232O :  7.16
  706O :  7.15  295O :  7.03   43O :  6.82  151O :  6.57  448O :  6.51  403O :  6.50   91O :  6.41  211O :  6.27  502O :  6.17  412O :  6.05  118O :  5.95  187O :  5.93
  244O :  5.81   73O :  5.74   25O :  5.63  454O :  5.63    1O :  5.51  487O :  5.49   16O :  5.48  694O :  5.44  361O :  5.42  553O :  5.37  310O :  5.22   94O :  5.09
  331O :  5.09  145O :  5.08  571O :  5.07  184O :  5.03   85O :  5.00  421O :  4.95  589O :  4.88  673O :  4.88   34O :  4.88  307O :  4.84    4O :  4.81  238O :  4.77
  607O :  4.77  133O :  4.76  622O :  4.75   28O :  4.73  442O :  4.70  745O :  4.69  418O :  4.64    7O :  4.62  103O :  4.60  322O :  4.58   37O :  4.46  670O :  4.45
  241O :  4.38  262O :  4.37  115O :  4.37  169O :  4.33  382O :  4.28   22O :  4.27  148O :  4.21  400O :  4.15  742O :  4.14  640O :  4.03  283O :  4.03  628O :  4.03
  124O :  4.02  277O :  3.98  619O :  3.95  100O :  3.89  349O :  3.80   31O :  3.75  583O :  3.75  217O :  3.73  181O :  3.71  214O :  3.64  130O :  3.61   61O :  3.56
  196O :  3.53  631O :  3.47  493O :  3.45   67O :  3.42  136O :  3.35  373O :  3.34  235O :  3.32   79O :  3.27  391O :  3.24  475O :  3.23   58O :  3.21  415O :  3.18
  676O :  3.16  466O :  3.15  658O :  3.11  346O :  3.09  496O :  3.05  514O :  3.04  592O :  3.04  736O :  3.03   88O :  3.03  739O :  3.02  355O :  3.02  301O :  2.96
  163O :  2.88  109O :  2.85  538O :  2.85  562O :  2.80  727O :  2.79  367O :  2.75  376O :  2.73  679O :  2.72  112O :  2.71  586O :  2.67  340O :  2.64  751O :  2.60
  463O :  2.52   76O :  2.52  691O :  2.47  517O :  2.47  259O :  2.45  286O :  2.44  394O :  2.37  439O :  2.35  613O :  2.32  703O :  2.31  190O :  2.31  328O :  2.26
  127O :  2.20  532O :  2.19   70O :  2.15  409O :  2.12  106O :  2.12  343O :  2.01  174H :  1.97  541O :  1.96  616O :  1.96   55O :  1.94  535O :  1.94  311H :  1.93
  520O :  1.91  472O :  1.87  730O :  1.75  268O :  1.72  364O :  1.67  688O :  1.66  556O :  1.65  565O :  1.61  577O :  1.58  337O :  1.55  667O :  1.53  208O :  1.53
  649O :  1.50  459H :  1.48   82O :  1.47   97O :  1.46  550O :  1.37  754O :  1.36  120H :  1.36  444H :  1.36  199O :  1.34  226O :  1.34  499O :  1.34  202O :  1.30
   19O :  1.27  333H :  1.25  243H :  1.25  193O :  1.24  255H :  1.21  265O :  1.21  484O :  1.16  559O :  1.16  137H :  1.16  625O :  1.13  354H :  1.13  385O :  1.12
  637O :  1.10   53H :  1.09   50H :  1.09  313O :  1.08  316O :  1.08  666H :  1.06  490O :  1.05  718O :  1.03  175O :  1.03  178O :  1.03  205O :  1.03  655O :  1.00
  233H :  0.99  406O :  0.98  696H :  0.97  304O :  0.97  229O :  0.96  220O :  0.96  748O :  0.94   11H :  0.93  142O :  0.90  339H :  0.88  610O :  0.88  746H :  0.85
  598O :  0.84  436O :  0.82   56H :  0.82  280O :  0.81  523O :  0.80  595O :  0.80  544O :  0.79  526O :  0.78  507H :  0.77  710H :  0.76  481O :  0.75  319O :  0.74
  160O :  0.74  397O :  0.73  646O :  0.72  580O :  0.72  634O :  0.71  569H :  0.68   46O :  0.68  643O :  0.67   12H :  0.66  155H :  0.65  246H :  0.62  197H :  0.62
   75H :  0.61  180H :  0.61  682O :  0.59  543H :  0.59  590H :  0.57  292O :  0.57  503H :  0.57  296H :  0.56   44H :  0.56  398H :  0.55  593H :  0.55  312H :  0.54
   87H :  0.54  215H :  0.54  407H :  0.53  139O :  0.53   45H :  0.52   18H :  0.51  116H :  0.51  256O :  0.51   29H :  0.49  527H :  0.49  715O :  0.49   54H :  0.49
  122H :  0.48  348H :  0.48   64O :  0.48  366H :  0.47  604O :  0.46  213H :  0.46  584H :  0.46  460O :  0.46  675H :  0.45  685O :  0.45  477H :  0.45  702H :  0.45
  125H :  0.44  554H :  0.44  309H :  0.43  473H :  0.43  276H :  0.43  344H :  0.43  288H :  0.42  297H :  0.42  614H :  0.42  131H :  0.41  135H :  0.40  433O :  0.40
  170H :  0.40  389H :  0.39  201H :  0.39  714H :  0.39  300H :  0.38  105H :  0.38  371H :  0.37  508O :  0.37  102H :  0.36  674H :  0.36  223O :  0.36   24H :  0.36
  287H :  0.35  453H :  0.35  182H :  0.35   23H :  0.35  678H :  0.35  588H :  0.35  378H :  0.34  435H :  0.34  298O :  0.34  652O :  0.34    3H :  0.34   35H :  0.34
  449H :  0.33   33H :  0.33  570H :  0.33  704H :  0.33  341H :  0.32  379O :  0.32  289O :  0.31  185H :  0.31  252H :  0.31  368H :  0.31  537H :  0.31  219H :  0.31
  266H :  0.31  237H :  0.31   69H :  0.31  119H :  0.31  198H :  0.30  123H :  0.30  591H :  0.30  273H :  0.30  440H :  0.30  479H :  0.29  707H :  0.29  699H :  0.29
   90H :  0.29  318H :  0.28  660H :  0.28   95H :  0.28  708H :  0.28  495H :  0.28  740H :  0.28  693H :  0.27  752H :  0.27  134H :  0.27  128H :  0.27  419H :  0.26
  350H :  0.26  469O :  0.26  721O :  0.25  410H :  0.25  516H :  0.25  149H :  0.25  396H :  0.25  147H :  0.25  338H :  0.25  560H :  0.24  358O :  0.24  210H :  0.24
  326H :  0.23   32H :  0.23  152H :  0.23  733O :  0.23  744H :  0.22   42H :  0.22  279H :  0.22  369H :  0.22  585H :  0.22  405H :  0.22  156H :  0.21  334O :  0.21
   47H :  0.21  573H :  0.21   41H :  0.21  506H :  0.21  189H :  0.21  404H :  0.21  511O :  0.20  278H :  0.20  641H :  0.20  402H :  0.20  672H :  0.20  681H :  0.19
  525H :  0.19  594H :  0.19  150H :  0.19  575H :  0.19  558H :  0.19  722H :  0.18  365H :  0.18   74H :  0.18  482H :  0.18  308H :  0.18  188H :  0.17  251H :  0.17
  431H :  0.17  737H :  0.17  713H :  0.17  275H :  0.17  153H :  0.17  254H :  0.16  261H :  0.16  474H :  0.16  629H :  0.16  231H :  0.16   30H :  0.16  377H :  0.16
  146H :  0.15  360H :  0.15  555H :  0.15  716H :  0.15  671H :  0.15    6H :  0.15  567H :  0.15  743H :  0.14   72H :  0.14  491H :  0.14  372H :  0.14  683H :  0.14
  195H :  0.14  159H :  0.14  498H :  0.14  618H :  0.14  738H :  0.13   81H :  0.13  500H :  0.13  630H :  0.13  414H :  0.13  606H :  0.13  540H :  0.13  545H :  0.13
  542H :  0.13  719H :  0.13  306H :  0.13  186H :  0.13  579H :  0.13  380H :  0.13  272H :  0.13  533H :  0.12   71H :  0.12   93H :  0.12  684H :  0.12  464H :  0.12
   66H :  0.12  424O :  0.12  140H :  0.12  731H :  0.11   86H :  0.11  260H :  0.11  293H :  0.11  636H :  0.11  654H :  0.11   77H :  0.11  357H :  0.11  234H :  0.10
  529O :  0.10  401H :  0.10  347H :  0.10  192H :  0.10  720H :  0.10  162H :  0.10  126H :  0.10  171H :  0.10  315H :  0.10    2H :  0.10  285H :  0.10  447H :  0.10
  422H :  0.09  611H :  0.09  497H :  0.09  692H :  0.09  384H :  0.09  522H :  0.09  420H :  0.09   38H :  0.09  650H :  0.09  335H :  0.09  483H :  0.09  429H :  0.09
  547O :  0.09  425H :  0.09  427O :  0.09  375H :  0.08   59H :  0.08  564H :  0.08   99H :  0.08  572H :  0.08  413H :  0.08  329H :  0.08  515H :  0.08  521H :  0.08
  144H :  0.08  416H :  0.08   63H :  0.08  417H :  0.08  455H :  0.08   39H :  0.08  609H :  0.08   51H :  0.07  191H :  0.07  504H :  0.07  320H :  0.07
    8 LP   *******   0.00   6.48508 -24.61312   4.04975  271O : 17.66  697O : 14.84  172O : 13.50  352O : 13.10  568O : 12.76  457O : 12.25  325O : 11.81  247O : 11.77  166O : 10.92   49O : 10.73  250O :  9.83   52O :  9.75
  724O :  9.45  478O :  9.30  451O :  9.28  574O :  9.26  505O :  9.24  601O :  8.94   10O :  8.44  712O :  8.43  388O :  8.35  709O :  8.33  157O :  8.28  664O :  8.25
  445O :  8.14   40O :  8.09  430O :  7.99  274O :  7.69   13O :  7.63  121O :  7.56  154O :  7.54  661O :  7.47  700O :  7.38  253O :  7.07  370O :  6.93  706O :  6.88
  232O :  6.87  295O :  6.76   43O :  6.56  151O :  6.32  448O :  6.26  403O :  6.26   91O :  6.17  211O :  6.04  502O :  5.93  412O :  5.82  118O :  5.72  187O :  5.70
  244O :  5.59   73O :  5.52   25O :  5.42  454O :  5.41    1O :  5.30  487O :  5.28  694O :  5.24  361O :  5.22   16O :  5.17  553O :  5.16  310O :  5.01   94O :  4.90
  331O :  4.90  145O :  4.88  571O :  4.88  184O :  4.84   85O :  4.82  421O :  4.76  589O :  4.74  673O :  4.69   34O :  4.69  307O :  4.66    4O :  4.61  238O :  4.59
  607O :  4.59  133O :  4.58  622O :  4.57   28O :  4.55  442O :  4.52  745O :  4.51  418O :  4.47    7O :  4.45  103O :  4.43  322O :  4.40   37O :  4.30  670O :  4.28
  241O :  4.21  262O :  4.21  115O :  4.20  169O :  4.17  382O :  4.12   22O :  4.11  148O :  4.05  400O :  4.00  742O :  3.98  640O :  3.88  283O :  3.88  628O :  3.87
  124O :  3.86  277O :  3.82  619O :  3.80  100O :  3.74  349O :  3.66   31O :  3.61  583O :  3.61  217O :  3.59  181O :  3.57  214O :  3.50  130O :  3.47   61O :  3.43
  196O :  3.40  631O :  3.34  493O :  3.32   67O :  3.29  136O :  3.22  373O :  3.21  235O :  3.19   58O :  3.18   79O :  3.15  391O :  3.12  475O :  3.11  415O :  3.06
  676O :  3.04  466O :  3.03  658O :  2.99  346O :  2.99  496O :  2.93  514O :  2.93  592O :  2.92  736O :  2.91   88O :  2.91  739O :  2.90  355O :  2.90  301O :  2.85
  163O :  2.77  109O :  2.75  538O :  2.75  562O :  2.70  727O :  2.68  367O :  2.64  376O :  2.63  679O :  2.62  586O :  2.61  112O :  2.60  340O :  2.54  751O :  2.51
   76O :  2.48  463O :  2.43  691O :  2.38  517O :  2.38  259O :  2.35  286O :  2.35  394O :  2.28  439O :  2.26  613O :  2.23  703O :  2.23  190O :  2.21  328O :  2.17
  127O :  2.12  532O :  2.11   70O :  2.07  409O :  2.04  106O :  2.04  343O :  1.93  616O :  1.89  541O :  1.88  535O :  1.86  311H :  1.86  520O :  1.83   55O :  1.80
  472O :  1.80  174H :  1.71  730O :  1.68  268O :  1.66  364O :  1.61  688O :  1.59  556O :  1.59  565O :  1.55  577O :  1.52  337O :  1.49  667O :  1.48  208O :  1.47
  649O :  1.44  459H :  1.43   82O :  1.42   97O :  1.40  550O :  1.32  120H :  1.31  754O :  1.31  444H :  1.31  199O :  1.30  226O :  1.29  499O :  1.29  202O :  1.25
   19O :  1.22  333H :  1.21  243H :  1.20  193O :  1.20  255H :  1.16  265O :  1.16  484O :  1.12  559O :  1.12  137H :  1.11  625O :  1.08  385O :  1.08  354H :  1.08
  637O :  1.06   53H :  1.05  313O :  1.04  316O :  1.03   50H :  1.03  490O :  1.01  718O :  0.99  175O :  0.99  178O :  0.99  205O :  0.99  666H :  0.99  655O :  0.97
  233H :  0.95  406O :  0.95  304O :  0.93  696H :  0.93  229O :  0.93  220O :  0.92  748O :  0.90   11H :  0.90  142O :  0.87  339H :  0.85  746H :  0.81  598O :  0.81
  610O :  0.81  436O :  0.79  280O :  0.78  523O :  0.77  595O :  0.77  544O :  0.76  526O :  0.75   56H :  0.74  507H :  0.74  710H :  0.73  481O :  0.72  319O :  0.72
  160O :  0.71  397O :  0.70  646O :  0.70  580O :  0.69  634O :  0.69  569H :  0.66   46O :  0.65  643O :  0.65   12H :  0.63  155H :  0.63  246H :  0.60  197H :  0.59
   75H :  0.59  180H :  0.58  682O :  0.57  543H :  0.57  292O :  0.55  590H :  0.55  503H :  0.55  296H :  0.54   44H :  0.54  398H :  0.53  593H :  0.53   87H :  0.52
  312H :  0.52  215H :  0.52  407H :  0.51  139O :  0.51   45H :  0.50   18H :  0.50  116H :  0.49  256O :  0.49   29H :  0.47  527H :  0.47  715O :  0.47   54H :  0.47
  348H :  0.47  122H :  0.46   64O :  0.46  366H :  0.45  604O :  0.45  213H :  0.45  584H :  0.44  460O :  0.44  675H :  0.44  685O :  0.44  477H :  0.43  702H :  0.43
  125H :  0.43  554H :  0.42  276H :  0.41  309H :  0.41  473H :  0.41  344H :  0.41  288H :  0.40  297H :  0.40  614H :  0.40  131H :  0.40  135H :  0.39  433O :  0.39
  170H :  0.38  389H :  0.38  201H :  0.37  300H :  0.36  105H :  0.36  371H :  0.35  508O :  0.35  102H :  0.35  674H :  0.35  223O :  0.35   23H :  0.34   24H :  0.34
  287H :  0.34  453H :  0.34  182H :  0.34  678H :  0.34  588H :  0.33  378H :  0.33  435H :  0.33  298O :  0.33  652O :  0.33    3H :  0.33   35H :  0.33  449H :  0.32
   33H :  0.32  570H :  0.32  704H :  0.31  341H :  0.31  379O :  0.30  289O :  0.30  252H :  0.30  185H :  0.30  368H :  0.30  537H :  0.30  219H :  0.30  591H :  0.30
  266H :  0.30  237H :  0.30   69H :  0.29  119H :  0.29  198H :  0.29  123H :  0.29  273H :  0.29  440H :  0.29  479H :  0.28  707H :  0.28  699H :  0.28   90H :  0.28
  318H :  0.27  660H :  0.27   95H :  0.27  708H :  0.27  495H :  0.27  752H :  0.27  740H :  0.27  693H :  0.26  134H :  0.26  128H :  0.26  419H :  0.25  350H :  0.25
  469O :  0.25  721O :  0.24  410H :  0.24  516H :  0.24  149H :  0.24  396H :  0.24  147H :  0.24  338H :  0.24  560H :  0.24  358O :  0.23  714H :  0.23  210H :  0.23
  326H :  0.23   32H :  0.22  152H :  0.22  733O :  0.22  744H :  0.21   42H :  0.21  279H :  0.21  369H :  0.21  585H :  0.21  405H :  0.21  156H :  0.21  334O :  0.20
   47H :  0.20  573H :  0.20   41H :  0.20  506H :  0.20  189H :  0.20  404H :  0.20  511O :  0.20  278H :  0.19  641H :  0.19  402H :  0.19  672H :  0.19  681H :  0.18
  525H :  0.18  594H :  0.18  150H :  0.18  575H :  0.18  558H :  0.18  722H :  0.18  365H :  0.18   74H :  0.17  482H :  0.17  308H :  0.17  188H :  0.17  713H :  0.17
  251H :  0.16  431H :  0.16  737H :  0.16  275H :  0.16  153H :  0.16  254H :  0.16  261H :  0.15  474H :  0.15  629H :  0.15  231H :  0.15   30H :  0.15  377H :  0.15
    6H :  0.15  146H :  0.15  555H :  0.15  360H :  0.15  716H :  0.14  671H :  0.14  567H :  0.14  743H :  0.14   72H :  0.14  491H :  0.14  372H :  0.14  683H :  0.14
  195H :  0.13  159H :  0.13  498H :  0.13  618H :  0.13  738H :  0.13   81H :  0.13  500H :  0.13  630H :  0.13  414H :  0.13  606H :  0.13  540H :  0.13  545H :  0.12
  542H :  0.12  719H :  0.12  306H :  0.12  186H :  0.12  579H :  0.12  380H :  0.12  272H :  0.12  533H :  0.12   71H :  0.12   93H :  0.12  684H :  0.11  464H :  0.11
   66H :  0.11  424O :  0.11  140H :  0.11  731H :  0.11   86H :  0.11  260H :  0.11   77H :  0.11  293H :  0.10  636H :  0.10  654H :  0.10  357H :  0.10  234H :  0.10
  347H :  0.10  529O :  0.10  401H :  0.10  611H :  0.10  192H :  0.10  720H :  0.10  162H :  0.10  171H :  0.10  126H :  0.09  315H :  0.09    2H :  0.09  285H :  0.09
  447H :  0.09  422H :  0.09  497H :  0.09  692H :  0.09  384H :  0.09  522H :  0.09  420H :  0.09   38H :  0.09  650H :  0.09  167H :  0.08  335H :  0.08  483H :  0.08
  429H :  0.08  547O :  0.08  425H :  0.08   59H :  0.08  427O :  0.08  375H :  0.08  564H :  0.08   99H :  0.08  572H :  0.08  413H :  0.08  329H :  0.08  515H :  0.08
  521H :  0.08  144H :  0.08  416H :  0.08   63H :  0.08  417H :  0.07  455H :  0.07   39H :  0.07  609H :  0.07  191H :  0.07
    9 LP   *******   0.00  -7.99526  -5.23989 -43.86641  271O : 15.78  697O : 13.26  352O : 11.70  478O : 11.53  568O : 11.40  457O : 10.94  325O : 10.55  247O : 10.51  172O : 10.33  166O :  9.75   49O :  9.58  250O :  8.78
   52O :  8.71  724O :  8.44  451O :  8.28  574O :  8.27  505O :  8.16  601O :  7.98   10O :  7.54  712O :  7.53  388O :  7.46  709O :  7.44  157O :  7.40  445O :  7.27
  664O :  7.25   40O :  7.22  430O :  7.14  274O :  6.88   13O :  6.81  121O :  6.76  154O :  6.74  661O :  6.68  700O :  6.61  253O :  6.32  370O :  6.19  232O :  6.15
  706O :  6.15  295O :  6.04   43O :  5.86  151O :  5.65  448O :  5.60  403O :  5.59   91O :  5.50  211O :  5.39  502O :  5.30  412O :  5.20  118O :  5.11  187O :  5.09
  244O :  4.99   73O :  4.93   25O :  4.84  454O :  4.84    1O :  4.73  487O :  4.71   16O :  4.71  694O :  4.68  361O :  4.66  553O :  4.61  310O :  4.48   94O :  4.38
  331O :  4.37  145O :  4.36  571O :  4.36  184O :  4.33   85O :  4.30  421O :  4.25  589O :  4.24  673O :  4.19   34O :  4.19  307O :  4.16    4O :  4.12  607O :  4.10
  238O :  4.10  133O :  4.09  622O :  4.08   28O :  4.06  442O :  4.04  745O :  4.03  418O :  3.99    7O :  3.97  103O :  3.96  322O :  3.93   37O :  3.83  670O :  3.83
  241O :  3.76  262O :  3.76  115O :  3.75  169O :  3.72  382O :  3.68   22O :  3.67  148O :  3.62  400O :  3.57  742O :  3.56  640O :  3.47  283O :  3.46  628O :  3.46
  124O :  3.45  277O :  3.42  619O :  3.40  100O :  3.34  349O :  3.27   31O :  3.22  583O :  3.22  217O :  3.20  181O :  3.19  214O :  3.12  130O :  3.10   61O :  3.06
  196O :  2.98  631O :  2.98  493O :  2.97   67O :  2.94  136O :  2.88  373O :  2.87  235O :  2.85   58O :  2.84   79O :  2.82  391O :  2.78  475O :  2.77  415O :  2.74
  676O :  2.72  466O :  2.71  658O :  2.67  346O :  2.67  496O :  2.62  514O :  2.61  592O :  2.61  736O :  2.60   88O :  2.60  739O :  2.59  355O :  2.59  301O :  2.51
  163O :  2.48  109O :  2.45  538O :  2.45  562O :  2.41  727O :  2.40  367O :  2.36  376O :  2.35  679O :  2.34  112O :  2.33  586O :  2.29  340O :  2.27  751O :  2.24
   76O :  2.21  463O :  2.17  517O :  2.12  691O :  2.12  259O :  2.10  286O :  2.10  394O :  2.04  439O :  2.02  613O :  2.00  703O :  1.99  190O :  1.98  328O :  1.94
  127O :  1.89  532O :  1.88   70O :  1.85  409O :  1.82  106O :  1.82  343O :  1.73  174H :  1.69  541O :  1.68  616O :  1.68   55O :  1.67  535O :  1.66  311H :  1.66
  520O :  1.64  472O :  1.60  730O :  1.50  268O :  1.48  364O :  1.43  688O :  1.42  556O :  1.42  565O :  1.38  577O :  1.36  337O :  1.33  667O :  1.32  208O :  1.32
  649O :  1.29  459H :  1.28   82O :  1.27   97O :  1.25  550O :  1.18  754O :  1.17  120H :  1.17  444H :  1.17  199O :  1.16  226O :  1.15  499O :  1.15  202O :  1.11
   19O :  1.09  333H :  1.08  243H :  1.07  193O :  1.07  255H :  1.04  265O :  1.04  484O :  1.00  559O :  1.00  137H :  0.99  625O :  0.97  385O :  0.97  354H :  0.96
  637O :  0.95   53H :  0.94  313O :  0.93  316O :  0.92   50H :  0.92  666H :  0.91  490O :  0.91  718O :  0.89  175O :  0.89  178O :  0.88  205O :  0.88  655O :  0.86
  233H :  0.85  406O :  0.85  696H :  0.83  304O :  0.83  229O :  0.83  220O :  0.82  748O :  0.81   11H :  0.80  142O :  0.78  339H :  0.76  610O :  0.76  746H :  0.73
  598O :  0.73  436O :  0.71   56H :  0.70  280O :  0.70  523O :  0.69  595O :  0.68  526O :  0.67  710H :  0.66  481O :  0.64  319O :  0.64  544O :  0.64  160O :  0.64
  397O :  0.63  646O :  0.62  580O :  0.62  634O :  0.61  569H :  0.59   46O :  0.58  643O :  0.58   12H :  0.56  155H :  0.56  507H :  0.56  246H :  0.54   75H :  0.53
  180H :  0.52  682O :  0.51  543H :  0.50  292O :  0.49  590H :  0.49  503H :  0.49  296H :  0.49   44H :  0.48  398H :  0.47  593H :  0.47   87H :  0.47  312H :  0.47
  215H :  0.47  407H :  0.46  139O :  0.45   45H :  0.45   18H :  0.44  116H :  0.44  256O :  0.44  197H :  0.43  527H :  0.42   29H :  0.42  715O :  0.42   54H :  0.42
  348H :  0.42  122H :  0.41   64O :  0.41  366H :  0.40  604O :  0.40  213H :  0.40  584H :  0.40  460O :  0.39  675H :  0.39  685O :  0.39  477H :  0.38  702H :  0.38
  125H :  0.38  554H :  0.38  309H :  0.37  473H :  0.37  276H :  0.37  344H :  0.37  288H :  0.36  297H :  0.36  614H :  0.36  131H :  0.35  135H :  0.35  433O :  0.34
  170H :  0.34  389H :  0.34  201H :  0.33  300H :  0.32  105H :  0.32  371H :  0.32  508O :  0.31  102H :  0.31  674H :  0.31  223O :  0.31   24H :  0.31  287H :  0.30
  453H :  0.30  182H :  0.30   23H :  0.30  678H :  0.30  588H :  0.30  378H :  0.30  435H :  0.29  298O :  0.29  652O :  0.29    3H :  0.29   35H :  0.29  449H :  0.29
   33H :  0.29  570H :  0.28  704H :  0.28  341H :  0.28  379O :  0.27  252H :  0.27  185H :  0.27  368H :  0.27  537H :  0.27  219H :  0.27  591H :  0.26  266H :  0.26
  237H :  0.26   69H :  0.26  198H :  0.26  119H :  0.26  123H :  0.26  273H :  0.26  440H :  0.26  707H :  0.25  699H :  0.25   90H :  0.25  318H :  0.24  660H :  0.24
   95H :  0.24  708H :  0.24  495H :  0.24  740H :  0.24  752H :  0.24  289O :  0.24  693H :  0.24  134H :  0.23  128H :  0.23  419H :  0.23  350H :  0.22  469O :  0.22
  721O :  0.22  410H :  0.22  516H :  0.22  149H :  0.22  396H :  0.21  147H :  0.21  479H :  0.21  338H :  0.21  560H :  0.21  358O :  0.21  714H :  0.20  210H :  0.20
[...]
   369   1 h    0.874 --   367 o    0.812
   370   8 o    1.830 --   371 h    0.872   372 h    0.811
   371   1 h    0.903 --   370 o    0.872
   372   1 h    0.883 --   370 o    0.811
   373   8 o    1.863 --   374 h    0.886   375 h    0.871
   374   1 h    0.899 --   373 o    0.886
   375   1 h    0.895 --   373 o    0.871
   376   8 o    1.880 --   377 h    0.828   378 h    0.815
   377   1 h    0.886 --   376 o    0.828
   378   1 h    0.890 --   376 o    0.815
   379   8 o    1.851 --   380 h    0.792   381 h    0.775
   380   1 h    0.879 --   379 o    0.792
   381   1 h    0.880 --   379 o    0.775
   382   8 o    1.849 --   383 h    0.824   384 h    0.813
   383   1 h    0.884 --   382 o    0.824
   384   1 h    0.884 --   382 o    0.813
   385   8 o    1.850 --   386 h    0.914   387 h    0.794
   386   1 h    0.920 --   385 o    0.914
   387   1 h    0.876 --   385 o    0.794
   388   8 o    1.892 --   390 h    0.848   389 h    0.800
   389   1 h    0.869 --   388 o    0.800
   390   1 h    0.890 --   388 o    0.848
   391   8 o    1.828 --   393 h    0.857   392 h    0.841
   392   1 h    0.883 --   391 o    0.841
   393   1 h    0.897 --   391 o    0.857
   394   8 o    1.818 --   395 h    0.877   396 h    0.856
   395   1 h    0.899 --   394 o    0.877
   396   1 h    0.895 --   394 o    0.856
   397   8 o    1.840 --   399 h    0.890   398 h    0.809
   398   1 h    0.882 --   397 o    0.809
   399   1 h    0.906 --   397 o    0.890
   400   8 o    1.836 --   402 h    0.824   401 h    0.816
   401   1 h    0.887 --   400 o    0.816
   402   1 h    0.891 --   400 o    0.824
   403   8 o    1.858 --   404 h    0.836   405 h    0.825
   404   1 h    0.892 --   403 o    0.836
   405   1 h    0.882 --   403 o    0.825
   406   8 o    1.871 --   408 h    0.822   407 h    0.795
   407   1 h    0.882 --   406 o    0.795
   408   1 h    0.877 --   406 o    0.822
   409   8 o    1.884 --   410 h    0.836   411 h    0.807
   410   1 h    0.889 --   409 o    0.836
   411   1 h    0.867 --   409 o    0.807
   412   8 o    1.855 --   414 h    0.841   413 h    0.812
   413   1 h    0.875 --   412 o    0.812
   414   1 h    0.885 --   412 o    0.841
   415   8 o    1.856 --   416 h    0.866   417 h    0.808
   416   1 h    0.903 --   415 o    0.866
   417   1 h    0.878 --   415 o    0.808
   418   8 o    1.843 --   420 h    0.864   419 h    0.793
   419   1 h    0.869 --   418 o    0.793
   420   1 h    0.896 --   418 o    0.864
   421   8 o    1.857 --   422 h    0.827   423 h    0.822
   422   1 h    0.874 --   421 o    0.827
   423   1 h    0.874 --   421 o    0.822
   424   8 o    1.861 --   425 h    0.829   426 h    0.820
   425   1 h    0.893 --   424 o    0.829
   426   1 h    0.875 --   424 o    0.820
   427   8 o    1.865 --   428 h    0.832   429 h    0.819
   428   1 h    0.882 --   427 o    0.832
   429   1 h    0.888 --   427 o    0.819
   430   8 o    1.816 --   432 h    0.879   431 h    0.841
   431   1 h    0.891 --   430 o    0.841
   432   1 h    0.901 --   430 o    0.879
   433   8 o    1.863 --   434 h    0.829   435 h    0.789
   434   1 h    0.891 --   433 o    0.829
   435   1 h    0.873 --   433 o    0.789
   436   8 o    1.844 --   438 h    0.894   437 h    0.822
   437   1 h    0.889 --   436 o    0.822
   438   1 h    0.905 --   436 o    0.894
   439   8 o    1.870 --   440 h    0.895   441 h    0.839
   440   1 h    0.905 --   439 o    0.895
   441   1 h    0.887 --   439 o    0.839
   442   8 o    1.838 --   444 h    0.819   443 h    0.779
   443   1 h    0.868 --   442 o    0.779
   444   1 h    0.884 --   442 o    0.819
   445   8 o    1.831 --   446 h    0.882   447 h    0.789
   446   1 h    0.900 --   445 o    0.882
   447   1 h    0.876 --   445 o    0.789
   448   8 o    1.894 --   449 h    0.824   450 h    0.814
   449   1 h    0.886 --   448 o    0.824
   450   1 h    0.884 --   448 o    0.814
   451   8 o    1.877 --   453 h    0.818   452 h    0.815
   452   1 h    0.890 --   451 o    0.815
   453   1 h    0.891 --   451 o    0.818
   454   8 o    1.867 --   456 h    0.871   455 h    0.823
   455   1 h    0.884 --   454 o    0.823
   456   1 h    0.890 --   454 o    0.871
   457   8 o    1.891 --   458 h    0.832   459 h    0.797
   458   1 h    0.885 --   457 o    0.832
   459   1 h    0.870 --   457 o    0.797
   460   8 o    1.843 --   462 h    0.822   461 h    0.804
   461   1 h    0.876 --   460 o    0.804
   462   1 h    0.882 --   460 o    0.822
   463   8 o    1.851 --   464 h    0.877   465 h    0.859
   464   1 h    0.896 --   463 o    0.877
   465   1 h    0.889 --   463 o    0.859
   466   8 o    1.877 --   467 h    0.854   468 h    0.810
   467   1 h    0.888 --   466 o    0.854
   468   1 h    0.885 --   466 o    0.810
   469   8 o    1.852 --   470 h    0.881   471 h    0.837
   470   1 h    0.901 --   469 o    0.881
   471   1 h    0.888 --   469 o    0.837
   472   8 o    1.854 --   474 h    0.872   473 h    0.841
   473   1 h    0.892 --   472 o    0.841
   474   1 h    0.897 --   472 o    0.872
   475   8 o    1.892 --   476 h    0.854   477 h    0.768
   476   1 h    0.889 --   475 o    0.854
   477   1 h    0.864 --   475 o    0.768
   478   8 o    1.825 --   479 h    0.832   480 h    0.830
   479   1 h    0.885 --   478 o    0.832
   480   1 h    0.893 --   478 o    0.830
   481   8 o    1.823 --   482 h    0.862   483 h    0.809
   482   1 h    0.897 --   481 o    0.862
   483   1 h    0.880 --   481 o    0.809
   484   8 o    1.883 --   485 h    0.879   486 h    0.821
   485   1 h    0.901 --   484 o    0.879
   486   1 h    0.888 --   484 o    0.821
   487   8 o    1.851 --   489 h    0.873   488 h    0.782
   488   1 h    0.873 --   487 o    0.782
   489   1 h    0.904 --   487 o    0.873
   490   8 o    1.843 --   491 h    0.849   492 h    0.823
   491   1 h    0.891 --   490 o    0.849
   492   1 h    0.886 --   490 o    0.823
   493   8 o    1.850 --   494 h    0.921   495 h    0.806
   494   1 h    0.923 --   493 o    0.921
   495   1 h    0.872 --   493 o    0.806
   496   8 o    1.846 --   497 h    0.914   498 h    0.791
   497   1 h    0.921 --   496 o    0.914
   498   1 h    0.872 --   496 o    0.791
   499   8 o    1.863 --   500 h    0.909   501 h    0.795
   500   1 h    0.914 --   499 o    0.909
   501   1 h    0.875 --   499 o    0.795
   502   8 o    1.838 --   504 h    0.869   503 h    0.861
   503   1 h    0.895 --   502 o    0.861
   504   1 h    0.893 --   502 o    0.869
   505   8 o    1.839 --   507 h    0.885   506 h    0.795
   506   1 h    0.877 --   505 o    0.795
   507   1 h    0.906 --   505 o    0.885
   508   8 o    1.857 --   509 h    0.843   510 h    0.813
   509   1 h    0.883 --   508 o    0.843
   510   1 h    0.872 --   508 o    0.813
   511   8 o    1.860 --   512 h    0.855   513 h    0.853
   512   1 h    0.893 --   511 o    0.855
   513   1 h    0.889 --   511 o    0.853
   514   8 o    1.850 --   515 h    0.864   516 h    0.835
   515   1 h    0.896 --   514 o    0.864
   516   1 h    0.892 --   514 o    0.835
   517   8 o    1.863 --   519 h    0.845   518 h    0.825
   518   1 h    0.892 --   517 o    0.825
   519   1 h    0.895 --   517 o    0.845
   520   8 o    1.855 --   521 h    0.841   522 h    0.799
   521   1 h    0.894 --   520 o    0.841
   522   1 h    0.885 --   520 o    0.799
   523   8 o    1.843 --   525 h    0.917   524 h    0.820
   524   1 h    0.881 --   523 o    0.820
   525   1 h    0.922 --   523 o    0.917
   526   8 o    1.851 --   528 h    0.871   527 h    0.814
   527   1 h    0.882 --   526 o    0.814
   528   1 h    0.899 --   526 o    0.871
   529   8 o    1.842 --   530 h    0.860   531 h    0.858
   530   1 h    0.887 --   529 o    0.860
   531   1 h    0.899 --   529 o    0.858
   532   8 o    1.867 --   533 h    0.856   534 h    0.782
   533   1 h    0.896 --   532 o    0.856
   534   1 h    0.870 --   532 o    0.782
   535   8 o    1.857 --   536 h    0.907   537 h    0.779
   536   1 h    0.914 --   535 o    0.907
   537   1 h    0.872 --   535 o    0.779
   538   8 o    1.849 --   539 h    0.864   540 h    0.837
   539   1 h    0.897 --   538 o    0.864
   540   1 h    0.890 --   538 o    0.837
   541   8 o    1.827 --   542 h    0.892   543 h    0.868
   542   1 h    0.904 --   541 o    0.892
   543   1 h    0.896 --   541 o    0.868
   544   8 o    1.843 --   546 h    0.863   545 h    0.811
   545   1 h    0.881 --   544 o    0.811
   546   1 h    0.901 --   544 o    0.863
   547   8 o    1.856 --   548 h    0.858   549 h    0.795
   548   1 h    0.899 --   547 o    0.858
   549   1 h    0.874 --   547 o    0.795
   550   8 o    1.841 --   552 h    0.839   551 h    0.792
   551   1 h    0.886 --   550 o    0.792
   552   1 h    0.889 --   550 o    0.839
   553   8 o    1.853 --   554 h    0.861   555 h    0.858
   554   1 h    0.897 --   553 o    0.861
   555   1 h    0.898 --   553 o    0.858
   556   8 o    1.875 --   557 h    0.828   558 h    0.795
   557   1 h    0.884 --   556 o    0.828
   558   1 h    0.870 --   556 o    0.795
   559   8 o    1.829 --   560 h    0.826   561 h    0.799
   560   1 h    0.887 --   559 o    0.826
   561   1 h    0.879 --   559 o    0.799
   562   8 o    1.848 --   563 h    0.786   564 h    0.770
   563   1 h    0.883 --   562 o    0.786
   564   1 h    0.869 --   562 o    0.770
   565   8 o    1.855 --   566 h    0.834   567 h    0.797
   566   1 h    0.896 --   565 o    0.834
   567   1 h    0.876 --   565 o    0.797
   568   8 o    1.845 --   570 h    0.886   569 h    0.826
   569   1 h    0.885 --   568 o    0.826
   570   1 h    0.906 --   568 o    0.886
   571   8 o    1.856 --   572 h    0.838   573 h    0.777
   572   1 h    0.891 --   571 o    0.838
   573   1 h    0.864 --   571 o    0.777
   574   8 o    1.841 --   576 h    0.823   575 h    0.821
   575   1 h    0.891 --   574 o    0.821
   576   1 h    0.888 --   574 o    0.823
   577   8 o    1.855 --   579 h    0.866   578 h    0.842
   578   1 h    0.894 --   577 o    0.842
   579   1 h    0.899 --   577 o    0.866
   580   8 o    1.871 --   581 h    0.841   582 h    0.807
   581   1 h    0.894 --   580 o    0.841
   582   1 h    0.878 --   580 o    0.807
   583   8 o    1.833 --   584 h    0.880   585 h    0.768
   584   1 h    0.903 --   583 o    0.880
   585   1 h    0.870 --   583 o    0.768
   586   8 o    1.833 --   587 h    0.842   588 h    0.828
   587   1 h    0.895 --   586 o    0.842
   588   1 h    0.886 --   586 o    0.828
   589   8 o    1.855 --   590 h    0.857   591 h    0.778
   590   1 h    0.902 --   589 o    0.857
   591   1 h    0.867 --   589 o    0.778
   592   8 o    1.845 --   593 h    0.872   594 h    0.813
   593   1 h    0.901 --   592 o    0.872
   594   1 h    0.881 --   592 o    0.813
   595   8 o    1.856 --   596 h    0.853   597 h    0.839
   596   1 h    0.897 --   595 o    0.853
   597   1 h    0.890 --   595 o    0.839
   598   8 o    1.845 --   599 h    0.901   600 h    0.827
   599   1 h    0.910 --   598 o    0.901
   600   1 h    0.891 --   598 o    0.827
   601   8 o    1.824 --   603 h    0.893   602 h    0.815
   602   1 h    0.879 --   601 o    0.815
   603   1 h    0.907 --   601 o    0.893
   604   8 o    1.864 --   605 h    0.847   606 h    0.845
   605   1 h    0.894 --   604 o    0.847
   606   1 h    0.891 --   604 o    0.845
   607   8 o    1.825 --   608 h    0.867   609 h    0.829
   608   1 h    0.894 --   607 o    0.867
   609   1 h    0.886 --   607 o    0.829
   610   8 o    1.830 --   611 h    0.884   612 h    0.820
   611   1 h    0.903 --   610 o    0.884
   612   1 h    0.871 --   610 o    0.820
   613   8 o    1.856 --   615 h    0.896   614 h    0.792
   614   1 h    0.876 --   613 o    0.792
   615   1 h    0.911 --   613 o    0.896
   616   8 o    1.876 --   617 h    0.913   618 h    0.809
   617   1 h    0.918 --   616 o    0.913
   618   1 h    0.882 --   616 o    0.809
   619   8 o    1.846 --   621 h    0.884   620 h    0.812
   620   1 h    0.888 --   619 o    0.812
   621   1 h    0.904 --   619 o    0.884
   622   8 o    1.856 --   624 h    0.839   623 h    0.809
   623   1 h    0.888 --   622 o    0.809
   624   1 h    0.894 --   622 o    0.839
   625   8 o    1.870 --   627 h    0.897   626 h    0.813
   626   1 h    0.867 --   625 o    0.813
   627   1 h    0.907 --   625 o    0.897
   628   8 o    1.832 --   630 h    0.866   629 h    0.804
   629   1 h    0.877 --   628 o    0.804
   630   1 h    0.892 --   628 o    0.866
   631   8 o    1.875 --   632 h    0.832   633 h    0.797
   632   1 h    0.889 --   631 o    0.832
   633   1 h    0.867 --   631 o    0.797
   634   8 o    1.822 --   636 h    0.871   635 h    0.827
   635   1 h    0.890 --   634 o    0.827
   636   1 h    0.897 --   634 o    0.871
   637   8 o    1.866 --   639 h    0.835   638 h    0.812
   638   1 h    0.874 --   637 o    0.812
   639   1 h    0.894 --   637 o    0.835
   640   8 o    1.856 --   642 h    0.829   641 h    0.784
   641   1 h    0.873 --   640 o    0.784
   642   1 h    0.893 --   640 o    0.829
   643   8 o    1.849 --   644 h    0.879   645 h    0.820
   644   1 h    0.900 --   643 o    0.879
   645   1 h    0.886 --   643 o    0.820
   646   8 o    1.858 --   648 h    0.916   647 h    0.814
   647   1 h    0.875 --   646 o    0.814
   648   1 h    0.922 --   646 o    0.916
   649   8 o    1.844 --   650 h    0.911   651 h    0.797
   650   1 h    0.920 --   649 o    0.911
   651   1 h    0.884 --   649 o    0.797
   652   8 o    1.858 --   654 h    0.854   653 h    0.823
   653   1 h    0.884 --   652 o    0.823
   654   1 h    0.889 --   652 o    0.854
   655   8 o    1.832 --   656 h    0.829   657 h    0.825
   656   1 h    0.894 --   655 o    0.829
   657   1 h    0.892 --   655 o    0.825
   658   8 o    1.876 --   660 h    0.859   659 h    0.845
   659   1 h    0.893 --   658 o    0.845
   660   1 h    0.888 --   658 o    0.859
   661   8 o    1.887 --   662 h    0.824   663 h    0.821
   662   1 h    0.872 --   661 o    0.824
   663   1 h    0.885 --   661 o    0.821
   664   8 o    1.853 --   665 h    0.859   666 h    0.808
   665   1 h    0.896 --   664 o    0.859
   666   1 h    0.884 --   664 o    0.808
   667   8 o    1.856 --   668 h    0.850   669 h    0.792
   668   1 h    0.895 --   667 o    0.850
   669   1 h    0.873 --   667 o    0.792
   670   8 o    1.875 --   672 h    0.842   671 h    0.836
   671   1 h    0.889 --   670 o    0.836
   672   1 h    0.882 --   670 o    0.842
   673   8 o    1.844 --   675 h    0.829   674 h    0.821
   674   1 h    0.889 --   673 o    0.821
   675   1 h    0.886 --   673 o    0.829
   676   8 o    1.869 --   678 h    0.863   677 h    0.857
   677   1 h    0.896 --   676 o    0.857
   678   1 h    0.893 --   676 o    0.863
   679   8 o    1.872 --   681 h    0.861   680 h    0.810
   680   1 h    0.872 --   679 o    0.810
   681   1 h    0.895 --   679 o    0.861
   682   8 o    1.867 --   684 h    0.858   683 h    0.792
   683   1 h    0.870 --   682 o    0.792
   684   1 h    0.892 --   682 o    0.858
   685   8 o    1.857 --   686 h    0.856   687 h    0.820
   686   1 h    0.900 --   685 o    0.856
   687   1 h    0.881 --   685 o    0.820
   688   8 o    1.847 --   690 h    0.857   689 h    0.841
   689   1 h    0.891 --   688 o    0.841
   690   1 h    0.895 --   688 o    0.857
   691   8 o    1.866 --   693 h    0.838   692 h    0.794
   692   1 h    0.886 --   691 o    0.794
   693   1 h    0.893 --   691 o    0.838
   694   8 o    1.882 --   695 h    0.876   696 h    0.787
   695   1 h    0.903 --   694 o    0.876
   696   1 h    0.876 --   694 o    0.787
   697   8 o    1.846 --   699 h    0.860   698 h    0.810
   698   1 h    0.878 --   697 o    0.810
   699   1 h    0.897 --   697 o    0.860
   700   8 o    1.801 --   701 h    0.850   702 h    0.824
   701   1 h    0.901 --   700 o    0.850
   702   1 h    0.885 --   700 o    0.824
   703   8 o    1.845 --   704 h    0.825   705 h    0.823
   704   1 h    0.876 --   703 o    0.825
   705   1 h    0.880 --   703 o    0.823
   706   8 o    1.875 --   708 h    0.841   707 h    0.837
   707   1 h    0.884 --   706 o    0.837
   708   1 h    0.883 --   706 o    0.841
   709   8 o    1.813 --   711 h    0.851   710 h    0.819
   710   1 h    0.889 --   709 o    0.819
   711   1 h    0.899 --   709 o    0.851
   712   8 o    1.864 --   713 h    0.826   714 h    0.788
   713   1 h    0.889 --   712 o    0.826
   714   1 h    0.872 --   712 o    0.788
   715   8 o    1.839 --   716 h    0.874   717 h    0.825
   716   1 h    0.900 --   715 o    0.874
   717   1 h    0.886 --   715 o    0.825
   718   8 o    1.844 --   719 h    0.883   720 h    0.815
   719   1 h    0.902 --   718 o    0.883
   720   1 h    0.880 --   718 o    0.815
   721   8 o    1.874 --   723 h    0.868   722 h    0.836
   722   1 h    0.890 --   721 o    0.836
   723   1 h    0.894 --   721 o    0.868
   724   8 o    1.866 --   726 h    0.822   725 h    0.807
   725   1 h    0.879 --   724 o    0.807
   726   1 h    0.886 --   724 o    0.822
   727   8 o    1.859 --   728 h    0.888   729 h    0.827
   728   1 h    0.905 --   727 o    0.888
   729   1 h    0.888 --   727 o    0.827
   730   8 o    1.864 --   731 h    0.916   732 h    0.777
   731   1 h    0.921 --   730 o    0.916
   732   1 h    0.873 --   730 o    0.777
   733   8 o    1.860 --   735 h    0.836   734 h    0.793
   734   1 h    0.876 --   733 o    0.793
   735   1 h    0.893 --   733 o    0.836
   736   8 o    1.869 --   738 h    0.856   737 h    0.771
   737   1 h    0.871 --   736 o    0.771
   738   1 h    0.899 --   736 o    0.856
   739   8 o    1.832 --   740 h    0.862   741 h    0.849
   740   1 h    0.898 --   739 o    0.862
   741   1 h    0.892 --   739 o    0.849
   742   8 o    1.839 --   744 h    0.870   743 h    0.825
   743   1 h    0.885 --   742 o    0.825
   744   1 h    0.899 --   742 o    0.870
   745   8 o    1.854 --   747 h    0.828   746 h    0.817
   746   1 h    0.878 --   745 o    0.817
   747   1 h    0.884 --   745 o    0.828
   748   8 o    1.876 --   749 h    0.844   750 h    0.778
   749   1 h    0.886 --   748 o    0.844
   750   1 h    0.864 --   748 o    0.778
   751   8 o    1.865 --   752 h    0.850   753 h    0.812
   752   1 h    0.885 --   751 o    0.850
   753   1 h    0.869 --   751 o    0.812
   754   8 o    1.837 --   756 h    0.893   755 h    0.853
   755   1 h    0.885 --   754 o    0.853
   756   1 h    0.898 --   754 o    0.893
 ---------------------------------------------------------------------------

Topologies differ in total number of bonds
Writing topology from bond orders to xtbtopo.mol

molecular dipole:
                 x           y           z       tot (Debye)
 q only:        0.549       0.219      -1.041
   full:        0.115      -0.102      -1.802       4.596
molecular quadrupole (traceless):
                xx          xy          yy          xz          yz          zz
 q only:      154.418      50.450    -120.253      32.158      -6.042     -34.166
  q+dip:      209.581      88.927    -168.014      36.863     -11.845     -41.566
   full:      210.608      91.354    -168.198      35.729     -12.234     -42.410


           -------------------------------------------------
          | TOTAL ENERGY            -1283.314036741230 Eh   |
          | GRADIENT NORM               0.100205428708 Eh/α |
          | HOMO-LUMO GAP               6.187434055831 eV   |
           -------------------------------------------------

------------------------------------------------------------------------
 * finished run on 2022/11/24 at 12:22:37.640     
------------------------------------------------------------------------
 total:
 * wall-time:     0 d,  0 h,  0 min, 56.807 sec
 *  cpu-time:     0 d,  0 h,  1 min, 13.140 sec
 * ratio c/w:     1.288 speedup
 SCF:
 * wall-time:     0 d,  0 h,  0 min, 55.798 sec
 *  cpu-time:     0 d,  0 h,  1 min, 11.419 sec
 * ratio c/w:     1.280 speedup

