756
 energy: -1283.302129317946 gnorm: 0.033991544368 xtb: 6.5.1 (579679a)
o            5.44075598122246       -6.97603980848326       -0.44264468053275
h            4.61850688610869       -7.14553377155812       -0.95650886595805
h            5.21764880172168       -7.22814918419330        0.47846785990939
o           -0.08051003353068        2.84869831140597        4.49104625433414
h           -0.99660538283783        2.62052283327545        4.21704818495464
h            0.10663791250622        3.66717549317043        3.97059217482008
o            0.07775687838602       -1.59496659472355       -2.44939072865265
h           -0.18049556655439       -2.01172602325777       -1.60436387375179
h           -0.28174976786011       -2.14459581693088       -3.15805488760477
o           -5.62272688454003        2.43602186329282       -0.06906616239230
h           -5.02604781619807        2.29263252479625       -0.82205053853241
h           -5.95667737315687        3.34454730520247       -0.17583517108636
o           -3.44425367705244        2.19547397961031        1.47482599536998
h           -4.30838634948082        2.45105460369836        1.10413353296160
h           -2.81584152155423        2.89094239428705        1.19138520786667
o           -3.25156902912911       -5.05094745998769        0.09901457181346
h           -4.14213050270509       -5.01645422108828       -0.28034612169020
h           -3.16234709480682       -4.25117348628843        0.66248246083673
o            1.03287953087225       -4.60779460920240       -4.11045002074476
h            0.56744727055376       -4.74725016956405       -4.96410584164474
h            0.36411283861845       -4.45340118292662       -3.44037607101179
o           -0.25920344305204       -4.85324998262968        1.14579148679701
h           -0.58020243947055       -5.11197435432624        2.02776937706974
h           -0.15244635525630       -5.67972249965205        0.63960082925972
o           -0.97058268585211       -2.69619695775459       -0.25916936655483
h           -0.75185527814533       -3.51826353198583        0.21532433592287
h           -1.87403201873304       -2.81086028251681       -0.59958979077171
o            0.22338041347541        2.31891835765734       -4.71275195746461
h            0.57178430335138        1.77083095350769       -5.44038032395723
h           -0.36286400553452        1.70379020462750       -4.21573076257710
o           -3.07343762145562       -0.91679495394232       -3.47365238622473
h           -3.80991356192744       -0.35520717484489       -3.78014054788960
h           -2.33495963776934       -0.28809429257128       -3.32305652989652
o           -1.51713682184441        4.15205439898438       -3.23307091344527
h           -0.57399016764710        4.35237712939910       -3.40831540408675
h           -1.81209073497928        3.39946043770829       -3.78693774015923
o           -3.35310485130892       -2.75829117809383       -1.50746473134205
h           -3.57734632290423       -3.58452468443835       -1.97108793852821
h           -3.34581741718469       -2.04436077753011       -2.17339506625857
o           -3.66454490641437        2.17548950156453       -2.00743412635624
h           -3.42231710118733        2.14583037421598       -2.94758658913168
h           -3.41846687744475        3.07086228589425       -1.71205041836093
o           -0.73790900293876        2.74738230620577       -1.15200044822064
h           -1.07666937260957        3.36653996006210       -1.83155707127359
h            0.20220543994001        2.60809112992917       -1.36363492738588
o           -1.01786471526573        0.72103777710417       -3.00109700426727
h           -0.98947872369895        1.34211500448268       -2.25387102499230
h           -0.44625196749787       -0.04543934028443       -2.76963031574178
o           -2.43730565507375       -0.23358640372856        3.50601067692269
h           -2.56912520624391       -1.08755832379932        3.95788411859907
h           -3.31147824417091        0.21134529469196        3.49759761330312
o           -4.09437716623569       -0.24578115219701        7.73475613759205
h           -5.06310902045965       -0.13829195726946        7.67061441724284
h           -3.98400539797542       -1.21358498130708        7.65325896915293
o           -1.07640893563376       -5.65261976686675        3.58392099359441
h           -2.01362887898123       -5.37579946624934        3.56865235821118
h           -0.69511372920922       -5.24112641034389        4.37813293250987
o           -3.74897166518135        1.80452694308120        6.11209516093762
h           -3.03849260369742        2.31344547576548        6.53763869075707
h           -3.81576282798456        0.93895037248712        6.56782271165663
o           -2.99804623014985       -2.85932193032061        1.66407825691176
h           -2.14007485325012       -2.88156135385741        2.12414364572815
h           -3.09442035970875       -1.97999933910134        1.27113594536799
o            4.06620685224922        0.11107805169448        1.88690868993791
h            4.07923976174024       -0.81456430922718        1.58389854635056
h            3.86526619679193        0.08371320923331        2.83949729825996
o            1.27265499422677       -2.53094587418621        1.21355850750945
h            2.21232087594741       -2.61047710890742        0.98401874750580
h            0.88764361054696       -3.41821492596787        1.25268249007960
o           -1.30549922387961        6.49958260008761       -1.85118406625279
h           -0.59707106070549        5.93075747716197       -1.45685894053667
h           -1.16576260524391        6.50823938428446       -2.81736512321295
o           -1.51878375729153        0.65204324010522        8.13009748141353
h           -1.44786084647189        1.60897952762372        7.98337928402570
h           -2.46341934535144        0.45363109201349        8.24247961638701
o           -4.87858574657940        0.79734908292419        3.61534721467866
h           -5.09724531309250        1.74464084023720        3.66121012202371
h           -5.25473689948086        0.48840746088716        2.76509725856254
o           -7.55683775389900        0.87855740339012       -1.28222109523923
h           -6.70295521761926        0.41523797787555       -1.40106288321372
h           -7.42461024466658        1.53725386367799       -0.58769160007568
o            2.67378139183415        2.55029590359079        1.03921408338494
h            3.40768637414505        1.96606566979394        1.26230005888770
h            2.81688637085767        2.84553388409977        0.11717161222898
o           -1.59359855365066       -3.12552185372329       -4.00301976471135
h           -1.66081735451447       -3.66561637751466       -3.18846255528388
h           -2.20123405337612       -2.36853355685444       -3.91966855954471
o            2.53339385555913       -2.14610564269072       -1.40912201426587
h            1.99336747256145       -2.95320267511035       -1.35719802948331
h            2.14073425518872       -1.47473858147818       -0.81164652579805
o           -3.87813290009841       -5.12974933847678       -2.95810520005579
h           -3.38713395665185       -5.24728223317263       -3.79301938699486
h           -4.81577087440693       -5.20487581890712       -3.20684739157807
o           -5.09280897850424       -0.17394305746184       -1.61377960697851
h           -4.67495987117097        0.57987857340073       -2.05047383126286
h           -4.58992119156057       -0.29164399364204       -0.79137199397895
o            1.84861806119057        1.11448017300180        5.59120186376488
h            1.88511685500433        1.16412613179587        6.56450353176475
h            0.92303583506332        0.90335264188977        5.38061436770223
o            4.59128458593420       -4.44013188445775        2.94988575231803
h            4.28665314839686       -4.95851755896324        3.71132613517404
h            5.13735005697184       -3.72811484041638        3.31766489779690
o            1.91111558569228       -1.26959282051090        3.39169570182841
h            1.68993303071281       -0.33403004260990        3.22122800244382
h            1.60416042077096       -1.78770198764201        2.60717271521426
o            2.99734209061520        2.90347152012466        3.82511816491655
h            2.90858777394951        3.81214892572009        4.14533756570752
h            2.64510741429474        2.30667969949324        4.50046409586003
o           -3.61068590711126        5.54954990722922       -4.05640181355891
h           -2.77339196249280        5.13468527201894       -3.75434969008221
h           -3.61176474571091        5.48685790584527       -5.01176701932311
o           -6.30285754893943        4.79717935383193       -1.17685979651453
h           -7.23375961587325        5.04195169792275       -1.31349043273800
h           -6.02805211213503        4.36941269511869       -2.00489415229203
o            0.63285667828517       -1.90433424472121        5.58646471430425
h            0.01698813282398       -1.15060433075016        5.66175966181871
h            1.07340649631249       -1.76533566921717        4.71423958092675
o           -3.48439009372828       -4.55474434252413        3.86537324758218
h           -3.97558375615724       -4.25675885367023        3.07118689906438
h           -3.23395675556291       -3.74080501123932        4.34342362382993
o           -0.73945250519552       -2.74362238215465        3.17047616885245
h           -1.18983633331026       -2.76330828872826        4.01957879397506
h            0.00321066750200       -3.36269709431907        3.21474172184564
o            1.05903658744569        1.13533721436694        2.70804002815586
h            1.57590650229178        1.69440752569800        2.10460006564116
h            0.69965049878831        1.72616514935157        3.39340019277026
o            1.16231139976390       -1.80147990976405       -8.57694743205578
h            1.59183923451405       -2.62193860324399       -8.27458071300872
h            1.89385653279352       -1.16292469190709       -8.66555387073515
o            3.37059436668599       -2.92792009935637        4.88117684453862
h            4.20611261006908       -2.67031221355610        5.30277042182434
h            3.04948952067722       -2.15333053532046        4.38516369785724
o           -7.36611802219323        1.95921933592924        2.21486807591109
h           -8.25318098889413        2.23944605833081        2.47806504709225
h           -6.88879177927791        2.77476777776525        2.04770899521973
o           -7.68927428431172        4.69051180192808        1.81543652746933
h           -7.11071912378834        5.20442143274883        2.40260802119298
h           -8.23345766692414        5.36065971205361        1.36234854560530
o           -7.90732665678171       -3.76985046384427        0.82333820331319
h           -7.99883820599138       -4.16160597169845        1.71490721899604
h           -8.43262623914547       -2.95515085792956        0.82182032535372
o            1.42248948222585       -6.92183846381192        4.50749494320764
h            0.81927772249006       -6.88487166014187        5.25142150648853
h            0.96147454629699       -7.42833390232116        3.81762538891185
o            6.34220285418885       -4.84754149635939        5.67512243777867
h            6.05444876588613       -3.96599839624609        5.97290965895075
h            5.53410385416221       -5.38243050983377        5.64915623088779
o            1.55159354504766        2.03449328064574       -2.36621962956887
h            2.27394729652960        2.62824221565946       -2.10482174882083
h            1.21772514202300        2.35056998292077       -3.22374079861102
o            3.59790165839699       -4.50426193030783       -2.65561249731993
h            4.15084671589672       -4.44968890327106       -1.85995728763869
h            2.70681195117012       -4.70490339859264       -2.32762222064982
o           -8.78677589418896        5.32450220590826       -2.21042358112342
h           -8.32072129952810        5.86969337452690       -2.87106332813107
h           -8.68568325596797        4.40420812829037       -2.54461118521862
o            6.62317014142189        0.62518083949773        2.83476364479904
h            7.25960301737557       -0.02185081367296        2.48144968357828
h            5.78207474005612        0.52432587695480        2.35549788366399
o            0.84685520663130        3.22060008700224       -8.11917161112736
h            0.38479783779941        2.99212004609964       -8.92623317545024
h            0.93812383476366        2.39378436651162       -7.61739365238085
o           -7.64438484467663       -1.88926353541950       -1.45485318802279
h           -8.39469068996508       -1.76159600536434       -0.84888161274333
h           -6.85406732259974       -2.04491680807883       -0.89572908069680
o           -2.58812963378085        2.69180954996201        3.89958327780811
h           -3.15546879864493        2.25079248857784        4.55407755228581
h           -2.97153490860951        2.49854990659207        3.01671664411795
o            2.68027205353227       -5.42546739544085        1.06532804566183
h            3.37276666288464       -4.84302955007791        0.74382390249028
h            2.25850591446220       -5.00721050754565        1.84446819187573
o           -2.88359080886893       -7.01490519907776        1.94474304387264
h           -3.08685822041046       -6.27497285492665        1.33767643609453
h           -3.58771367944270       -7.09474852627011        2.60090964789525
o            2.27595466024362       -0.35241222670442       -3.42571357187236
h            2.03419839887280        0.47211978529809       -2.96392800451546
h            2.30940673153977       -1.05498246412158       -2.74508898091882
o            3.48819518727560       -0.30967320876962       -8.55194213937587
h            3.52870469611693        0.39438421511037       -7.88975852121144
h            3.97539142107479       -1.05655844037560       -8.17200093122582
o           -2.70692162635971       -2.32412751197433        5.14076844285477
h           -2.23634783831801       -2.30106379471385        5.99697294121825
h           -3.63120924100695       -1.99832643190107        5.31728818807764
o           -0.15658134937275       -5.02782059733357       -6.45643367309091
h           -0.46027789129692       -4.12311521206967       -6.69613127575277
h           -0.96098044694320       -5.51229137268568       -6.23583500145762
o            2.01198053533428        0.06993505211161       -0.10175648735958
h            2.56349634066630        0.49551626652729       -0.77908096741940
h            2.53717124060875        0.09171470109078        0.70629539847214
o           -1.30221018098496       -4.86539536590293       -1.95190945710764
h           -1.95752722558619       -5.00484864376505       -1.24285123289214
h           -1.15926387184704       -5.73602614242853       -2.37255901048070
o            3.88136136109893       -5.93284057046831        5.18190655103783
h            3.27913907057121       -6.60021532395133        4.82892710988629
h            3.37429000294354       -5.47961455381734        5.87549036878934
o           -3.32660473546750       -1.78827356578920       -6.25050645169624
h           -3.88520249124230       -2.53183485490363       -5.98704561393966
h           -2.50547101634951       -2.15196144864738       -6.63472434284956
o           -5.90417920712769       -4.72562437457050       -0.96542495933078
h           -6.45556715447127       -4.31625664365056       -0.28035610308949
h           -5.80625238261275       -4.05257307321408       -1.66300468331156
o           -1.65099248752602        0.30995249844347       -5.75283952696825
h           -1.44480863095513        0.32877673469683       -6.69425514302654
h           -2.22715139867124       -0.45132289632780       -5.60954654306277
o          -10.99908897413682        4.76321869358234        1.66142776665778
h          -10.47928737766247        5.57694636248720        1.64368024560431
h          -11.09875078139042        4.55363909682699        0.71632207664160
o            2.33775361500986       -4.37349738403971        6.84540977390321
h            2.59428760920987       -3.72801723872553        6.14456439332510
h            2.39188984798729       -3.88293503555273        7.66657726361746
o           -1.48664348467335        3.11146641572730        6.91894684178066
h           -0.93789040518503        2.97186826697863        6.12182584723519
h           -1.40563024358967        4.04293900220781        7.13312458390945
o            4.09712344878076        0.75652334661201       -1.77364074714700
h            4.66177486819442        1.26623018862303       -1.16619755830366
h            4.51792670774016       -0.12226390275649       -1.83624690163818
o            5.18200731902877        3.00729659489173        2.36244779461928
h            5.84661905056805        2.93932596029790        3.07370556693058
h            4.32836780642691        2.94451184611665        2.83576793770597
o           -5.05010802136570        0.78597764387912       -4.24864880822273
h           -5.01303719070495        0.72826360603361       -5.21425408313658
h           -5.87576233886389        0.32450097919357       -3.98801776470317
o            4.51919525742245       -7.18814816580489        2.05256163516926
h            3.88052811787575       -6.47372959028662        1.84503207042359
h            5.23322403867667       -6.78306274728756        2.56158805534335
o           -3.25149222743594        1.78626217687602       -8.09540388293234
h           -2.46082279039193        1.28507777107424       -8.33489071131330
h           -3.93372735894048        1.15407631412835       -7.84465050209618
o            4.33541575887276       -0.52771784153976       -5.09832310429275
h            4.26141459773832       -1.35951513326833       -5.58736213482085
h            3.56990717849445       -0.47536580109693       -4.48297610958284
o           -6.73394739914438       -5.23325912757349        5.32751528762884
h           -6.07981247683267       -5.91457744456273        5.10641798054159
h           -7.30307178854235       -5.15548957778885        4.54558080667447
o           -9.65696539215512       -1.72740801533590        0.29727809641931
h          -10.48587245635132       -2.21882884404383        0.25099031041404
h           -9.85506654667569       -0.78784207370633        0.47665603837748
o           -9.21295057294975       -5.21981164282111       -0.92957752355666
h           -9.01138563265000       -4.80042729753024       -1.79201260904258
h           -8.66868494614492       -4.70260858480586       -0.27770815203521
o           -9.15357254505826        6.47493515797461        0.42643432653653
h           -8.50067634513203        7.18466495732815        0.62202296899033
h           -9.08386797042554        6.27009880177842       -0.51414833659885
o           -5.02679899022826        7.06990172907540       -0.31880375902249
h           -4.93128255919027        7.44755566753769       -1.20828132439912
h           -5.45863060986410        6.20401884570961       -0.46159195677480
o           -3.41430530443078        4.76345107376076       -1.28479416660055
h           -2.61938008338177        5.28628841315376       -1.49370154871884
h           -4.04852974438910        4.99239783462004       -1.96997154073198
o           -0.41803049611629        5.88988489905359        6.06799862822882
h            0.26141699744624        5.23151719373498        6.31963424668306
h            0.05685340872534        6.62517951553517        5.67428674235624
o            0.14192558373234        4.86034782117107        2.85876357947217
h           -0.42159277438577        4.49778042530908        2.13679646235406
h            1.04157578696561        4.99096009825359        2.48574407137991
o           -0.60918113038217        4.42238309020444       -6.09520303750497
h           -0.34856080066168        3.67205024401817       -5.50532029563257
h           -0.07796999516615        4.28728816293805       -6.89200521027984
o            3.49431452610801        4.04135334205529       -7.52417419522941
h            2.63651952209144        3.97729299089868       -7.96315938800153
h            3.29882640384468        4.37538871686431       -6.61797580070388
o            5.54674790008913        2.27994875217295       -0.22114978528221
h            5.51137959737044        2.40128564491557        0.74169881538761
h            6.41691536315751        2.58980742662537       -0.52643193245943
o            2.96640013318593        4.45628236785922       -4.96032709839567
h            3.48885835591400        5.17988789672529       -4.54661506307837
h            3.31375833955927        3.62889661092153       -4.56430868793668
o           -0.70451153443751        6.69341989620403       -4.50661646058925
h           -0.67887452061588        5.91172333012746       -5.08815293603630
h            0.16790073492249        7.08782970161205       -4.53083955874226
o           -5.40236002998504       -4.18503991462439        2.06057871192531
h           -5.34902593863292       -3.52336914071203        1.33953651182149
h           -5.97132099649862       -3.76806942250968        2.73293660364637
o            0.15275434362796       -7.09112344740617       -0.28703142087002
h            0.97377663845580       -7.44091490285359        0.09561658682911
h           -0.55998754694602       -7.72020181764237       -0.01541548866974
o            7.40577962871362       -3.53526304950874       -1.38595623311503
h            7.47269288360573       -2.60376301143071       -1.70008224067140
h            7.47556364553907       -4.10804350966797       -2.16069496253703
o            1.60337507674377       -4.42284548816127        3.33781578672724
h            2.28517947228801       -3.95422274953883        3.83872421785460
h            1.47476581097579       -5.28252151240330        3.77257916419128
o            5.04713805174159        8.18535178468723       -0.24319729513678
h            4.86701589985232        8.88704724378574       -0.86868801670545
h            5.97118378221099        7.88959932902635       -0.43411876622374
o           -6.79718194697760       -0.22786191515952        7.23801870347813
h           -6.74367363904154       -1.19124237468017        7.16856244532201
h           -7.15888615481951        0.04911810524271        6.37593428085937
o           -7.17416026520246       -1.89020968003205       -6.05931123143512
h           -8.06593135276653       -2.22635281174569       -6.16843636521048
h           -7.17433296328646       -1.46390007948355       -5.16331851786236
o           -4.68822936844008        7.67402126462677       -2.96361841214418
h           -4.20196741405366        6.91655049730301       -3.37048026739658
h           -4.29017882957001        8.47350360715323       -3.30424699264141
o           -7.03015652946289        6.40986710921136       -3.94388514199799
h           -6.29627000975065        6.92786352315341       -3.58368236591650
h           -6.67309877468929        5.89106439974417       -4.67530320653928
o            4.04676025955348       -0.13252879280446        4.64559098809584
h            3.15344350883275        0.19169009501562        4.86204640091348
h            4.63274125048803        0.48661217545357        5.13193975357349
o           -5.61225280011154       -2.75239937884052       -2.94197607635215
h           -5.43526246603222       -1.85249269723100       -2.63738857721092
h           -5.30058144182765       -2.83680240900979       -3.84867335513118
o            2.31113665007950       -3.99161139007011       -7.32781079734734
h            2.59435700260307       -3.78915810645324       -6.41089174481636
h            1.59776154806424       -4.63277613008468       -7.23890204199595
o            1.33226031139654       -4.55001359406300       -1.21759962903468
h            1.63830244400301       -5.10222023633112       -0.48168333711099
h            0.37668816655216       -4.68835498022842       -1.31332923585342
o           -4.54125737857526        4.73930219170138        1.32116257792618
h           -4.17213513962166        4.73874509075310        0.42638616424104
h           -4.20973065433376        5.53316363424947        1.75933141087456
o           -7.25302780358554       -0.57792293288180       -3.78832029323079
h           -8.02809523777692       -0.00320368420277       -3.97080302020069
h           -7.39628499859435       -1.01194992481416       -2.92350477336585
o          -10.98744075551762        4.15815001251902       -0.98254428154235
h          -10.58625075333872        4.70668994752690       -1.66769447067627
h          -11.49875289387951        3.44484664949717       -1.38760987496147
o            4.82021428619481        6.25175890988008        2.97677332422383
h            5.24992662542709        6.00438483923062        2.13368583884284
h            4.36669352257085        7.09850805582121        2.81079244542267
o           -5.66756168788013        3.38736157743054       -3.46858673969464
h           -5.60065388568768        3.94641982136269       -4.26629017728604
h           -5.31343903103460        2.51248590859887       -3.71432401269618
o            1.44060133254537        3.97864555977292        6.45904472544856
h            1.97833660585599        4.56222237073038        5.86396943585819
h            1.08097077701050        3.29047306711968        5.87571907086811
o            3.64611043212461        1.59894628075425       -6.53109334276412
h            3.63990383270039        2.49341867186781       -6.93509083698268
h            3.81188376184450        1.72027953069758       -5.57092556834578
o           -2.76066870787313       -5.03688967879237        6.65787408650185
h           -3.14889916075442       -5.30708842842418        5.82074172436882
h           -1.83455198959549       -4.80310013998249        6.47061162167559
o            5.71885868582128        4.99551361703067       -1.87572661067537
h            6.60727327859684        5.24997714662260       -2.17493408881592
h            5.70694001862684        5.11609906314327       -0.90956773881307
o           -5.48384789972486       -2.34690143856152        0.12383314651111
h           -4.66293754598639       -2.42694208403568       -0.40039750515222
h           -5.46514690875978       -1.49358949982919        0.59455327183915
o            9.20046086640842        5.95050788852939        3.03788288475403
h            9.88314866397068        6.56154292813912        3.31161053515834
h            9.59701052491754        5.04056611485127        3.04704967340362
o           -8.18000565358316       -0.57851599382719        2.51050645778255
h           -8.65485634822773        0.06470974379664        1.93618284126643
h           -8.03272769954688       -0.10257237558375        3.36135294634339
o           -5.34817541541209        3.47601062460591        3.54387018040993
h           -5.07146229618481        3.90227068735854        2.71225548806469
h           -5.19123520907263        4.11914547533784        4.25689563035794
o           -8.65418943678983        3.02305838272963       -0.10104447272557
h           -9.44092936989819        3.49981655779744       -0.40861435318999
h           -8.24311339592808        3.56768285590069        0.58938236331876
o           -6.08381595776117        2.70555538178630        7.05078170664926
h           -6.47423809673921        1.93560108312080        7.47367519541421
h           -5.26273186003899        2.37477921067497        6.62238276219502
o           -1.41841701570347       -2.12260427907121        7.51369190610195
h           -1.30132359496693       -1.23063609422508        7.85714390183723
h           -2.10805433182077       -2.54185532027388        8.03623782912153
o           -0.19355405544254       -4.42404648625006        5.85144041792033
h            0.60954559334801       -4.69371155333133        6.32185410767686
h           -0.07663692438982       -3.45071069135309        5.78812578239449
o           -3.22994395723505        4.06450916800694       -6.65014892941861
h           -2.28425308377372        4.29789289855391       -6.54089932915473
h           -3.25506408250481        3.34400204125307       -7.30689997588746
o            3.39075216121595        3.63359818338552       -1.28780698792096
h            4.29730268780884        3.31024202338550       -1.15976536760013
h            3.43593144532419        4.59623341827512       -1.12839341221114
o            6.70954770500761        2.84577945477689       -3.62734448786582
h            6.65621786805558        1.86135627950875       -3.59397163366206
h            7.02547082359756        3.13002229690561       -2.74844747870711
o            3.36312442307930        8.31537291962410        2.03698278981466
h            4.00740787130466        8.50391717243140        1.34232688766288
h            2.56753666729169        7.98510387306564        1.56278194030956
o            4.82109399511312        5.42474815590805        6.48582555006417
h            4.73470884522756        4.61893608406888        7.00474572302043
h            5.68207059993399        5.42126479623109        6.04979612771785
o            6.84681067197278        2.93137479553585        4.45931311177781
h            7.69797401110483        2.45627408331422        4.42249068629434
h            7.00520627787738        3.89393280843222        4.55811741821111
o            5.12629042109778       -4.39702757385647       -0.42229149152091
h            5.91609174462226       -4.01564823833992       -0.87306759479942
h            5.26257519325371       -5.38236633273984       -0.43317433741115
o            7.00229306074804       -3.95208933463681        1.47611370215050
h            6.19265681836329       -4.15794485883831        0.97943527033091