      -----------------------------------------------------------      
     |                   =====================                   |     
     |                           x T B                           |     
     |                   =====================                   |     
     |                         S. Grimme                         |     
     |          Mulliken Center for Theoretical Chemistry        |     
     |                    University of Bonn                     |     
      -----------------------------------------------------------      

   * xtb version 6.5.1 (579679a) compiled by 'ehlert@majestix' on 2022-07-11

   xtb is free software: you can redistribute it and/or modify it under
   the terms of the GNU Lesser General Public License as published by
   the Free Software Foundation, either version 3 of the License, or
   (at your option) any later version.
   
   xtb is distributed in the hope that it will be useful,
   but WITHOUT ANY WARRANTY; without even the implied warranty of
   MERCHANTABILITY or FITNESS FOR A PARTICULAR PURPOSE.  See the
   GNU Lesser General Public License for more details.
   
   Cite this work as:
   * C. Bannwarth, E. Caldeweyher, S. Ehlert, A. Hansen, P. Pracht,
     J. Seibert, S. Spicher, S. Grimme, WIREs Comput. Mol. Sci., 2020, 11,
     e01493. DOI: 10.1002/wcms.1493
   
   for GFN2-xTB:
   * C. Bannwarth, S. Ehlert and S. Grimme., J. Chem. Theory Comput., 2019,
     15, 1652-1671. DOI: 10.1021/acs.jctc.8b01176
   for GFN1-xTB:
   * S. Grimme, C. Bannwarth, P. Shushkov, J. Chem. Theory Comput., 2017,
     13, 1989-2009. DOI: 10.1021/acs.jctc.7b00118
   for GFN0-xTB:
   * P. Pracht, E. Caldeweyher, S. Ehlert, S. Grimme, ChemRxiv, 2019, preprint.
     DOI: 10.26434/chemrxiv.8326202.v1
   for GFN-FF:
   * S. Spicher and S. Grimme, Angew. Chem. Int. Ed., 2020, 59, 15665-15673.
     DOI: 10.1002/anie.202004239
   
   for ALPB and GBSA implicit solvation:
   * S. Ehlert, M. Stahn, S. Spicher, S. Grimme, J. Chem. Theory Comput.,
     2021, 17, 4250-4261. DOI: 10.1021/acs.jctc.1c00471
   
   for DFT-D4:
   * E. Caldeweyher, C. Bannwarth and S. Grimme, J. Chem. Phys., 2017,
     147, 034112. DOI: 10.1063/1.4993215
   * E. Caldeweyher, S. Ehlert, A. Hansen, H. Neugebauer, S. Spicher,
     C. Bannwarth and S. Grimme, J. Chem. Phys., 2019, 150, 154122.
     DOI: 10.1063/1.5090222
   * E. Caldeweyher, J.-M. Mewes, S. Ehlert and S. Grimme, Phys. Chem. Chem. Phys.
     2020, 22, 8499-8512. DOI: 10.1039/D0CP00502A
   
   for sTDA-xTB:
   * S. Grimme and C. Bannwarth, J. Chem. Phys., 2016, 145, 054103.
     DOI: 10.1063/1.4959605
   
   in the mass-spec context:
   * V. Asgeirsson, C. Bauer and S. Grimme, Chem. Sci., 2017, 8, 4879.
     DOI: 10.1039/c7sc00601b
   * J. Koopman and S. Grimme, ACS Omega 2019, 4, 12, 15120-15133.
     DOI: 10.1021/acsomega.9b02011
   
   for metadynamics refer to:
   * S. Grimme, J. Chem. Theory Comput., 2019, 155, 2847-2862
     DOI: 10.1021/acs.jctc.9b00143
   
   for SPH calculations refer to:
   * S. Spicher and S. Grimme, J. Chem. Theory Comput., 2021, 17, 1701-1714
     DOI: 10.1021/acs.jctc.0c01306
   
   with help from (in alphabetical order)
   P. Atkinson, C. Bannwarth, F. Bohle, G. Brandenburg, E. Caldeweyher
   M. Checinski, S. Dohm, S. Ehlert, S. Ehrlich, I. Gerasimov, C. Hölzer
   A. Katbashev, J. Koopman, C. Lavigne, S. Lehtola, F. März, M. Müller,
   F. Musil, H. Neugebauer, J. Pisarek, C. Plett, P. Pracht, F. Pultar,
   J. Seibert, P. Shushkov, S. Spicher, M. Stahn, M. Steiner, T. Strunk,
   J. Stückrath, T. Rose, and J. Unsleber
   
 * started run on 2022/11/03 at 00:49:15.946     

           -------------------------------------------------
          |                Calculation Setup                |
           -------------------------------------------------

          program call               : xtb cluster.xyz --gfn2 --ohess
          hostname                   : cn0272
          coordinate file            : cluster.xyz
          omp threads                :                     1

   ID    Z sym.   atoms
    1    1 H      1, 3, 5, 6, 8, 10-12, 14, 15, 17, 18, 20, 21, 23, 24, 26,
                  27, 29, 30, 32, 33, 35, 36, 38, 39, 41, 42, 44, 45, 47, 48,
                  50, 51, 53, 54, 56, 57, 59, 60, 62, 63, 65, 66, 68, 69, 71,
                  72, 74, 75, 77, 78, 80, 81, 83, 84, 86, 87, 89, 90, 92, 93,
                  95, 96, 98, 99, 101, 102, 104, 105, 107, 108, 110, 111,
                  113, 114, 116, 117, 119, 120, 122, 123, 125, 126, 128, 129,
                  131, 132, 134, 135, 137, 138, 140, 141, 143, 144, 146, 147,
                  149, 150, 152, 153, 155, 156, 158, 159, 161, 162, 164, 165,
                  167, 168, 170, 171, 173, 174, 176, 177, 179, 180, 182, 183,
                  185, 186, 188, 189, 191, 192, 194, 195, 197, 198, 200, 201,
                  203, 204, 206, 207, 209, 210, 212, 213, 215, 216, 218, 219,
                  221, 222, 224, 225, 227, 228, 230, 231, 233, 234, 236, 237,
                  239, 240, 242, 243, 245, 246, 248, 249, 251, 252, 254, 255,
                  257, 258, 260, 261, 263, 264, 266, 267, 269, 270, 272, 273,
                  275, 276, 278, 279, 281, 282, 284, 285, 287, 288, 290, 291,
                  293, 294, 296, 297, 299, 300, 302, 303, 305, 306, 308, 309,
                  311, 312, 314, 315, 317, 318, 320, 321, 323, 324, 326, 327,
                  329, 330, 332, 333, 335, 336, 338, 339, 341, 342, 344, 345,
                  347, 348, 350, 351, 353, 354, 356, 357, 359, 360, 362, 363,
                  365, 366, 368, 369, 371, 372, 374, 375, 377, 378, 380, 381,
                  383, 384, 386, 387, 389, 390, 392, 393, 395, 396, 398, 399,
                  401, 402, 404, 405, 407, 408, 410, 411, 413, 414, 416, 417,
                  419, 420, 422, 423, 425, 426, 428, 429, 431, 432, 434, 435,
                  437, 438, 440, 441, 443, 444, 446, 447, 449, 450, 452, 453,
                  455, 456, 458, 459, 461, 462, 464, 465, 467, 468, 470, 471,
                  473, 474, 476, 477, 479, 480, 482, 483, 485, 486, 488, 489,
                  491, 492, 494, 495, 497, 498, 500, 501, 503, 504, 506, 507,
                  509, 510, 512, 513, 515, 516, 518, 519, 521, 522, 524, 525,
                  527, 528, 530, 531, 533, 534, 536, 537, 539, 540, 542, 543,
                  545, 546, 548, 549, 551, 552, 554, 555, 557, 558, 560, 561,
                  563, 564, 566, 567, 569, 570, 572, 573, 575, 576, 578, 579,
                  581, 582, 584, 585, 587, 588, 590, 591, 593, 594, 596, 597,
                  599, 600, 602, 603, 605, 606, 608, 609, 611, 612
    2    6 C      2, 4
    3    8 O      7, 13, 16, 19, 22, 25, 28, 31, 34, 37, 40, 43, 46, 49, 52,
                  55, 58, 61, 64, 67, 70, 73, 76, 79, 82, 85, 88, 91, 94, 97,
                  100, 103, 106, 109, 112, 115, 118, 121, 124, 127, 130, 133,
                  136, 139, 142, 145, 148, 151, 154, 157, 160, 163, 166, 169,
                  172, 175, 178, 181, 184, 187, 190, 193, 196, 199, 202, 205,
                  208, 211, 214, 217, 220, 223, 226, 229, 232, 235, 238, 241,
                  244, 247, 250, 253, 256, 259, 262, 265, 268, 271, 274, 277,
                  280, 283, 286, 289, 292, 295, 298, 301, 304, 307, 310, 313,
                  316, 319, 322, 325, 328, 331, 334, 337, 340, 343, 346, 349,
                  352, 355, 358, 361, 364, 367, 370, 373, 376, 379, 382, 385,
                  388, 391, 394, 397, 400, 403, 406, 409, 412, 415, 418, 421,
                  424, 427, 430, 433, 436, 439, 442, 445, 448, 451, 454, 457,
                  460, 463, 466, 469, 472, 475, 478, 481, 484, 487, 490, 493,
                  496, 499, 502, 505, 508, 511, 514, 517, 520, 523, 526, 529,
                  532, 535, 538, 541, 544, 547, 550, 553, 556, 559, 562, 565,
                  568, 571, 574, 577, 580, 583, 586, 589, 592, 595, 598, 601,
                  604, 607, 610
    4    7 N      9

molecular fragmentation (1/2 indicates fragments):
111111111111222222222222222222222222222222222222222222222222222222222222
222222222222222222222222222222222222222222222222222222222222222222222222
222222222222222222222222222222222222222222222222222222222222222222222222
222222222222222222222222222222222222222222222222222222222222222222222222
222222222222222222222222222222222222222222222222222222222222222222222222
222222222222222222222222222222222222222222222222222222222222222222222222
222222222222222222222222222222222222222222222222222222222222222222222222
222222222222222222222222222222222222222222222222222222222222222222222222
222222222222222222222222222222222222
# atoms in fragment 1/2:    12   600
 fragment masses (1/2) :       62.09     3603.06
CMA distance (Bohr)    :   3.248
constraining FC (au)   :  0.0500

           -------------------------------------------------
          |                 G F N 2 - x T B                 |
           -------------------------------------------------

        Reference                      10.1021/acs.jctc.8b01176
      * Hamiltonian:
        H0-scaling (s, p, d)           1.850000    2.230000    2.230000
        zeta-weighting                 0.500000
      * Dispersion:
        s8                             2.700000
        a1                             0.520000
        a2                             5.000000
        s9                             5.000000
      * Repulsion:
        kExp                           1.500000    1.000000
        rExp                           1.000000
      * Coulomb:
        alpha                          2.000000
        third order                    shell-resolved
        anisotropic                    true
        a3                             3.000000
        a5                             4.000000
        cn-shift                       1.200000
        cn-exp                         4.000000
        max-rad                        5.000000


          ...................................................
          :                      SETUP                      :
          :.................................................:
          :  # basis functions                1224          :
          :  # atomic orbitals                1224          :
          :  # shells                          816          :
          :  # electrons                      1626          :
          :  max. iterations                   250          :
          :  Hamiltonian                  GFN2-xTB          :
          :  restarted?                      false          :
          :  GBSA solvation                  false          :
          :  PC potential                    false          :
          :  electronic temp.          300.0000000     K    :
          :  accuracy                    1.0000000          :
          :  -> integral cutoff          0.2500000E+02      :
          :  -> integral neglect         0.1000000E-07      :
          :  -> SCF convergence          0.1000000E-05 Eh   :
          :  -> wf. convergence          0.1000000E-03 e    :
          :  Broyden damping             0.4000000          :
          ...................................................

 iter      E             dE          RMSdq      gap      omega  full diag
   1  -1039.6608035 -0.103966E+04  0.406E+00    8.06       0.0  T
   2  -1039.7792907 -0.118487E+00  0.241E+00    8.16       1.0  T
   3  -1039.8039999 -0.247092E-01  0.229E-01    7.95       1.0  T
   4  -1039.8080995 -0.409958E-02  0.909E-02    7.97       1.0  T
   5  -1039.8086147 -0.515137E-03  0.297E-02    8.01       1.0  T
   6  -1039.8086449 -0.302212E-04  0.134E-02    8.02       1.0  T
   7  -1039.8086498 -0.495811E-05  0.190E-03    8.02       2.1  T
   8  -1039.8086503 -0.472056E-06  0.627E-04    8.02       6.4  T
   9  -1039.8086503 -0.182547E-07  0.206E-04    8.02      19.6  T

   *** convergence criteria satisfied after 9 iterations ***

         #    Occupation            Energy/Eh            Energy/eV
      -------------------------------------------------------------
         1        2.0000           -0.7423129             -20.1994
       ...           ...                  ...                  ...
       807        2.0000           -0.4609899             -12.5442
       808        2.0000           -0.4605559             -12.5324
       809        2.0000           -0.4598720             -12.5138
       810        2.0000           -0.4592313             -12.4963
       811        2.0000           -0.4563184             -12.4171
       812        2.0000           -0.4559161             -12.4061
       813        2.0000           -0.4472894             -12.1714 (HOMO)
       814                         -0.1526556              -4.1540 (LUMO)
       815                         -0.1427943              -3.8856
       816                         -0.1266341              -3.4459
       817                         -0.1222144              -3.3256
       818                         -0.1163951              -3.1673
       ...                                ...                  ...
      1224                          0.3671398               9.9904
      -------------------------------------------------------------
                  HL-Gap            0.2946338 Eh            8.0174 eV
             Fermi-level           -0.2999725 Eh           -8.1627 eV

 SCC (total)                   0 d,  0 h,  0 min, 16.480 sec
 SCC setup                      ...        0 min,  0.036 sec (  0.216%)
 Dispersion                     ...        0 min,  0.086 sec (  0.520%)
 classical contributions        ...        0 min,  0.021 sec (  0.127%)
 integral evaluation            ...        0 min,  0.712 sec (  4.320%)
 iterations                     ...        0 min,  5.798 sec ( 35.181%)
 molecular gradient             ...        0 min,  9.758 sec ( 59.210%)
 printout                       ...        0 min,  0.070 sec (  0.424%)

         :::::::::::::::::::::::::::::::::::::::::::::::::::::
         ::                     SUMMARY                     ::
         :::::::::::::::::::::::::::::::::::::::::::::::::::::
         :: total energy           -1033.479303440841 Eh    ::
         :: gradient norm              0.000278164519 Eh/a0 ::
         :: HOMO-LUMO gap              8.017394772936 eV    ::
         ::.................................................::
         :: SCC energy             -1039.808650321773 Eh    ::
         :: -> isotropic ES            5.733951513545 Eh    ::
         :: -> anisotropic ES         -1.318861907856 Eh    ::
         :: -> anisotropic XC         -0.097500732971 Eh    ::
         :: -> dispersion             -0.631440501323 Eh    ::
         :: repulsion energy           6.205962486652 Eh    ::
         :: add. restraining           0.000000000000 Eh    ::
         :: total charge               1.000000000000 e     ::
         :::::::::::::::::::::::::::::::::::::::::::::::::::::

      ----------------------------------------------------------- 
     |                       L-ANC optimizer                     |
      ----------------------------------------------------------- 
          low memory version by Sebastian Ehlert

          ...................................................
          :                      SETUP                      :
          :.................................................:
          :   energy convergence        0.5000000E-05 Eh    :
          :   grad. convergence         0.1000000E-02 Eh/a0 :
          :   optimization log               true           :
          :   writing optlog all                1     steps :
          :   Hessian reset                    20     steps :
          :   maximium step len.        1.0000000     a0    :
          :   LBFGS images                     20           :
          ...................................................
 * calculating model hessian...
Using Lindh-Hessian (1995)
 Shifting diagonal of input Hessian by   1.000268358212452E-002
 Lowest  eigenvalues of input Hessian
    0.010000    0.000000    0.000000    0.000000    0.000000    0.000000
    0.000000    0.010008    0.010041    0.010116    0.010127    0.010159
    0.010166    0.010185    0.010203    0.010209    0.010215    0.010221
 Highest eigenvalues
    1.438839    1.438911    1.439262    1.448973    1.457282    1.516917
 

........................................................................
.............................. CYCLE    1 ..............................
........................................................................
   1  -1039.8085351 -0.103981E+04  0.110E-03    8.02       0.0  T
   2  -1039.8085351 -0.158518E-07  0.671E-04    8.02       6.0  T
   3  -1039.8085351 -0.504633E-08  0.722E-05    8.02      56.0  T
     SCC iter.                  ...        0 min,  1.836 sec
     gradient                   ...        0 min,  9.544 sec
 * total energy  : -1033.4793032 Eh     change        0.2409254E-06 Eh
   gradient norm :     0.0004175 Eh/a0  converged?    E=F G=T D=F
   step length   :     0.0146138 a0

........................................................................
.............................. CYCLE    2 ..............................
........................................................................
   1  -1039.8085811 -0.103981E+04  0.663E-04    8.02       0.0  T
   2  -1039.8085811 -0.584873E-08  0.404E-04    8.02      10.0  T
   3  -1039.8085811 -0.202090E-08  0.428E-05    8.02      94.4  T
     SCC iter.                  ...        0 min,  1.838 sec
     gradient                   ...        0 min,  9.524 sec
 * total energy  : -1033.4793043 Eh     change       -0.1089840E-05 Eh
   gradient norm :     0.0001171 Eh/a0  converged?    E=T G=T D=F
   step length   :     0.0078024 a0

   *** GEOMETRY OPTIMIZATION CONVERGED AFTER 2 CYCLES ***

------------------------------------------------------------------------
 total energy gain   :        -0.0000008 Eh       -0.0005 kcal/mol
 total RMSD          :         0.0004532 a0        0.0002 Å
 total power (kW/mol):        -0.0011144 (step)   -0.0001 (real)
------------------------------------------------------------------------

 L-ANCopt (total)              0 d,  0 h,  0 min, 30.757 sec
 setup                          ...        0 min,  0.023 sec (  0.075%)
 model hessian                  ...        0 min,  4.625 sec ( 15.038%)
 ANC generation                 ...        0 min,  1.547 sec (  5.030%)
 coordinate transformation      ...        0 min,  0.013 sec (  0.042%)
 Rational function              ...        0 min,  0.003 sec (  0.009%)
 singlepoint calculation        ...        0 min, 24.526 sec ( 79.741%)
 optimization log               ...        0 min,  0.016 sec (  0.052%)
 hessian update                 ...        0 min,  0.000 sec (  0.000%)

================
 final structure:
================
612
 xtb: 6.5.1 (579679a)
H           -1.42974742304964        0.64746481282588       -0.52385444821323
C           -0.77957401566181        1.51291813835394       -0.61277491227701
H           -0.55686345521106        1.67486706921012       -1.66528803030852
C            0.51729319869179        1.24175414545205        0.13584157520273
H            1.13156967802225        2.13465672663910        0.17363552954452
H            1.05462914852096        0.45065261818324       -0.36638716324156
O           -1.43062878792240        2.67519248300103       -0.13885129567991
H           -2.22379965147448        2.42039988012981        0.37208020807824
N            0.24651876690793        0.78593427068008        1.50205524058887
H           -0.14043607466475        1.57840729980152        2.06507843517990
H            1.12687482892744        0.39036071980565        1.87805107762296
H           -0.45728262634853        0.01787965551373        1.46160840604280
O            6.54172270091043        6.10485858549707        1.36861947992137
H            5.64883499799572        5.94210383729136        1.04720760890797
H            6.59117284512726        5.78763227463755        2.29087056735549
O            0.85258324492063        3.53626862143070       -2.42930735942719
H            1.14290777864123        3.82022875131276       -1.54042051782633
H            1.14329864807005        2.60816521033384       -2.53434029561296
O            9.81060570491046        3.25965063747747       -1.88071483216975
H            9.37059650771350        3.66519165247242       -2.65512474513854
H            9.13135150097603        3.14679458465316       -1.19824306912776
O           -4.92383402350334        0.16279881355753        2.95400297305613
H           -5.67470737578135        0.68997652483334        2.61029300632175
H           -4.75292398815207       -0.51080328413241        2.28562299123655
O           -3.75375052185783        4.47185865088181       -0.57885209355831
H           -3.32993341681695        3.71533427501392       -1.03474046554204
H           -4.55149981832150        4.10143454079646       -0.16059199545898
O           -1.00074848494492       -2.09990830837194       -3.84885801356598
H           -0.29656897759090       -2.32845021946522       -4.48027757304217
H           -0.56060168708600       -1.81543655889884       -3.01082838983113
O            3.76248095184390        1.79911876946030        0.75178255684705
H            4.68896164232205        1.51474843175156        0.68124483722378
H            3.56036523316144        1.85675869335994        1.69423661236062
O            7.93028138896694        5.33929640873672       -0.74268216377046
H            7.52382297694108        5.71844319969586        0.06980892948638
H            8.87912972672472        5.35335132440715       -0.61749161531229
O            2.64303589511574       -0.41244034060629        2.05028551572669
H            3.08014654280853        0.16676553542613        2.69158734586477
H            3.34698009798190       -0.94092914336231        1.64454056041070
O            0.33412148352108       -1.29090784082183       -1.79673037360069
H            1.13683604508347       -1.79794561529199       -2.05352925162969
H            0.55102166051720       -0.38583479910190       -2.08342481291687
O            5.67569350937552        3.43525664198269       -3.25525492435587
H            6.19242050014827        2.99004985594376       -2.56269586886206
H            5.97808384789272        4.36855066645787       -3.24243577729014
O            8.60923341504725        4.12381752538796       -4.13846460197435
H            8.03740875386153        4.88515343631521       -3.99004488977920
H            8.11697502130918        3.50631503569671       -4.70186765007585
O           -2.30037338345824       -0.29977197179844        1.48629096358561
H           -2.80693754103854        0.52987530306293        1.48177320740468
H           -2.24623310872312       -0.60660297454040        2.41170932467549
O           -3.00544098685986        1.53759631777948        4.08525471484052
H           -3.22979181193078        1.78745849562988        5.00252080199826
H           -3.81116978365226        1.25719651217545        3.61416744484380
O           -2.25596384032348        4.81438167555016        1.87841764031097
H           -3.17873243695407        4.61124502324570        1.65950883591413
H           -1.80357517542743        5.09098576635544        1.05288182604003
O            1.75144803579561       -0.44311299188751       -4.85737577975100
H            2.03691509325074       -1.24610483265621       -4.38661205885698
H            2.43326350362911       -0.24014833297039       -5.51849701801446
O           -0.26054063575529       -6.45395579740976        3.79598111657423
H           -0.28766504943396       -6.18378027746756        2.86572361916390
H           -1.15522152158816       -6.74108739135050        4.01429152881260
O            1.72130049237097       -3.28421507363169        2.55359340390105
H            2.02914208932071       -4.18606649906994        2.35934323340774
H            2.48832197383610       -2.80081465542674        2.91789852978608
O            1.74851001300397       -1.26465363458601        5.97881619999226
H            1.02195078092765       -1.47900744997295        6.57188331246128
H            1.36351087455070       -1.29414781136729        5.07366414746948
O           -0.75444921300569        0.81235100086453        6.59950587094671
H           -0.79145890859335       -0.15504453760697        6.56818675241483
H           -0.27962521251234        1.08990445131655        5.79136967956878
O            3.47468822728758        1.66049860600815        3.60846924763077
H            4.26345422384378        2.16103024362020        3.86238712857948
H            3.08579193921176        1.40467759087942        4.46433769117623
O           -1.52767310687103        3.93064978152735       -3.48770841035964
H           -2.18990495125171        3.31684328886334       -3.10634760096533
H           -0.66939512769111        3.74566278834084       -3.05099567418196
O           -4.86979856068472        4.06462145168323        2.12018984415013
H           -4.84700995500144        4.19949159244713        3.09180069723386
H           -5.80783136350808        4.16591142201303        1.89183923455314
O           -4.38540517713130       -1.80514516834835        0.93423297056599
H           -3.46647012904523       -1.45771636047308        0.90102842868626
H           -4.38578653848778       -2.64881427602235        0.45261663460802
O            2.10630532374508       -2.49483990026835       -0.10616125719905
H            2.63206827345880       -3.28500720517556       -0.32386948910649
H            1.87128443750944       -2.55237222119496        0.83716109724268
O            7.45714936445977        1.45089869288151       -2.54497441615844
H            7.78363531569109        1.51665244227482       -3.44436662984591
H            6.59113388458919        0.99376396680741       -2.59869843957767
O           -3.72519608716415        1.91970265691463        1.05574450200402
H           -4.16005642035457        2.66232347244228        1.52124969400649
H           -4.39993374978388        1.51192858159672        0.49025878529758
O            3.38700465374847        2.98087179130306       -1.71582714238387
H            4.27057890608027        3.26424784684240       -1.98577684509845
H            3.47426186568190        2.59262994623309       -0.83351801296795
O            2.98575978778946        1.08966275304280        6.20880737488746
H            2.35844520887768        1.80526859692436        6.41157719583920
H            2.45038724310388        0.27276373132539        6.17363420899608
O           -2.21549123516498       -3.77118317284709        1.71709343876867
H           -2.39159721932516       -3.77916872012598        2.67149076720461
H           -1.58438436112427       -4.49236893226355        1.54973018156149
O           -1.91221947377740        1.40307352087754       -7.86308332390555
H           -1.14220628481912        1.62915437261793       -8.38879952333340
H           -1.66198234508102        0.59972547832911       -7.38544026295556
O            4.07171773397926        5.33105238883778        0.10617724599065
H            4.18426621304832        5.82805968663289       -0.74397457547810
H            3.16912767146691        4.92116300894173       -0.01238454174015
O           -0.42926786939648        4.74791678011943       -5.79492467337107
H           -0.91412265746331        4.42509805757543       -5.01057059854838
H            0.27138196385433        4.08491682438658       -5.92672835830237
O            7.14777462310630       -4.03923294553606       -2.33589697045939
H            7.21473660407513       -3.13146981767101       -2.00674805423828
H            7.85246495660727       -4.53702469837728       -1.88885244110115
O           -0.00342206147419       -4.04369695060380       -1.00158814084550
H            0.68333961170929       -3.40802389709515       -0.71660285174772
H           -0.84793048313628       -3.54050695390923       -1.04681423701812
O          -10.74136197696373       -4.12672682164851        0.68376614076705
H           -9.91058055873484       -4.57167174834050        0.99659330458217
H          -11.42585066125106       -4.79442483816917        0.66661734172672
O           -8.55802908590946       -5.30674489680720        1.54676562681212
H           -8.34789569053044       -5.76190784323827        0.71519375719042
H           -7.75036372215330       -4.71963979162741        1.66053716929098
O            0.25304156803275       -3.98919579129903        4.66960356225920
H            0.72823317633224       -3.60543353217244        3.89079585297501
H            0.16066487487106       -4.94459643668164        4.45372890762185
O            1.62001454290745        4.47559831391383        0.00370359663892
H            1.10239250474987        5.30384553360160       -0.00629234354697
H            1.46094270724811        4.03246399134047        0.86339683252502
O            0.27595604250417        6.83928157262652       -4.17908627239335
H            0.02788283094641        6.28008316788736       -4.94033175511659
H           -0.51411983466069        6.86230889305407       -3.61978396144149
O           -6.99409845048289       -1.52570143635113        3.32028542620600
H           -7.54434427803404       -0.75813505012030        3.55074494817824
H           -7.52742980907439       -2.30794016801194        3.53890797991611
O            8.53113322014495        3.22219457922031        3.98370935277902
H            8.36781323345956        2.76625521277638        4.81518029590401
H            7.83901108431977        2.88819731264247        3.37513144933109
O           -4.24484003085053       -6.44786571977115       -1.66855990950947
H           -4.64592210998709       -7.17175302383197       -1.18078261584476
H           -3.30933392987348       -6.68915116728607       -1.84158008595552
O            4.24087875224337        4.03222430434047        2.50982921457402
H            4.19890569870877        4.43714047395249        1.63562633635501
H            4.18555272403531        4.74246435990527        3.17649507750685
O            4.97937407340487        0.44114874742845       -2.83200314739531
H            4.39795801438551        0.17158456758872       -2.09228918341444
H            4.46294401250397        1.06568672007634       -3.37850038774398
O            2.60676885275053       -6.90541098700789        4.50595159138500
H            2.34372645456858       -6.51540754773489        3.63775337551392
H            1.88993668264022       -7.49347199982443        4.74581456228089
O           -2.41796712094682       -4.03362316337887        4.40727656988179
H           -1.45513147295718       -3.94172958634305        4.54670480145049
H           -2.86498915087079       -3.52475732663400        5.10833503877957
O            4.67633089259381       -2.74069296789575       -1.67905218172944
H            5.38641107561980       -2.09282034083101       -1.84777623337357
H            5.08314707402921       -3.59341044858785       -1.87381179246999
O            2.38949315589503        5.17636814509826       -3.79163588385058
H            1.88092806733788        4.48502646425935       -3.30451925939133
H            1.73045862292676        5.86896935729049       -3.97981708288286
O            6.01729820982652        3.36808956690311       -0.56408573103488
H            6.83895426789209        3.88119985184385       -0.55556288611351
H            5.32230965405682        3.97029578867018       -0.26168746439529
O            1.25149885490067        0.82919128744262       -7.81278269908264
H            2.10330363388984        0.39330362327433       -7.70190612504602
H            1.23726296987445        1.54005673527504       -7.13350565888820
O           -2.22236180578303       -2.59133801676558       -1.00079235934155
H           -3.05411783713465       -2.85429005436804       -1.42667906519468
H           -2.18795252967590       -1.63252256628216       -1.12239934204646
O           -0.55771008169715       -0.78333378104981       -6.71667195081184
H            0.12842303472180       -0.27792772022449       -7.21129901879234
H           -0.06469980005351       -1.54900263500335       -6.34694179237428
O            4.11690351617579        6.01900413710482        4.34392046158907
H            3.82534457505475        5.54501745340110        5.14037499180817
H            5.07508026231757        6.12518368504681        4.41894446163183
O           -2.75187534357597        3.99138372377520       -7.05003788174918
H           -2.54438509238390        3.08642594687026       -7.32558708574435
H           -1.90594309794250        4.38526921570612       -6.77259516288276
O            3.15633924752985       -0.15725656881435       -0.99624466711422
H            2.84043934692451       -1.02496241488999       -0.66991742948012
H            3.28730324503091        0.42534874054975       -0.22548261363852
O           -3.26750672418837        1.71260221638281        6.70550245221742
H           -3.84846971066580        0.93962040182878        6.66957463412760
H           -2.34851347499206        1.37231687735259        6.79472670249693
O            5.44177852780306        3.05805716353705        4.95284145168297
H            4.83120246411633        3.37239489428939        5.63472744717443
H            6.13322318309217        2.52916448995636        5.38381483125068
O            1.42759247016557        0.94622951017964       -2.72422196973580
H            1.62715310296492        0.55066480205054       -3.61439195952809
H            2.18082630619671        0.69457101236304       -2.15545583548255
O           -2.19700390450192       -3.28832911051041       -6.96356791208675
H           -1.74261525615253       -2.44393372708185       -7.05595227324734
H           -3.11599743340966       -3.07672066510715       -6.74581512693914
O           -0.77830450259942        0.95532785571264       -4.71729015933073
H           -0.45695326678202        0.57355043081919       -3.89901265380742
H           -0.68625597634050        0.24742506002798       -5.40160199097806
O           -0.38123749680957       -7.68009491042419       -4.34468712817000
H            0.55098449746690       -7.71356884577857       -4.09029237343731
H           -0.47045598983175       -6.96686261611416       -4.99534744113100
O           10.28929277647126       -4.10191493653926        1.49255415170142
H           10.10560673820985       -4.52746053633227        2.33280394074218
H            9.51715074607666       -3.52840004775407        1.28582286252778
O           -0.77504044528962       -7.89698627848116        0.01382114490043
H           -1.13286744018808       -7.56330705860293       -0.83587679503493
H            0.17541923440258       -8.00740706146620       -0.15141835519873
O           -6.79697688835803        1.69480022774616        2.04397234531532
H           -6.45249230821124        2.27106991658450        1.33914271628349
H           -7.68827827015052        1.45079139051195        1.72572483888552
O           10.52617665049009        3.26247647557136        2.09701419853917
H            9.76775047319547        3.19188759646720        1.46239690350813
H           10.10045602618172        3.50885362958417        2.93042151943498
O            7.55023989611503       -0.43930543314547       -5.60537720013021
H            6.67459307153553       -0.83507997583623       -5.40443151930764
H            7.39563142842213        0.51767103672733       -5.62693838208377
O           11.91856495316308        2.40163660871715       -0.16527603664118
H           11.70857270160525        2.77556022818458        0.69907197570720
H           11.32965089906973        2.84308337300842       -0.79275997698291
O           -3.12954625435174       -0.10347990821954       -1.70122108768551
H           -3.97774101308835       -0.03865995800052       -1.22414585753746
H           -3.32918291318752       -0.56047019972570       -2.53603355039188
O            4.23623997721300        4.50922280039691       -5.54793711452264
H            4.95587897582886        5.09381179213225       -5.30751118775317
H            3.46522073574832        4.78854015252449       -5.00187462740620
O            0.40218630614575       -1.14435760152631        3.68754147086753
H            0.54657059763464       -1.59801027084264        2.84247430280644
H           -0.54571060760028       -1.22508689661336        3.88901933913908
O           -8.06994429493942       -1.55949052084781        0.89399855495412
H           -7.48152323969513       -1.52108496468134        1.67693299562070
H           -8.97019592467945       -1.65163231522571        1.24638486001747
O           -6.76086516071659        0.44625344000202       -5.70961365098777
H           -6.02938359061883        0.42647921182588       -6.35150084684447
H           -6.40686081502928        0.06051994142705       -4.87809182912451
O            4.29021651368870       -7.31403949904850        0.87071087001678
H            4.78093252746826       -7.36580625540183        1.69535172018019
H            4.94518628392096       -7.07908623908501        0.18253387325994
O            6.65159284188791       -4.34052003952332        0.41084181275869
H            5.79517923078026       -4.17892982350033        0.86506947871659
H            7.14120835673612       -4.92265080024582        1.03997503902637
O           -6.91587090330061        2.32860156946688        4.69413471628622
H           -6.82262473182926        2.12071207872215        3.73933117782269
H           -7.77756920337712        2.75215996495179        4.75687122175090
O            1.53958271209892        3.34519759721438        2.45411689066150
H            2.48671534609518        3.35235329255775        2.67169435699666
H            1.16278044254307        4.18872896475881        2.76113457988033
O           -6.90652249199420        6.24673354207056        3.69809334179311
H           -6.33689406916764        6.82493514932982        3.17437080993404
H           -6.30217682872297        5.72118410882880        4.24913283491607
O           -0.95337013510794        5.29227451502939       -0.39280315272790
H           -1.29360937865678        5.70537568263127       -1.19446791729990
H           -0.99873584233365        4.32802522523725       -0.51463330240529
O            0.63294309189996        5.84103639075285        2.93995470581395
H            1.44099154457760        6.32795467462083        2.70021503777531
H           -0.09135596993553        6.28761274121524        2.47068758983446
O            5.15005665392917       -6.31501481686447        3.54017235337702
H            5.52332264702585       -5.65096413241221        4.16280727433130
H            4.37886982674480       -6.68947589581328        3.98864789447390
O            6.61653400501318       -2.71864793747492        2.84741537885155
H            7.53033912109104       -2.40704532576549        2.84740839833505
H            6.14188023917731       -2.32532131340511        2.09858798285766
O           -3.40545597410872       -1.11395266390648       -4.16918587185814
H           -2.48787386259506       -1.44733598524211       -4.17797413497834
H           -3.88776412161565       -1.61003574364072       -4.86443424780251
O           -9.06340068363671        1.52216959587441        0.73128242199958
H           -8.72044053598807        1.80772030466722       -0.13667879063888
H           -9.64421441581990        2.26420102183587        1.00362065307709
O            3.74101870704152       -0.04007268918725       -6.66582386335006
H            4.12001458116798        0.83560867517455       -6.83693525866118
H            4.34590967865523       -0.46459474261903       -6.01536209440504
O           -4.29898243565879        3.91217805974390       -4.90425309698556
H           -3.80689167680195        4.12647944127158       -5.72823220849668
H           -3.97106657635640        3.01833012641851       -4.68655945531618
O            6.14289103745015       -4.26317459778675        4.93591909640088
H            5.57466315657406       -3.80017402065925        5.55800105270909
H            6.25619430069599       -3.66223657234891        4.16315196896201
O            4.00052507484007       -2.69734278498670        6.20331451337974
H            3.23056317212618       -2.09454296287548        6.25031316177803
H            3.56669142032626       -3.57511934636981        6.32245823318705
O           -0.85355349666773       -5.20953595104028       -5.58018446898452
H           -1.42083410020492       -5.02357004919529       -4.79662089790668
H           -1.34384080206098       -4.79293592130847       -6.30791560871421
O            3.40934939628995        2.14774230234558       -4.25426492260941
H            3.93983505790604        2.85396942601479       -4.64724689129541
H            3.17394971232048        2.47568057336707       -3.36255057075644
O            6.16986861000131       -6.53798241985554       -0.95642061096558
H            7.01959728944761       -6.95963410233754       -1.08365592723351
H            6.37540374262679       -5.64650619590884       -0.57361048819216
O            3.99654737356315       -2.33463380342922        3.55093954739600
H            4.50851841414996       -1.52829268907006        3.36337740972921
H            4.05045044007354       -2.49570730235429        4.51127247456028
O           -0.27511460058607       -1.88140212659330        1.09361096476739
H           -1.03552309830481       -2.47398419126831        1.20509142785870
H           -0.17934562478582       -1.72312825551093        0.14871130613548
O            5.56393641054854       -0.03108337734833        3.30788085318684
H            5.61262004656242       -0.05115016118389        4.27904877477235
H            6.42182104768574       -0.32576946812424        2.95649455692895
O           11.61977405256319       -0.11584741712458       -0.98307778823741
H           11.56547648466401        0.13104490585662       -1.91944333619056
H           11.89412405473999        0.72240108998787       -0.55005325084951
O           -7.07454395267958       -3.03134902808267        5.88620020036176
H           -7.90235728925170       -3.25765491213431        5.44634241313186
H           -7.12604580079963       -2.08397316068237        6.06221970314322
O           -3.60537803644880       -2.62927553395877        6.39567680737032
H           -4.28718921990872       -3.11902146001748        6.85590844572244
H           -4.03422195537582       -1.79864348420964        6.07920230353957
O           -9.27722906700468        1.37078469867368       -5.11995902091184
H           -9.05585199761788        2.30250271604538       -5.05555744948840
H           -8.47768807353907        0.93571053153800       -5.45554835727851
O           -4.35443511707443       -4.38015957270740        0.15936096537556
H           -4.30248666890624       -5.10162609604108       -0.48998987010421
H           -3.52245438968735       -4.40156180327121        0.66951506917931
O           -2.80303710262478        4.38781180111881        6.00561219125028
H           -2.92707738042256        3.56935564432187        6.50267531293318
H           -1.89261051056956        4.34664926257748        5.64778893503832
O          -10.66803385549126        3.64872130375709        0.89963828056506
H          -10.14260577027503        4.36879203982462        0.52015597246337
H          -11.20581654306095        3.31110207128292        0.17058858432910
O           -4.67249657370224       -2.55479884663756       -2.22678383671946
H           -4.72868798450455       -3.29965479959835       -2.85898111353886
H           -5.35133665128579       -2.75671856398567       -1.55645173650341
O           -6.11307477426271        3.16463169331515       -0.20067056229889
H           -6.58590760412926        3.99747478542890       -0.30448085613895
H           -6.10367648317942        2.71323022628236       -1.06263431102386
O           -4.81280000291295       -0.38755233520391        5.62581092185828
H           -5.73492334119547       -0.36258224656840        5.91842762630327
H           -4.86222548852678       -0.24884033896779        4.65762236294967
O            8.83217589763389       -4.68005854405652        4.16842824558746
H            8.03682304227815       -4.68219570692790        4.71739427788528
H            9.01349437531775       -3.73831176094281        3.99216618309756
O            6.15631384741180        0.68253350650591        0.03066018172312
H            6.84175587000269        0.51894650250055        0.71635840572090
H            6.31002698695195        1.57254376132874       -0.32543993595356
O           -6.74745858977941       -6.92394785157392        3.07569453363365
H           -6.30317900147843       -6.26284191548472        3.62594674080013
H           -7.56173750358687       -6.51515723357702        2.75429217863305
O            2.95242464816248        6.99297778279754        2.03593403687079
H            3.44069140569483        6.48548585828838        1.36211315550778
H            3.44130296783279        6.92101521755160        2.86626047620984
O           -2.14367335233879       -4.41047864164929       -3.41563808531691
H           -3.07679167998453       -4.40658791608292       -3.65850756510899
H           -1.80537275863181       -3.48594465558734       -3.48372678353735
O           -7.95238027871262       -0.22182860559603       -1.45813934066774
H           -8.81417399272468       -0.18840184683621       -1.92396810887292
H           -8.10462612907491       -0.70623804391997       -0.62774345902189
O           -9.10619108690769        0.14406705995527        3.68207602043273
H           -9.78396776597613       -0.30341147039057        3.16857846738946
H           -9.23034880743693        1.10561595724203        3.55238050660672
O           -8.97618201981727       -3.37342641999984        3.77139916501208
H           -9.65294061431194       -2.78903971375271        3.40705220661449
H           -8.96330781928818       -4.15743737212377        3.21290760430503
O           -5.47358592317906       -4.79617254509227        4.42673338660817
H           -6.06060593365384       -4.36607084830001        5.06572592511974
H           -4.83166176032304       -4.09235046532150        4.19253785854952
O           -4.88392205795304       -4.77050690038019       -3.66639251185125
H           -5.82447617749324       -4.89918309191113       -3.87134559358787
H           -4.69132067453922       -5.44173854191212       -2.98479988097858
O            8.94751718316613       -0.88357570842017       -3.45404559508957
H            9.59043109568052       -0.15574361633851       -3.42050622166998
H            8.48474709470527       -0.79489876641181       -4.32311090997606
O            1.01612316614577       -4.71053819275091       -3.35328975711055
H            0.38469286389682       -4.76250881231047       -4.07876489826696
H            0.52660956652084       -4.53213333275905       -2.51777074014023
O           -4.47031876385530       -2.50913428480050        3.54234457270829
H           -4.33144704212043       -2.52048963530513        2.57729230904771
H           -5.35295938281407       -2.10986653691233        3.64252298494720
O           11.34674210953617       -1.55345615149702        1.54848758084826
H           11.54654367373893       -1.22536857598178        0.66487269891631
H           11.22186981045028       -2.51663605055061        1.45988912026652
O           -3.03372566537658       -6.65914305100402        1.29594624035245
H           -2.41427118193221       -7.32546333427509        0.98277458579259
H           -3.02320840064541       -6.68684453940923        2.27159323309630
O           -4.63849853294145       -2.19316713493689       -6.22972699583972
H           -4.64425644728812       -1.36300585315081       -6.73620015045514
H           -5.56933834388901       -2.41493435023664       -6.02747243573061
O            1.01643702932994        7.19680535515452        0.07675599057637
H            1.69201158857613        7.44203099050860        0.72028535330500
H            0.16676223315230        7.38492655392906        0.49575937163017
O            4.88790372993235       -1.65315809247760        0.86655253864235
H            4.72570710583091       -2.17164844308523        0.06050166943010
H            5.29051842716905       -0.82621969690564        0.57285292838277
O           -1.05289402942252        2.70764809696707        2.86105905586379
H           -1.44388951980816        3.46345464964396        2.37354559456907
H           -1.79977382179734        2.24162625414884        3.28809296676147
O            4.82235278061514        2.47312724909266       -7.21075202333492
H            4.74255262735853        2.68599280301476       -8.14009427673279
H            4.47007629939831        3.23532268763330       -6.71109728172337
O           -4.89083145414544        5.50471565838699       -2.77627648299721
H           -4.45300314221459        5.08789002216129       -2.00135665671688
H           -4.63677074463569        4.97034561222452       -3.55347969891765
O           -8.59595027976595        2.47689632468092       -1.75201689185285
H           -8.15401959340859        3.27677250052098       -2.09452095633233
H           -8.09404595562586        1.71503767581158       -2.06743392180670
O            8.97274713058259        0.41326015399793       -0.53294547600558
H            8.57310466147167        0.70650474931412       -1.36951105914462
H            9.89919533531190        0.18112464496836       -0.70003864447043
O           -4.83211011295862        7.20070166933717        2.09777897103052
H           -4.29125866567536        7.57588019892266        1.39331074148304
H           -4.19835314834978        6.95385468849786        2.80279550156950
O            8.43108720556331       -2.40489871140908        0.58116722643013
H            8.91975815308430       -2.30278945644825       -0.25530846175023
H            7.69675827103812       -3.03699683769927        0.41153893081554
O            2.19532600622057       -5.93180983805636        2.09074163975463
H            1.33283476848142       -5.95994009129061        1.63026518886833
H            2.83555903829928       -6.45539606405603        1.58361794252558
O            9.67317346617653        0.10778351910114        5.17681837045505
H            9.90888639880077        0.46370479546659        4.28552107417004
H           10.46085434328333        0.16032360382128        5.71716658460297
O           -1.66040547475193       -6.76228329971434       -2.21960837799640
H           -1.66613144769685       -5.81822748023141       -2.45695181386572
H           -1.26316342723708       -7.22104065786314       -2.99711532140109
O            6.91657022267745       -1.34381981147648       -1.71889275837263
H            7.61575865248165       -1.07738630367291       -2.33975502581441
H            6.79122834389185       -0.61037589407416       -1.09340193393208
O           -7.50179708231285       -0.05302111167118        5.92000793552107
H           -8.31259873554751       -0.20024425683688        5.41563743782862
H           -7.23913156954566        0.85028849453135        5.65349614439067
O            9.29917724484810       -5.09042032016517       -1.02242009440075
H            9.79462730648475       -4.32388413174921       -1.34289665925385
H            9.55916323116475       -5.17599436462764       -0.09666991841180
O            7.33683566555112       -3.86727675397435       -5.00986533824011
H            7.37556803613610       -3.97415360586270       -4.03451754320924
H            7.73346114359846       -3.02037561188333       -5.22048795210462
O            3.56291023759284        4.39772548214259        6.53899386267842
H            3.75414894407731        4.73485544886104        7.41424392702345
H            2.70500641087233        3.93930336863874        6.60609069962653
O            9.23527669150252       -2.07499649453007        3.51641005266189
H            9.92362322392855       -1.86488458002342        2.87164648762419
H            9.29955828231850       -1.41842782387293        4.22508335310139
O           -3.05336421846147       -6.57226488235294        4.00108069046945
H           -3.93733838669012       -6.76778175769603        4.31595976085283
H           -2.90635889919602       -5.61592489238568        4.18808528675095
O          -10.59157704331825       -1.78543163669909        2.00831612397394
H          -10.79801897647996       -2.64413456621621        1.59328105643740
H          -10.97183705481345       -1.13067910123830        1.39566271429570
O           -5.43331341101260        0.26084452170255       -0.33459156156323
H           -6.31678820183654        0.20991124889866       -0.71528558592866
H           -5.27665719395947       -0.57407921838306        0.14954871108275
O           -8.20377926846557       -2.75875266922075       -2.99577573106104
H           -9.08556440602884       -2.63611066107794       -2.59610848553353
H           -7.60221270245731       -2.80874756858593       -2.21406717050052
O            4.10602014673200        6.48429955101680       -2.24224140589021
H            3.52530109642775        7.27734105929053       -2.20570675876302
H            3.56669335964198        5.86220948954565       -2.78325239284797
O            0.70587538425222       -2.92429686076095       -5.73224119880553
H            0.30074067477473       -3.77898669968294       -5.93566576021319
H            1.60682873565207       -2.93192285873796       -6.13654260042355
O           -7.25394565853372       -2.37205707359920       -5.57042656788054
H           -7.54998932124931       -2.47961902392975       -4.65181664221343
H           -7.44890179703317       -1.45823630021220       -5.80780011382189
O           -9.39449114130213        2.83767337525191        3.40381876565432
H           -8.71385383493620        3.33509615691324        2.89026950050821
H          -10.23571665754188        3.14446648123593        3.05936617824099
O           -5.55985241134784       -7.28075742795211        0.63184678170686
H           -4.64825178175971       -6.99877472423871        0.86244428003122
H           -6.01678117660860       -7.34116810718458        1.48894432528242
O           10.25652167368390        0.70412614713951        2.68410175234457
H           10.83337985269695        0.06132752455552        2.24645747040771
H           10.51772526772515        1.61691512999012        2.42251145704748
O           -2.14256183911497        6.36003053448761       -2.74535672689740
H           -3.06702893765528        6.49134339815568       -2.98650011275603
H           -1.93451675274683        5.44740807394571       -3.07746656304012
O          -11.32577892871854        2.26849020468306       -1.45733613412773
H          -10.36754790186261        2.29936303829851       -1.64823536407677
H          -11.75009576643952        2.09935012357291       -2.29829773161076
O           -6.04273958719548       -0.52965278959116       -3.31474516915489
H           -6.82871770659518       -0.65871714976093       -2.75417304639969
H           -5.41238983167917       -1.23858202457085       -3.05310721890116
O           -2.84893984650340        6.52677201807003        3.82720909558957
H           -2.96746657111251        6.12067051229069        4.68932455262068
H           -2.53982237460177        5.81534814503785        3.22516770473661
O            1.86010850101289       -7.33479898574227       -0.53947626073637
H            1.91506703903909       -7.36531202816632       -1.52690877588363
H            2.65068788643900       -7.76949375976988       -0.20259114504412
O            2.05030007640967        8.14907342762493       -2.27665962511209
H            1.58956314194693        7.86306780408348       -1.46767920408246
H            1.47685566234832        7.90521188391164       -3.01257642650522
O           -0.26031944779847       -5.58111667558347        1.11990442979480
H           -0.53801770904240       -6.44777914741078        0.74091325692135
H           -0.10623283714831       -5.00851126106796        0.32808815175247
O          -10.94832545179890       -0.13327008762846       -0.06551588056231
H          -11.41454966877070        0.50972684085714       -0.61779047847831
H          -10.16026133576753        0.37475844658022        0.24383851732329
O            2.42831538955159       -4.78786070575529        6.20676904921808
H            2.60647503917462       -5.59409763549477        5.69103430157655
H            1.62501931816969       -4.40612219230953        5.81597051828327
O            7.63355419895889       -6.02515753362020        2.17017269097485
H            8.16432383211176       -5.58796797807827        2.86711196787424
H            6.84613286369926       -6.34810601008878        2.62265793635980
O            2.39902831321183       -2.39881207842264       -3.08979831189244
H            3.23147563646134       -2.52430082822858       -2.59701725770345
H            2.07142350021162       -3.28295369316187       -3.32709751069226
O            5.16137749695411       -1.26105997048222       -4.80893076699656
H            4.92428890368762       -2.19937589133903       -4.65439319094172
H            5.08695271634908       -0.76909871947650       -3.96250930040581
O           -8.77478664905060        5.37296393732231       -0.32379680460024
H           -7.96636073017630        5.89695508355144       -0.18270357298973
H           -8.74007194086312        5.14180569956810       -1.25911856091352
O           -7.45842075792524        4.69399491050844       -2.77850440200732
H           -6.55313928514147        5.07096954965074       -2.68559412371312
H           -7.50138363270479        4.41364336327262       -3.69969106526141
O            6.45826204485922        2.42908701014148        2.38138033093781
H            6.11901208194031        1.57312040281042        2.70451877465119
H            5.70655654536301        3.04667749542265        2.43063058689839
O            7.44125225470280        1.46990609183886        5.99869475400637
H            6.76318684671929        0.80185257947019        6.19132950817815
H            8.23097925038763        0.95310398358728        5.76198781688028
O           -7.28167410645175       -5.78950326099146       -0.77105254000253
H           -7.28595625350442       -5.93894884776291       -1.72378653178674
H           -6.57662969868067       -6.34532790912221       -0.36766801380900
O           -0.33805471482649        4.20983011239491        4.90992442544976
H           -0.00314510715542        4.98470698601804        4.43560440195635
H           -0.52674805226465        3.54412477093240        4.20181071656097
O           -6.80878092442550        3.10047698273455       -4.98775123530143
H           -6.77687811609612        2.23904050924632       -5.44108452471790
H           -5.93129781186479        3.51947554437605       -5.14384583679886
O           -7.64315187053948        4.33738680208679        2.05860108205725
H           -7.48882654524316        5.09383424476560        2.67728786170062
H           -8.12538627465140        4.68734569925706        1.30001033549220
O          -10.43163425429845       -2.39898902884749       -1.52414919157109
H          -10.53132985158526       -3.09114493254816       -0.85732008048355
H          -10.61529274531425       -1.55991078393275       -1.05921804330360
O            3.12385780302564       -4.90567021297136       -0.52288638450328
H            3.63826649178049       -4.85909083408226        0.30382624929690
H            2.53896725611356       -5.68316132939280       -0.46012040514168
O            6.59976825869200        5.90691604351276       -3.07121500814903
H            5.76002004160683        6.33621368058700       -2.81578023745306
H            7.11712681202943        5.84160882796741       -2.24743110972639
O            4.38073000810204       -5.61902937878979       -2.77296609155106
H            5.18288458305914       -5.99932212079400       -2.38143776539975
H            3.87406808012597       -5.27019050726776       -2.00997565707682
O          -10.15503257900394        0.08701734390667       -2.94022549104034
H           -9.88946082523552        0.54171437263188       -3.76425301158547
H          -10.51548864950499       -0.76732090976728       -3.18202127740068
O            6.86493053741458        2.26271638458680       -5.33150430883694
H            6.30854753245961        2.31375564733440       -6.12121985385664
H            6.30574005150139        2.62020801382346       -4.60161589519338
O            1.17961442007490        3.08153355920098        6.79332590928842
H            0.56642730486153        2.47453709204249        7.21977330977895
H            0.65696883874974        3.48498769754598        6.06221563503825
O            7.82281032610216       -0.17129047742689        1.88938320836066
H            8.65487555599722        0.24079424758015        2.17635946564425
H            8.08854831503417       -0.95323229398396        1.35854673972161
O            4.42367145751358       -4.36127990519186        1.79684089157169
H            4.63711401410091       -5.10094789455227        2.39594910425355
H            4.35617877899894       -3.56503330014729        2.35694453460574
O           -5.90798513030736        2.04887916752577       -2.68836525516412
H           -5.85628009051575        1.09083742507334       -2.89021280250666
H           -6.26895691553595        2.48576432525713       -3.48668059008059
O            8.48155375007969        2.74333564884363        0.54963828694369
H            8.68204819267397        1.81636886175946        0.27298124777985
H            7.71982767823596        2.68362840069190        1.15253262547280
O           -3.19796472696130        7.11459365041797       -0.14753775942780
H           -3.36605250510008        6.15374530179073       -0.21861085003415
H           -2.77951225878753        7.35792909929663       -0.97835079308115
O           -5.13700303253134        4.39960268026983        4.71526190476575
H           -4.32079627031396        4.38913853178751        5.25281488607009
H           -5.67132550316386        3.61917551092975        4.94286490053989
O           -6.19359752496055        6.02768485080100        0.00926505344781
H           -5.76519094036680        6.35291408688777        0.82159606652822
H           -5.73281292632841        6.43459016051838       -0.72737382868314
O            1.15847131958546        2.53247231544137       -5.73665306290162
H            0.44887571096442        2.02209552633555       -5.29462868543515
H            1.96895801934903        2.36901673150379       -5.21643056227079
O            0.78026302688091        1.41543138413763        4.46489728636250
H            1.03898468686835        2.04927423297065        3.78075320427004
H            0.75870856719857        0.53215653413328        4.06461725974969
O           -1.22758880031504        7.52382119939203        1.72147257817485
H           -1.92277350306380        7.36258280407937        1.05441439935155
H           -1.68841354642344        7.63612458892566        2.56025330192574
O           -4.46608995153035        0.42466101279201       -7.11723502956108
H           -3.98194636835092        0.73664873532029       -7.88505229166916
H           -4.01915654210824        0.85603459610389       -6.34667439829485
O           10.71565583690838        1.17411544204235       -3.24585343749780
H           10.36923072530630        1.93070834311674       -2.70908434434251
H           11.13506511122700        1.55985648038551       -4.01393889246385
O            3.09162617154114       -2.92971777004717       -6.79636166295741
H            3.42964259337369       -2.04696314909128       -6.97475754015049
H            3.68441959570069       -3.34108540875871       -6.13968179268723
O           -3.41066157140606        1.38515161686169       -4.88070801473430
H           -3.53070166952031        0.48435653647522       -4.49714060591521
H           -2.44162539456618        1.48298746814677       -4.90969237513104
O           -3.31857985445190        2.46765945784264       -2.23702476523819
H           -4.26123736095788        2.41486659072053       -2.48996499221239
H           -3.06942883990475        1.54327584393807       -2.02632644212823
O            6.68995377415534        5.22994699248019        3.95241610900598
H            6.19868995015542        4.41985008677269        4.21539476032006
H            7.61579197449185        4.95918472564857        4.01256025652027
O           10.06217896049531       -2.45988033575995       -1.60086634542175
H            9.64382868895960       -2.03862989706686       -2.37407370306094
H           10.82921856434628       -1.92082867389613       -1.38831133742726
O           -6.36969483169618       -4.00960474894179        1.89911228782392
H           -5.68454897545846       -4.21327506003915        1.22835642762830
H           -6.03468978097935       -4.33405873166141        2.74880601659039
O           -7.56644941195642       -5.28293798378776       -3.59152744447305
H           -7.88434295598834       -4.36613309966741       -3.41064445920595
H           -8.00481114391288       -5.57041339949014       -4.39126917420863
O           -6.80693576639868       -3.15718931353055       -0.81247119033221
H           -6.94501023435773       -4.11935748839392       -0.69990564805502
H           -7.24296629408417       -2.69670601589762       -0.07180458320655
O            2.12730188262952       -7.09742211189514       -3.15552404017562
H            1.70221333630714       -6.21074482311183       -3.23707494647344
H            3.07117746896742       -6.89092147925312       -3.24539422185340
O           -2.23931683210586       -1.04457805809225        4.05252110385248
H           -3.04021910129123       -1.60041769138508        4.03274007443212
H           -2.49811430950673       -0.13791554134477        4.30153264926390
O            4.68439358898872       -3.85120242387669       -4.79204707968717
H            4.50022105047162       -4.50656698103726       -4.09264643995213
H            5.62033168490972       -4.00036279354486       -5.04311837699230
O            5.33728152971079       -0.23554062175258        6.01512573376392
H            4.54699207308807        0.31599589598321        6.16241123501270
H            5.08536615302793       -1.13521467358308        6.25816833882637
O           -0.84440353704649       -2.02006583522105        6.51488274425551
H           -0.50526982156677       -2.68846688603606        5.90333114067744
H           -1.78762297495593       -2.20126609709054        6.62254806409606
 
 Bond Distances (Angstroems)
 ---------------------------
H1-C2=1.0861         C2-H1=1.0861         C2-H3=1.0879         C2-C4=1.5218         C2-O7=1.4140         H3-C2=1.0879         
C4-C2=1.5218         C4-H5=1.0845         C4-H6=1.0802         C4-N9=1.4655         H5-C4=1.0845         H6-C4=1.0802         
O7-C2=1.4140         O7-H8=0.9773         H8-O7=0.9773         N9-C4=1.4655         N9-H10=1.0463        N9-H11=1.0358        
N9-H12=1.0425        H10-N9=1.0463        H11-N9=1.0358        H12-N9=1.0425        O13-H14=0.9628       O13-H15=0.9765       
H14-O13=0.9628       H15-O13=0.9765       O16-H17=0.9773       O16-H18=0.9782       H17-O16=0.9773       H18-O16=0.9782       
O19-H20=0.9787       O19-H21=0.9695       H20-O19=0.9787       H21-O19=0.9695       O22-H23=0.9797       O22-H24=0.9642       
H23-O22=0.9797       H24-O22=0.9642       O25-H26=0.9797       O25-H27=0.9739       H26-O25=0.9797       H27-O25=0.9739       
O28-H29=0.9730       O28-H30=0.9884       H29-O28=0.9730       H30-O28=0.9884       O31-H32=0.9717       O31-H33=0.9656       
H32-O31=0.9717       H33-O31=0.9656       O34-H35=0.9844       O34-H36=0.9572       H35-O34=0.9844       H36-O34=0.9572       
O37-H38=0.9684       O37-H39=0.9693       H38-O37=0.9684       H39-O37=0.9693       O40-H41=0.9836       O40-H42=0.9739       
H41-O40=0.9836       H42-O40=0.9739       O43-H44=0.9720       O43-H45=0.9811       H44-O43=0.9720       H45-O43=0.9811       
O46-H47=0.9637       O46-H48=0.9701       H47-O46=0.9637       H48-O46=0.9701       O49-H50=0.9721       O49-H51=0.9765       
H50-O49=0.9721       H51-O49=0.9765       O52-H53=0.9768       O52-H54=0.9745       H53-O52=0.9768       H54-O52=0.9745       
O55-H56=0.9699       O55-H57=0.9812       H56-O55=0.9699       H57-O55=0.9812       O58-H59=0.9736       O58-H60=0.9712       
H59-O58=0.9736       H60-O58=0.9712       O61-H62=0.9691       O61-H63=0.9647       H62-O61=0.9691       H63-O61=0.9647       
O64-H65=0.9725       O64-H66=0.9771       H65-O64=0.9725       H66-O64=0.9771       O67-H68=0.9621       O67-H69=0.9841       
H68-O67=0.9621       H69-O67=0.9841       O70-H71=0.9686       O70-H72=0.9775       H71-O70=0.9686       H72-O70=0.9775       
O73-H74=0.9681       O73-H75=0.9743       H74-O73=0.9681       H75-O73=0.9743       O76-H77=0.9802       O76-H78=0.9806       
H77-O76=0.9802       H78-O76=0.9806       O79-H80=0.9812       O79-H81=0.9707       H80-O79=0.9812       H81-O79=0.9707       
O82-H83=0.9830       O82-H84=0.9715       H83-O82=0.9830       H84-O82=0.9715       O85-H86=0.9737       O85-H87=0.9739       
H86-O85=0.9737       H87-O85=0.9739       O88-H89=0.9591       O88-H90=0.9807       H89-O88=0.9591       H90-O88=0.9807       
O91-H92=0.9784       O91-H93=0.9702       H92-O91=0.9784       H93-O91=0.9702       O94-H95=0.9664       O94-H96=0.9679       
H95-O94=0.9664       H96-O94=0.9679       O97-H98=0.9730       O97-H99=0.9773       H98-O97=0.9730       H99-O97=0.9773       
O100-H101=0.9705     O100-H102=0.9728     H101-O100=0.9705     H102-O100=0.9728     O103-H104=0.9594     O103-H105=0.9675     
H104-O103=0.9594     H105-O103=0.9675     O106-H107=0.9912     O106-H108=0.9984     H107-O106=0.9912     H108-O106=0.9984     
O109-H110=0.9770     O109-H111=0.9736     H110-O109=0.9770     H111-O109=0.9736     O112-H113=0.9679     O112-H114=0.9717     
H113-O112=0.9679     H114-O112=0.9717     O115-H116=0.9782     O115-H117=0.9841     H116-O115=0.9782     H117-O115=0.9841     
O118-H119=0.9930     O118-H120=0.9564     H119-O118=0.9930     H120-O118=0.9564     O121-H122=0.9710     O121-H123=1.0050     
H122-O121=0.9710     H123-O121=1.0050     O124-H125=0.9898     O124-H126=0.9838     H125-O124=0.9898     H126-O124=0.9838     
O127-H128=0.9767     O127-H129=0.9802     H128-O127=0.9767     H129-O127=0.9802     O130-H131=0.9766     O130-H132=0.9683     
H131-O130=0.9766     H132-O130=0.9683     O133-H134=0.9721     O133-H135=0.9717     H134-O133=0.9721     H135-O133=0.9717     
O136-H137=0.9622     O136-H138=0.9803     H137-O136=0.9622     H138-O136=0.9803     O139-H140=0.9606     O139-H141=0.9815     
H140-O139=0.9606     H141-O139=0.9815     O142-H143=0.9643     O142-H144=0.9757     H143-O142=0.9643     H144-O142=0.9757     
O145-H146=0.9787     O145-H147=0.9774     H146-O145=0.9787     H147-O145=0.9774     O148-H149=0.9875     O148-H150=0.9577     
H149-O148=0.9875     H150-O148=0.9577     O151-H152=0.9772     O151-H153=0.9748     H152-O151=0.9772     H153-O151=0.9748     
O154-H155=0.9759     O154-H156=0.9647     H155-O154=0.9759     H156-O154=0.9647     O157-H158=0.9869     O157-H159=0.9744     
H158-O157=0.9869     H159-O157=0.9744     O160-H161=0.9687     O160-H162=0.9680     H161-O160=0.9687     H162-O160=0.9680     
O163-H164=0.9633     O163-H165=0.9833     H164-O163=0.9633     H165-O163=0.9833     O166-H167=0.9707     O166-H168=0.9671     
H167-O166=0.9707     H168-O166=0.9671     O169-H170=0.9853     O169-H171=0.9829     H170-O169=0.9853     H171-O169=0.9829     
O172-H173=0.9716     O172-H174=0.9670     H173-O172=0.9716     H174-O172=0.9670     O175-H176=0.9685     O175-H177=0.9735     
H176-O175=0.9685     H177-O175=0.9735     O178-H179=0.9794     O178-H180=0.9750     H179-O178=0.9794     H180-O178=0.9750     
O181-H182=0.9676     O181-H183=0.9840     H182-O181=0.9676     H183-O181=0.9840     O184-H185=0.9678     O184-H186=0.9714     
H185-O184=0.9678     H186-O184=0.9714     O187-H188=0.9943     O187-H189=0.9768     H188-O187=0.9943     H189-O187=0.9768     
O190-H191=0.9633     O190-H192=0.9679     H191-O190=0.9633     H192-O190=0.9679     O193-H194=0.9584     O193-H195=0.9889     
H194-O193=0.9584     H195-O193=0.9889     O196-H197=0.9669     O196-H198=0.9695     H197-O196=0.9669     H198-O196=0.9695     
O199-H200=0.9596     O199-H201=0.9838     H200-O199=0.9596     H201-O199=0.9838     O202-H203=0.9805     O202-H204=0.9710     
H203-O202=0.9805     H204-O202=0.9710     O205-H206=0.9734     O205-H207=0.9774     H206-O205=0.9734     H207-O205=0.9774     
O208-H209=0.9914     O208-H210=0.9677     H209-O208=0.9914     H210-O208=0.9677     O211-H212=0.9817     O211-H213=0.9696     
H212-O211=0.9817     H213-O211=0.9696     O214-H215=0.9649     O214-H216=0.9672     H215-O214=0.9649     H216-O214=0.9672     
O217-H218=0.9753     O217-H219=0.9724     H218-O217=0.9753     H219-O217=0.9724     O220-H221=0.9578     O220-H222=0.9852     
H221-O220=0.9578     H222-O220=0.9852     O223-H224=0.9699     O223-H225=0.9724     H224-O223=0.9699     H225-O223=0.9724     
O226-H227=0.9802     O226-H228=0.9711     H227-O226=0.9802     H228-O226=0.9711     O229-H230=0.9734     O229-H231=0.9826     
H230-O229=0.9734     H231-O229=0.9826     O232-H233=0.9610     O232-H234=0.9787     H233-O232=0.9610     H234-O232=0.9787     
O235-H236=0.9828     O235-H237=0.9871     H236-O235=0.9828     H237-O235=0.9871     O238-H239=0.9816     O238-H240=0.9622     
H239-O238=0.9816     H240-O238=0.9622     O241-H242=0.9718     O241-H243=0.9735     H242-O241=0.9718     H243-O241=0.9735     
O244-H245=0.9660     O244-H246=0.9722     H245-O244=0.9660     H246-O244=0.9722     O247-H248=0.9639     O247-H249=0.9730     
H248-O247=0.9639     H249-O247=0.9730     O250-H251=0.9734     O250-H252=0.9717     H251-O250=0.9734     H252-O250=0.9717     
O253-H254=0.9839     O253-H255=0.9675     H254-O253=0.9839     H255-O253=0.9675     O256-H257=0.9655     O256-H258=0.9699     
H257-O256=0.9655     H258-O256=0.9699     O259-H260=0.9763     O259-H261=0.9809     H260-O259=0.9763     H261-O259=0.9809     
O262-H263=0.9760     O262-H264=0.9809     H263-O262=0.9760     H264-O262=0.9809     O265-H266=0.9694     O265-H267=0.9845     
H266-O265=0.9694     H267-O265=0.9845     O268-H269=0.9834     O268-H270=0.9767     H269-O268=0.9834     H270-O268=0.9767     
O271-H272=0.9614     O271-H273=0.9855     H272-O271=0.9614     H273-O271=0.9855     O274-H275=0.9790     O274-H276=0.9864     
H275-O274=0.9790     H276-O274=0.9864     O277-H278=0.9851     O277-H279=0.9714     H278-O277=0.9851     H279-O277=0.9714     
O280-H281=0.9668     O280-H282=0.9788     H281-O280=0.9668     H282-O280=0.9788     O283-H284=0.9571     O283-H285=0.9917     
H284-O283=0.9571     H285-O283=0.9917     O286-H287=0.9734     O286-H288=0.9752     H287-O286=0.9734     H288-O286=0.9752     
O289-H290=0.9705     O289-H291=0.9628     H290-O289=0.9705     H291-O289=0.9628     O292-H293=0.9726     O292-H294=0.9728     
H293-O292=0.9726     H294-O292=0.9728     O295-H296=0.9699     O295-H297=0.9826     H296-O295=0.9699     H297-O295=0.9826     
O298-H299=0.9643     O298-H300=0.9650     H299-O298=0.9643     H300-O298=0.9650     O301-H302=0.9574     O301-H303=0.9869     
H302-O301=0.9574     H303-O301=0.9869     O304-H305=0.9598     O304-H306=0.9701     H305-O304=0.9598     H306-O304=0.9701     
O307-H308=0.9720     O307-H309=0.9762     H308-O307=0.9720     H309-O307=0.9762     O310-H311=0.9656     O310-H312=0.9791     
H311-O310=0.9656     H312-O310=0.9791     O313-H314=0.9688     O313-H315=0.9668     H314-O313=0.9688     H315-O313=0.9668     
O316-H317=0.9786     O316-H318=0.9752     H317-O316=0.9786     H318-O316=0.9752     O319-H320=0.9633     O319-H321=0.9731     
H320-O319=0.9633     H321-O319=0.9731     O322-H323=0.9678     O322-H324=0.9793     H323-O322=0.9678     H324-O322=0.9793     
O325-H326=0.9664     O325-H327=0.9751     H326-O325=0.9664     H327-O325=0.9751     O328-H329=0.9832     O328-H330=0.9709     
H329-O328=0.9832     H330-O328=0.9709     O331-H332=0.9681     O331-H333=0.9662     H332-O331=0.9681     H333-O331=0.9662     
O334-H335=0.9747     O334-H336=0.9662     H335-O334=0.9747     H336-O334=0.9662     O337-H338=0.9642     O337-H339=0.9868     
H338-O337=0.9642     H339-O337=0.9868     O340-H341=0.9802     O340-H342=0.9733     H341-O340=0.9802     H342-O340=0.9733     
O343-H344=0.9609     O343-H345=0.9782     H344-O343=0.9609     H345-O343=0.9782     O346-H347=0.9655     O346-H348=0.9627     
H347-O346=0.9655     H348-O346=0.9627     O349-H350=0.9684     O349-H351=0.9810     H350-O349=0.9684     H351-O349=0.9810     
O352-H353=0.9712     O352-H354=0.9758     H353-O352=0.9712     H354-O352=0.9758     O355-H356=0.9717     O355-H357=0.9886     
H356-O355=0.9717     H357-O355=0.9886     O358-H359=0.9632     O358-H360=0.9847     H359-O358=0.9632     H360-O358=0.9847     
O361-H362=0.9751     O361-H363=0.9739     H362-O361=0.9751     H363-O361=0.9739     O364-H365=0.9635     O364-H366=0.9753     
H365-O364=0.9635     H366-O364=0.9753     O367-H368=0.9622     O367-H369=0.9761     H368-O367=0.9622     H369-O367=0.9761     
O370-H371=0.9725     O370-H372=0.9780     H371-O370=0.9725     H372-O370=0.9780     O373-H374=0.9647     O373-H375=0.9659     
H374-O373=0.9647     H375-O373=0.9659     O376-H377=0.9720     O376-H378=0.9655     H377-O376=0.9720     H378-O376=0.9655     
O379-H380=0.9807     O379-H381=0.9784     H380-O379=0.9807     H381-O379=0.9784     O382-H383=0.9567     O382-H384=0.9771     
H383-O382=0.9567     H384-O382=0.9771     O385-H386=0.9828     O385-H387=0.9768     H386-O385=0.9828     H387-O385=0.9768     
O388-H389=0.9759     O388-H390=0.9653     H389-O388=0.9759     H390-O388=0.9653     O391-H392=0.9724     O391-H393=0.9696     
H392-O391=0.9724     H393-O391=0.9696     O394-H395=0.9641     O394-H396=0.9796     H395-O394=0.9641     H396-O394=0.9796     
O397-H398=0.9741     O397-H399=0.9836     H398-O397=0.9741     H399-O397=0.9836     O400-H401=0.9781     O400-H402=0.9702     
H401-O400=0.9781     H402-O400=0.9702     O403-H404=0.9883     O403-H405=0.9566     H404-O403=0.9883     H405-O403=0.9566     
O406-H407=0.9735     O406-H408=0.9863     H407-O406=0.9735     H408-O406=0.9863     O409-H410=0.9723     O409-H411=0.9721     
H410-O409=0.9723     H411-O409=0.9721     O412-H413=0.9662     O412-H414=0.9777     H413-O412=0.9662     H414-O412=0.9777     
O415-H416=0.9673     O415-H417=0.9654     H416-O415=0.9673     H417-O415=0.9654     O418-H419=0.9820     O418-H420=0.9586     
H419-O418=0.9820     H420-O418=0.9586     O421-H422=0.9572     O421-H423=0.9750     H422-O421=0.9572     H423-O421=0.9750     
O424-H425=0.9663     O424-H426=0.9682     H425-O424=0.9663     H426-O424=0.9682     O427-H428=0.9585     O427-H429=0.9855     
H428-O427=0.9585     H429-O427=0.9855     O430-H431=0.9758     O430-H432=0.9740     H431-O430=0.9758     H432-O430=0.9740     
O433-H434=0.9634     O433-H435=0.9778     H434-O433=0.9634     H435-O433=0.9778     O436-H437=0.9759     O436-H438=0.9876     
H437-O436=0.9759     H438-O436=0.9876     O439-H440=0.9836     O439-H441=0.9852     H440-O439=0.9836     H441-O439=0.9852     
O442-H443=0.9675     O442-H444=0.9875     H443-O442=0.9675     H444-O442=0.9875     O445-H446=0.9711     O445-H447=0.9641     
H446-O445=0.9711     H447-O445=0.9641     O448-H449=0.9871     O448-H450=0.9594     H449-O448=0.9871     H450-O448=0.9594     
O451-H452=0.9817     O451-H453=0.9732     H452-O451=0.9817     H453-O451=0.9732     O454-H455=0.9682     O454-H456=0.9848     
H455-O454=0.9682     H456-O454=0.9848     O457-H458=0.9644     O457-H459=0.9932     H458-O457=0.9644     H459-O457=0.9932     
O460-H461=0.9775     O460-H462=0.9570     H461-O460=0.9775     H462-O460=0.9570     O463-H464=0.9740     O463-H465=0.9841     
H464-O463=0.9740     H465-O463=0.9841     O466-H467=0.9603     O466-H468=0.9819     H467-O466=0.9603     H468-O466=0.9819     
O469-H470=0.9894     O469-H471=0.9631     H470-O469=0.9894     H471-O469=0.9631     O472-H473=0.9739     O472-H474=0.9643     
H473-O472=0.9739     H474-O472=0.9643     O475-H476=0.9858     O475-H477=0.9892     H476-O475=0.9858     H477-O475=0.9892     
O478-H479=0.9674     O478-H480=0.9873     H479-O478=0.9674     H480-O478=0.9873     O481-H482=0.9735     O481-H483=0.9715     
H482-O481=0.9735     H483-O481=0.9715     O484-H485=0.9791     O484-H486=0.9639     H485-O484=0.9791     H486-O484=0.9639     
O487-H488=0.9755     O487-H489=0.9723     H488-O487=0.9755     H489-O487=0.9723     O490-H491=0.9801     O490-H492=0.9818     
H491-O490=0.9801     H492-O490=0.9818     O493-H494=0.9737     O493-H495=0.9641     H494-O493=0.9737     H495-O493=0.9641     
O496-H497=0.9850     O496-H498=0.9639     H497-O496=0.9850     H498-O496=0.9639     O499-H500=0.9758     O499-H501=0.9741     
H500-O499=0.9758     H501-O499=0.9741     O502-H503=0.9712     O502-H504=0.9730     H503-O502=0.9712     H504-O502=0.9730     
O505-H506=0.9644     O505-H507=0.9842     H506-O505=0.9644     H507-O505=0.9842     O508-H509=0.9683     O508-H510=0.9900     
H509-O508=0.9683     H510-O508=0.9900     O511-H512=0.9740     O511-H513=0.9848     H512-O511=0.9740     H513-O511=0.9848     
O514-H515=0.9893     O514-H516=0.9646     H515-O514=0.9893     H516-O514=0.9646     O517-H518=0.9663     O517-H519=0.9767     
H518-O517=0.9663     H519-O517=0.9767     O520-H521=0.9748     O520-H522=0.9750     H521-O520=0.9748     H522-O520=0.9750     
O523-H524=0.9771     O523-H525=0.9750     H524-O523=0.9771     H525-O523=0.9750     O526-H527=0.9702     O526-H528=0.9801     
H527-O526=0.9702     H528-O526=0.9801     O529-H530=0.9779     O529-H531=0.9583     H530-O529=0.9779     H531-O529=0.9583     
O532-H533=0.9674     O532-H534=0.9865     H533-O532=0.9674     H534-O532=0.9865     O535-H536=0.9624     O535-H537=0.9851     
H536-O535=0.9624     H537-O535=0.9851     O538-H539=0.9719     O538-H540=0.9818     H539-O538=0.9719     H540-O538=0.9818     
O541-H542=0.9755     O541-H543=0.9758     H542-O541=0.9755     H543-O541=0.9758     O544-H545=0.9804     O544-H546=0.9790     
H545-O544=0.9804     H546-O544=0.9790     O547-H548=0.9879     O547-H549=0.9733     H548-O547=0.9879     H549-O547=0.9733     
O550-H551=0.9780     O550-H552=0.9615     H551-O550=0.9780     H552-O550=0.9615     O553-H554=0.9774     O553-H555=0.9728     
H554-O553=0.9774     H555-O553=0.9728     O556-H557=0.9743     O556-H558=0.9594     H557-O556=0.9743     H558-O556=0.9594     
O559-H560=0.9795     O559-H561=0.9769     H560-O559=0.9795     H561-O559=0.9769     O562-H563=0.9679     O562-H564=0.9700     
H563-O562=0.9679     H564-O562=0.9700     O565-H566=0.9769     O565-H567=0.9636     H566-O565=0.9769     H567-O565=0.9636     
O568-H569=0.9598     O568-H570=0.9897     H569-O568=0.9598     H570-O568=0.9897     O571-H572=0.9902     O571-H573=0.9564     
H572-O571=0.9902     H573-O571=0.9564     O574-H575=0.9619     O574-H576=0.9756     H575-O574=0.9619     H576-O574=0.9756     
O577-H578=0.9864     O577-H579=0.9744     H578-O577=0.9864     H579-O577=0.9744     O580-H581=0.9774     O580-H582=0.9803     
H581-O580=0.9774     H582-O580=0.9803     O583-H584=0.9832     O583-H585=0.9665     H584-O583=0.9832     H585-O583=0.9665     
O586-H587=0.9748     O586-H588=0.9613     H587-O586=0.9748     H588-O586=0.9613     O589-H590=0.9802     O589-H591=0.9693     
H590-O589=0.9802     H591-O589=0.9693     O592-H593=0.9871     O592-H594=0.9562     H593-O592=0.9871     H594-O592=0.9562     
O595-H596=0.9785     O595-H597=0.9751     H596-O595=0.9785     H597-O595=0.9751     O598-H599=0.9867     O598-H600=0.9704     
H599-O598=0.9867     H600-O598=0.9704     O601-H602=0.9751     O601-H603=0.9752     H602-O601=0.9751     H603-O601=0.9752     
O604-H605=0.9760     O604-H606=0.9804     H605-O604=0.9760     H606-O604=0.9804     O607-H608=0.9749     O607-H609=0.9654     
H608-O607=0.9749     H609-O607=0.9654     O610-H611=0.9674     O610-H612=0.9665     H611-O610=0.9674     H612-O610=0.9665     
 C  H  Rav=1.0847 sigma=0.0029  Rmin=1.0802  Rmax=1.0879     4
 C  C  Rav=1.5218 sigma=0.0000  Rmin=1.5218  Rmax=1.5218     1
 N  H  Rav=1.0415 sigma=0.0043  Rmin=1.0358  Rmax=1.0463     3
 N  C  Rav=1.4655 sigma=0.0000  Rmin=1.4655  Rmax=1.4655     1
 O  H  Rav=0.9739 sigma=0.0085  Rmin=0.9562  Rmax=1.0050   401
 O  C  Rav=1.4140 sigma=0.0000  Rmin=1.4140  Rmax=1.4140     1
 
 selected bond angles (degree)
 --------------------
H3-C2-H1=108.68                C4-C2-H1=109.14                C4-C2-H3=109.15                O7-C2-H1=110.60                
O7-C2-H3=107.23                O7-C2-C4=111.96                H5-C4-C2=110.68                H6-C4-C2=109.01                
H6-C4-H5=109.72                N9-C4-C2=110.89                N9-C4-H5=109.16                N9-C4-H6=107.31                
H8-O7-C2=109.55                H10-N9-C4=109.54               H11-N9-C4=107.47               H11-N9-H10=114.10              
H12-N9-C4=108.52               H12-N9-H10=109.22              H12-N9-H11=107.85              
 
 selected dihedral angles (degree)
 ---------------------------------
H5-C4-C2-H1=187.38            H5-C4-C2-H3= 68.73            H5-C4-C2-O7=310.17            H6-C4-C2-H1= 66.61            
H6-C4-C2-H3=307.96            H6-C4-C2-O7=189.41            N9-C4-C2-H1=308.69            N9-C4-C2-H3=190.04            
N9-C4-C2-O7= 71.48            H8-O7-C2-H1= 14.45            H8-O7-C2-H3=132.81            H8-O7-C2-C4=252.50            
H10-N9-C4-C2=290.24           H10-N9-C4-H5= 52.44           H10-N9-C4-H6=171.29           H11-N9-C4-C2=165.79           
H11-N9-C4-H5=287.98           H11-N9-C4-H6= 46.83           H12-N9-C4-C2= 49.41           H12-N9-C4-H5=171.60           
H12-N9-C4-H6=290.45           
 
 CMA Distance (Angstroems)
 ---------------------------
R(CMA):  1.7188
           -------------------------------------------------
          |                Final Singlepoint                |
           -------------------------------------------------

          ...................................................
          :                      SETUP                      :
          :.................................................:
          :  # basis functions                1224          :
          :  # atomic orbitals                1224          :
          :  # shells                          816          :
          :  # electrons                      1626          :
          :  max. iterations                   250          :
          :  Hamiltonian                  GFN2-xTB          :
          :  restarted?                      false          :
          :  GBSA solvation                  false          :
          :  PC potential                    false          :
          :  electronic temp.          300.0000000     K    :
          :  accuracy                    1.0000000          :
          :  -> integral cutoff          0.2500000E+02      :
          :  -> integral neglect         0.1000000E-07      :
          :  -> SCF convergence          0.1000000E-05 Eh   :
          :  -> wf. convergence          0.1000000E-03 e    :
          :  Broyden damping             0.4000000          :
          ...................................................

 iter      E             dE          RMSdq      gap      omega  full diag
   1  -1039.8085811 -0.103981E+04  0.126E-05    8.02       0.0  T
   2  -1039.8085811 -0.341061E-11  0.762E-06    8.02     530.5  T
   3  -1039.8085811 -0.113687E-11  0.109E-06    8.02    3696.4  T

   *** convergence criteria satisfied after 3 iterations ***

         #    Occupation            Energy/Eh            Energy/eV
      -------------------------------------------------------------
         1        2.0000           -0.7423196             -20.1995
       ...           ...                  ...                  ...
       807        2.0000           -0.4609926             -12.5442
       808        2.0000           -0.4605570             -12.5324
       809        2.0000           -0.4598957             -12.5144
       810        2.0000           -0.4592155             -12.4959
       811        2.0000           -0.4563202             -12.4171
       812        2.0000           -0.4559443             -12.4069
       813        2.0000           -0.4473155             -12.1721 (HOMO)
       814                         -0.1526587              -4.1541 (LUMO)
       815                         -0.1427952              -3.8857
       816                         -0.1266351              -3.4459
       817                         -0.1222179              -3.3257
       818                         -0.1163985              -3.1674
       ...                                ...                  ...
      1224                          0.3671061               9.9895
      -------------------------------------------------------------
                  HL-Gap            0.2946569 Eh            8.0180 eV
             Fermi-level           -0.2999871 Eh           -8.1631 eV

 SCC (total)                   0 d,  0 h,  0 min, 12.253 sec
 SCC setup                      ...        0 min,  0.032 sec (  0.263%)
 Dispersion                     ...        0 min,  0.079 sec (  0.648%)
 classical contributions        ...        0 min,  0.021 sec (  0.168%)
 integral evaluation            ...        0 min,  0.698 sec (  5.694%)
 iterations                     ...        0 min,  1.799 sec ( 14.679%)
 molecular gradient             ...        0 min,  9.555 sec ( 77.983%)
 printout                       ...        0 min,  0.069 sec (  0.566%)

         :::::::::::::::::::::::::::::::::::::::::::::::::::::
         ::                     SUMMARY                     ::
         :::::::::::::::::::::::::::::::::::::::::::::::::::::
         :: total energy           -1033.479304289907 Eh    ::
         :: gradient norm              0.000116173385 Eh/a0 ::
         :: HOMO-LUMO gap              8.018021611156 eV    ::
         ::.................................................::
         :: SCC energy             -1039.808581119567 Eh    ::
         :: -> isotropic ES            5.734060613429 Eh    ::
         :: -> anisotropic ES         -1.318855551152 Eh    ::
         :: -> anisotropic XC         -0.097495926049 Eh    ::
         :: -> dispersion             -0.631441443546 Eh    ::
         :: repulsion energy           6.205892841645 Eh    ::
         :: add. restraining           0.000000000000 Eh    ::
         :: total charge               1.000000000000 e     ::
         :::::::::::::::::::::::::::::::::::::::::::::::::::::

           ------------------------------------------------- 
          |                Numerical Hessian                |
           ------------------------------------------------- 
step length          :   0.00500
SCC accuracy         :   0.30000
Hessian scale factor :   1.00000
frozen atoms in %    :   0.00000    0
RMS gradient         :   0.00012
estimated CPU  time    764.58 min
estimated wall time    766.42 min
