612
 energy: -1033.479303440841 gnorm: 0.000278164519 xtb: 6.5.1 (579679a)
H           -1.42973317570000        0.64742382950000       -0.52373298920000
C           -0.77956487880000        1.51287414510000       -0.61271619880000
H           -0.55687200500000        1.67473574380000       -1.66524508470000
C            0.51733404060000        1.24185557620000        0.13591569380000
H            1.13148852610000        2.13483308690000        0.17376731490000
H            1.05483760170000        0.45087996630000       -0.36631753760000
O           -1.43066234870000        2.67516389210000       -0.13890504910000
H           -2.22380987640000        2.42039548000000        0.37207648520000
N            0.24663827580000        0.78595155120000        1.50211099680000
H           -0.14040296970000        1.57836751700000        2.06514553120000
H            1.12704336600000        0.39046108380000        1.87808421890000
H           -0.45703331380000        0.01778371750000        1.46168324200000
O            6.54175628010000        6.10490343050000        1.36867976770000
H            5.64885548290000        5.94216227820000        1.04730184640000
H            6.59126674680000        5.78761202230000        2.29090438090000
O            0.85257884680000        3.53627356430000       -2.42920427410000
H            1.14298587720000        3.82020723860000       -1.54034756780000
H            1.14322485280000        2.60815012590000       -2.53428960710000
O            9.81057980500000        3.25965596330000       -1.88068137950000
H            9.37056299280000        3.66519982470000       -2.65507909890000
H            9.13134348050000        3.14683294330000       -1.19818450410000
O           -4.92383392900000        0.16281510300000        2.95400682330000
H           -5.67471706080000        0.69000779090000        2.61037796710000
H           -4.75295583940000       -0.51072263670000        2.28554869800000
O           -3.75371465770000        4.47181337280000       -0.57886424520000
H           -3.32984993290000        3.71535860620000       -1.03481468570000
H           -4.55144168630000        4.10130188530000       -0.16063763040000
O           -1.00060938370000       -2.09957302220000       -3.84895360790000
H           -0.29646785230000       -2.32817499040000       -4.48040537020000
H           -0.56040181770000       -1.81552617910000       -3.01080384550000
O            3.76252934410000        1.79915219710000        0.75182173800000
H            4.68899712950000        1.51472108960000        0.68139672180000
H            3.56029065770000        1.85675127260000        1.69425056010000
O            7.93029954570000        5.33928463910000       -0.74253756460000
H            7.52379740440000        5.71862972750000        0.06984302620000
H            8.87914137930000        5.35336143740000       -0.61729894110000
O            2.64307616590000       -0.41246356330000        2.05040033590000
H            3.08034612350000        0.16697542880000        2.69137333150000
H            3.34694007310000       -0.94102857030000        1.64460139310000
O            0.33404261080000       -1.29075964640000       -1.79664153060000
H            1.13666583340000       -1.79798614680000       -2.05335930110000
H            0.55104982080000       -0.38577923160000       -2.08360854770000
O            5.67568910990000        3.43531428530000       -3.25512176750000
H            6.19257538830000        2.99000987000000       -2.56274549180000
H            5.97823267760000        4.36855256100000       -3.24240091630000
O            8.60919160550000        4.12380668150000       -4.13844933560000
H            8.03735215790000        4.88512356120000       -3.98999072710000
H            8.11696361900000        3.50633653240000       -4.70190677580000
O           -2.30029481290000       -0.29977810940000        1.48626044880000
H           -2.80693503940000        0.52982404250000        1.48177625720000
H           -2.24607263780000       -0.60660157940000        2.41166984980000
O           -3.00530544680000        1.53743687510000        4.08525701230000
H           -3.22967214670000        1.78735978140000        5.00250010480000
H           -3.81104228240000        1.25710009170000        3.61414552620000
O           -2.25594717030000        4.81433426290000        1.87842358080000
H           -3.17870886920000        4.61119804090000        1.65950929020000
H           -1.80356874310000        5.09095957880000        1.05289279010000
O            1.75127707900000       -0.44319765190000       -4.85736671770000
H            2.03680658170000       -1.24609383850000       -4.38648269310000
H            2.43322490520000       -0.24015780230000       -5.51831303450000
O           -0.26051669290000       -6.45404415580000        3.79605984820000
H           -0.28718484890000       -6.18407429620000        2.86572921390000
H           -1.15530560910000       -6.74109085900000        4.01399801990000
O            1.72129062130000       -3.28420987580000        2.55364366890000
H            2.02907382970000       -4.18611681790000        2.35955976140000
H            2.48842163430000       -2.80074316440000        2.91761250720000
O            1.74853476400000       -1.26465794670000        5.97890471450000
H            1.02199908410000       -1.47909472500000        6.57196833480000
H            1.36353287750000       -1.29414604550000        5.07375727770000
O           -0.75436610730000        0.81236549160000        6.59962612580000
H           -0.79140351360000       -0.15501854220000        6.56812941550000
H           -0.27951188440000        1.09006074670000        5.79155875110000
O            3.47465387450000        1.66060706850000        3.60850894600000
H            4.26350536200000        2.16099580080000        3.86243434550000
H            3.08589429300000        1.40455748790000        4.46436655050000
O           -1.52766069520000        3.93063725030000       -3.48768103600000
H           -2.18991717020000        3.31684330660000       -3.10633892290000
H           -0.66941147950000        3.74573116000000       -3.05086776600000
O           -4.86981301420000        4.06465902380000        2.12019989680000
H           -4.84702409330000        4.19942173150000        3.09182181660000
H           -5.80784478910000        4.16597284490000        1.89186720270000
O           -4.38544174640000       -1.80517681800000        0.93436515590000
H           -3.46653689610000       -1.45767627670000        0.90096385730000
H           -4.38588231030000       -2.64885871180000        0.45274264100000
O            2.10634501350000       -2.49484308470000       -0.10612481790000
H            2.63213866320000       -3.28493508930000       -0.32393120520000
H            1.87154901520000       -2.55236243810000        0.83725562210000
O            7.45715087140000        1.45092860080000       -2.54498529390000
H            7.78357504780000        1.51667716610000       -3.44439857070000
H            6.59109817810000        0.99384940580000       -2.59865120420000
O           -3.72515568820000        1.91970849260000        1.05577798260000
H           -4.16006538850000        2.66231218350000        1.52126111550000
H           -4.39985625710000        1.51189793450000        0.49026308760000
O            3.38699403450000        2.98091386220000       -1.71575785980000
H            4.27056387880000        3.26432370740000       -1.98569303090000
H            3.47424647050000        2.59256305570000       -0.83349498900000
O            2.98580117450000        1.08968259930000        6.20881964850000
H            2.35846610590000        1.80526266510000        6.41159832480000
H            2.45049817680000        0.27272863470000        6.17385715250000
O           -2.21527550650000       -3.77127651260000        1.71715580980000
H           -2.39175995590000       -3.77950330500000        2.67147702770000
H           -1.58409369110000       -4.49237370820000        1.54987836550000
O           -1.91239609700000        1.40299880110000       -7.86326100450000
H           -1.14234117800000        1.62924905160000       -8.38883963110000
H           -1.66210783210000        0.59962565530000       -7.38569373790000
O            4.07173518800000        5.33109490160000        0.10627835160000
H            4.18433532640000        5.82800585190000       -0.74392186840000
H            3.16914984000000        4.92119450580000       -0.01228869200000
O           -0.42918488090000        4.74773300170000       -5.79489237670000
H           -0.91407699300000        4.42496218870000       -5.01054445160000
H            0.27137693330000        4.08463613280000       -5.92666950940000
O            7.14778175740000       -4.03921134070000       -2.33592445540000
H            7.21467610720000       -3.13147358840000       -2.00670129640000
H            7.85250459290000       -4.53698495950000       -1.88890897490000
O           -0.00353770350000       -4.04355971490000       -1.00151392560000
H            0.68332524550000       -3.40787968290000       -0.71674829460000
H           -0.84788092590000       -3.54015139490000       -1.04714742930000
O          -10.74139402690000       -4.12679332970000        0.68365851740000
H           -9.91061200550000       -4.57172995900000        0.99649097290000
H          -11.42587126460000       -4.79449742990000        0.66647542370000
O           -8.55810830090000       -5.30687298360000        1.54669590130000
H           -8.34793492410000       -5.76185190460000        0.71503180080000
H           -7.75051993980000       -4.71968908120000        1.66058551880000
O            0.25302286700000       -3.98915464330000        4.66973294970000
H            0.72831293240000       -3.60547725220000        3.89094329410000
H            0.16038156260000       -4.94452259580000        4.45382944390000
O            1.62003965210000        4.47562866760000        0.00381378780000
H            1.10241909050000        5.30387104140000       -0.00638993680000
H            1.46097461700000        4.03271393520000        0.86361976370000
O            0.27601086440000        6.83924566050000       -4.17908824430000
H            0.02809934260000        6.27990681640000       -4.94027593460000
H           -0.51408254350000        6.86218179650000       -3.61981208550000
O           -6.99404256680000       -1.52567510670000        3.32032719830000
H           -7.54429703310000       -0.75807831930000        3.55064897680000
H           -7.52746670440000       -2.30788163040000        3.53883198940000
O            8.53128920250000        3.22212041010000        3.98368440230000
H            8.36786939700000        2.76632971530000        4.81521778560000
H            7.83910718060000        2.88817529970000        3.37514970860000
O           -4.24468153550000       -6.44760081540000       -1.66863766110000
H           -4.64600701400000       -7.17148791170000       -1.18107579560000
H           -3.30906546330000       -6.68881822970000       -1.84106295070000
O            4.24094778810000        4.03224883170000        2.50990485840000
H            4.19891657560000        4.43713966520000        1.63569194660000
H            4.18565755370000        4.74250690170000        3.17655033880000
O            4.97943296170000        0.44105488400000       -2.83198068560000
H            4.39799693880000        0.17154180440000       -2.09226128360000
H            4.46301368760000        1.06555912440000       -3.37854008490000
O            2.60672714660000       -6.90558004440000        4.50599031910000
H            2.34387802370000       -6.51512497570000        3.63794295350000
H            1.88957244900000       -7.49332182940000        4.74569583420000
O           -2.41793545920000       -4.03366252850000        4.40734248740000
H           -1.45510546730000       -3.94187759840000        4.54681461840000
H           -2.86492654560000       -3.52471037360000        5.10836873520000
O            4.67631410430000       -2.74069052020000       -1.67905094810000
H            5.38641663350000       -2.09280952260000       -1.84765423110000
H            5.08318031220000       -3.59340512050000       -1.87371329120000
O            2.38951202210000        5.17634249210000       -3.79157825460000
H            1.88088102930000        4.48494843860000       -3.30459743510000
H            1.73047680080000        5.86891639970000       -3.97985783280000
O            6.01720215330000        3.36811269980000       -0.56424866020000
H            6.83887014750000        3.88121453640000       -0.55574449970000
H            5.32225811860000        3.97029581990000       -0.26171722350000
O            1.25134249910000        0.82912579800000       -7.81277547540000
H            2.10327304120000        0.39347526000000       -7.70194451210000
H            1.23692067060000        1.53994875600000       -7.13344347650000
O           -2.22242596100000       -2.59131362270000       -1.00064108650000
H           -3.05419004530000       -2.85426568760000       -1.42650410000000
H           -2.18787288600000       -1.63256615580000       -1.12262902810000
O           -0.55788163030000       -0.78354109550000       -6.71695816940000
H            0.12838335980000       -0.27810842450000       -7.21139659800000
H           -0.06492119370000       -1.54908466690000       -6.34688474070000
O            4.11704433890000        6.01904086600000        4.34395275110000
H            3.82548336230000        5.54508703640000        5.14042535030000
H            5.07522260850000        6.12519579120000        4.41897037450000
O           -2.75182365800000        3.99136290600000       -7.05005015040000
H           -2.54446958230000        3.08640210720000       -7.32567707700000
H           -1.90582541120000        4.38509696520000       -6.77258833200000
O            3.15640605880000       -0.15727771740000       -0.99620461470000
H            2.84048596670000       -1.02493536750000       -0.66981905390000
H            3.28709854630000        0.42546826270000       -0.22550720160000
O           -3.26740384540000        1.71263207930000        6.70550575550000
H           -3.84852221440000        0.93977380090000        6.66957323870000
H           -2.34848330460000        1.37214929460000        6.79470222720000
O            5.44185447460000        3.05805024160000        4.95284789060000
H            4.83135272910000        3.37242338770000        5.63478118400000
H            6.13340886970000        2.52927351730000        5.38378486970000
O            1.42752567790000        0.94630362510000       -2.72420651170000
H            1.62668052150000        0.55072308550000       -3.61443861800000
H            2.18089611610000        0.69456523200000       -2.15568161640000
O           -2.19716262180000       -3.28846846720000       -6.96381719990000
H           -1.74286992020000       -2.44402844470000       -7.05622079510000
H           -3.11602307350000       -3.07700457620000       -6.74532205640000
O           -0.77855970030000        0.95476071380000       -4.71727622170000
H           -0.45813487150000        0.57231687620000       -3.89895976510000
H           -0.68587789840000        0.24729661970000       -5.40194510950000
O           -0.38135078940000       -7.67988654470000       -4.34444054270000
H            0.55087776740000       -7.71330637010000       -4.09008393730000
H           -0.47060579420000       -6.96666738330000       -4.99511723590000
O           10.28924126460000       -4.10198148590000        1.49244934970000
H           10.10560209610000       -4.52746442900000        2.33273861340000
H            9.51736167670000       -3.52800900540000        1.28601542730000
O           -0.77501565530000       -7.89691955170000        0.01367937080000
H           -1.13272386230000       -7.56352915020000       -0.83618395030000
H            0.17538119420000       -8.00793449110000       -0.15161738950000
O           -6.79701433050000        1.69478512880000        2.04392802110000
H           -6.45239593490000        2.27086403970000        1.33900723940000
H           -7.68822708770000        1.45064427220000        1.72554634140000
O           10.52628323630000        3.26240245540000        2.09704545510000
H            9.76782579450000        3.19189495880000        1.46246316820000
H           10.10062436250000        3.50885732970000        2.93046090210000
O            7.55002827860000       -0.43924991990000       -5.60532614570000
H            6.67437425920000       -0.83504200360000       -5.40446083800000
H            7.39540432220000        0.51772661700000       -5.62690352700000
O           11.91855291700000        2.40157459400000       -0.16530974640000
H           11.70863253950000        2.77553627850000        0.69903750650000
H           11.32968309460000        2.84307579600000       -0.79279387880000
O           -3.12934055130000       -0.10349559550000       -1.70138487930000
H           -3.97760303260000       -0.03872478790000       -1.22441642020000
H           -3.32880578410000       -0.56087179350000       -2.53603481000000
O            4.23611371500000        4.50904652100000       -5.54785592550000
H            4.95582525790000        5.09360829400000       -5.30759996550000
H            3.46515819400000        4.78863234740000       -5.00182443150000
O            0.40227599900000       -1.14434059110000        3.68760688410000
H            0.54668244130000       -1.59794318150000        2.84252549630000
H           -0.54562431250000       -1.22508521980000        3.88907037700000
O           -8.06985530870000       -1.55933933970000        0.89402686030000
H           -7.48143872930000       -1.52099245480000        1.67696091180000
H           -8.97010937410000       -1.65151526800000        1.24639668100000
O           -6.76090698700000        0.44619853020000       -5.70969470060000
H           -6.02942848370000        0.42646087840000       -6.35158139840000
H           -6.40678029170000        0.06075558160000       -4.87808509080000
O            4.29027032620000       -7.31411663210000        0.87060806250000
H            4.78097664710000       -7.36565423100000        1.69526788740000
H            4.94515607510000       -7.07893806120000        0.18243346440000
O            6.65160736460000       -4.34045504900000        0.41080504370000
H            5.79512599300000       -4.17899418640000        0.86497336780000
H            7.14113659550000       -4.92281480740000        1.03978765540000
O           -6.91593311890000        2.32852160680000        4.69403422020000
H           -6.82263549880000        2.12078639980000        3.73920011050000
H           -7.77758586440000        2.75217643610000        4.75676485760000
O            1.53958075800000        3.34523711410000        2.45418762230000
H            2.48676215830000        3.35218213370000        2.67156033280000
H            1.16301029820000        4.18882028970000        2.76133343790000
O           -6.90665238000000        6.24668581750000        3.69798626580000
H           -6.33702930690000        6.82488399730000        3.17425541640000
H           -6.30230986310000        5.72118208620000        4.24906924570000
O           -0.95330086430000        5.29224900050000       -0.39276896570000
H           -1.29353731340000        5.70541951490000       -1.19440001560000
H           -0.99877150090000        4.32801808730000       -0.51466106780000
O            0.63294383900000        5.84105378090000        2.94000514900000
H            1.44097741890000        6.32801356480000        2.70029913770000
H           -0.09137462190000        6.28766008120000        2.47079895850000
O            5.15001542940000       -6.31504325760000        3.54016084370000
H            5.52328822080000       -5.65088869920000        4.16267952860000
H            4.37884620210000       -6.68944130750000        3.98870102580000
O            6.61663800690000       -2.71871567830000        2.84734378060000
H            7.53040696720000       -2.40700519670000        2.84734450260000
H            6.14190710660000       -2.32535725380000        2.09857625500000
O           -3.40558150480000       -1.11410858560000       -4.16939615930000
H           -2.48793043360000       -1.44725076590000       -4.17815735540000
H           -3.88776148420000       -1.61027051680000       -4.86468276930000
O           -9.06348320060000        1.52229568410000        0.73132093030000
H           -8.72055582290000        1.80788502950000       -0.13664747510000
H           -9.64431233520000        2.26429699280000        1.00369494060000
O            3.74078816230000       -0.04021434430000       -6.66585232210000
H            4.11980206550000        0.83545585120000       -6.83699357250000
H            4.34557590320000       -0.46462846980000       -6.01523019480000
O           -4.29897168330000        3.91218014800000       -4.90427977090000
H           -3.80678260030000        4.12647413670000       -5.72819841250000
H           -3.97115273530000        3.01830759990000       -4.68657268330000
O            6.14284262660000       -4.26314948890000        4.93587925250000
H            5.57470908930000       -3.80022474340000        5.55810009720000
H            6.25638976250000       -3.66192222870000        4.16337237710000
O            4.00056446190000       -2.69735997450000        6.20334084310000
H            3.23076459430000       -2.09435161290000        6.25027518820000
H            3.56653420700000       -3.57497671790000        6.32287204720000
O           -0.85353891010000       -5.20908998370000       -5.58017322770000
H           -1.42148379420000       -5.02331816600000       -4.79701748630000
H           -1.34356378650000       -4.79294890610000       -6.30834635160000
O            3.40926514110000        2.14761160940000       -4.25411049100000
H            3.93976059840000        2.85366005190000       -4.64740546020000
H            3.17392544320000        2.47591824070000       -3.36250947340000
O            6.17003191110000       -6.53794684120000       -0.95639110320000
H            7.01984432310000       -6.95942350840000       -1.08367351670000
H            6.37538048840000       -5.64642629830000       -0.57359580580000
O            3.99649919280000       -2.33462035280000        3.55101414090000
H            4.50860397800000       -1.52835184800000        3.36349597010000
H            4.05037838900000       -2.49575829810000        4.51133581690000
O           -0.27517766910000       -1.88130259240000        1.09352950760000
H           -1.03562142950000       -2.47377505270000        1.20530644890000
H           -0.17909560120000       -1.72384842250000        0.14850746220000
O            5.56397112990000       -0.03108625070000        3.30791704930000
H            5.61262653990000       -0.05105996900000        4.27908581510000
H            6.42188617400000       -0.32574313200000        2.95658996810000
O           11.61972221380000       -0.11586115030000       -0.98314992990000
H           11.56540219040000        0.13100824070000       -1.91952095780000
H           11.89419926640000        0.72236489050000       -0.55016706980000
O           -7.07455847300000       -3.03138931790000        5.88614244290000
H           -7.90243289920000       -3.25756297110000        5.44633375650000
H           -7.12587938230000       -2.08399541370000        6.06212466960000
O           -3.60533879870000       -2.62923319480000        6.39578161540000
H           -4.28713748070000       -3.11909210780000        6.85591359160000
H           -4.03435193890000       -1.79879494540000        6.07903988220000
O           -9.27727154670000        1.37090310570000       -5.12001433550000
H           -9.05576295070000        2.30258141690000       -5.05549334240000
H           -8.47773282790000        0.93574457470000       -5.45549654230000
O           -4.35444917930000       -4.38012268830000        0.15949389680000
H           -4.30258171590000       -5.10152856470000       -0.48995224100000
H           -3.52242883480000       -4.40155757190000        0.66954976400000
O           -2.80308741390000        4.38779880830000        6.00555114590000
H           -2.92707991190000        3.56932886230000        6.50260158850000
H           -1.89265631300000        4.34668964770000        5.64774176700000
O          -10.66817572430000        3.64880132620000        0.89972294070000
H          -10.14260850010000        4.36884137570000        0.52037284630000
H          -11.20577799720000        3.31119876600000        0.17052932490000
O           -4.67244459340000       -2.55471682560000       -2.22663257920000
H           -4.72907700020000       -3.29944138500000       -2.85893390310000
H           -5.35141692460000       -2.75633960670000       -1.55633539780000
O           -6.11311108110000        3.16463174100000       -0.20070313430000
H           -6.58572373470000        3.99759599940000       -0.30457028360000
H           -6.10362753030000        2.71325985410000       -1.06268332280000
O           -4.81270745070000       -0.38752877440000        5.62583606930000
H           -5.73486699410000       -0.36275991880000        5.91834359100000
H           -4.86205555770000       -0.24888035180000        4.65763053660000
O            8.83216905520000       -4.68006087140000        4.16848380970000
H            8.03677806900000       -4.68217213830000        4.71739139050000
H            9.01351504290000       -3.73832497530000        3.99220569960000
O            6.15634539060000        0.68261387790000        0.03065712520000
H            6.84174564310000        0.51900198790000        0.71638750980000
H            6.31010656220000        1.57262481410000       -0.32541914000000
O           -6.74743261850000       -6.92399584610000        3.07555956340000
H           -6.30310614890000       -6.26299604270000        3.62590829190000
H           -7.56170679240000       -6.51512671290000        2.75424271850000
O            2.95242337980000        6.99297419910000        2.03603117720000
H            3.44069749610000        6.48552440570000        1.36218314720000
H            3.44135355510000        6.92104541200000        2.86632899140000
O           -2.14355382100000       -4.41015919990000       -3.41569475760000
H           -3.07670078220000       -4.40638044930000       -3.65849844420000
H           -1.80538260910000       -3.48558662800000       -3.48388762670000
O           -7.95233074780000       -0.22164548450000       -1.45808634910000
H           -8.81403127600000       -0.18858094210000       -1.92411022380000
H           -8.10454139690000       -0.70618170630000       -0.62775842630000
O           -9.10617773510000        0.14406263530000        3.68201816240000
H           -9.78390394710000       -0.30346164640000        3.16849863290000
H           -9.23062523180000        1.10560551840000        3.55258351170000
O           -8.97620571630000       -3.37347436450000        3.77137489840000
H           -9.65281539210000       -2.78894751590000        3.40697134430000
H           -8.96337618910000       -4.15743725650000        3.21282639880000
O           -5.47374424060000       -4.79612962840000        4.42654996330000
H           -6.06048962860000       -4.36608498470000        5.06583456490000
H           -4.83155049350000       -4.09246487490000        4.19259593060000
O           -4.88371960880000       -4.77020182060000       -3.66640714500000
H           -5.82414864310000       -4.89957360100000       -3.87148695250000
H           -4.69057707360000       -5.44164987200000       -2.98517574210000
O            8.94740237750000       -0.88360655910000       -3.45409685930000
H            9.59033456120000       -0.15579556040000       -3.42055273520000
H            8.48458600680000       -0.79487505410000       -4.32313454940000
O            1.01634018650000       -4.71039609020000       -3.35305276230000
H            0.38476614680000       -4.76246949180000       -4.07836229600000
H            0.52697956710000       -4.53277325100000       -2.51727978260000
O           -4.47026090900000       -2.50920179200000        3.54237407350000
H           -4.33143031700000       -2.52059428110000        2.57731688270000
H           -5.35289159280000       -2.10993528000000        3.64258690900000
O           11.34673689680000       -1.55350672930000        1.54842719140000
H           11.54655133970000       -1.22546472040000        0.66479973620000
H           11.22173198130000       -2.51667233620000        1.45985171080000
O           -3.03374519200000       -6.65918189760000        1.29596243080000
H           -2.41426337140000       -7.32543624870000        0.98269980590000
H           -3.02308642020000       -6.68687299510000        2.27161699660000
O           -4.63867288090000       -2.19323814070000       -6.23002232190000
H           -4.64471632420000       -1.36294955210000       -6.73628615550000
H           -5.56938845500000       -2.41502109400000       -6.02721353780000
O            1.01643783770000        7.19687384360000        0.07688008280000
H            1.69201092080000        7.44209448600000        0.72040959930000
H            0.16675754580000        7.38496971090000        0.49587677550000
O            4.88789050850000       -1.65305534060000        0.86656807610000
H            4.72588527920000       -2.17166419340000        0.06055835280000
H            5.29062339580000       -0.82617774800000        0.57286570650000
O           -1.05286314780000        2.70761107070000        2.86105694020000
H           -1.44381902130000        3.46344173160000        2.37355694760000
H           -1.79977108100000        2.24162848900000        3.28808671240000
O            4.82216182580000        2.47300376170000       -7.21080019470000
H            4.74231208730000        2.68585246310000       -8.14014327160000