 Entering Gaussian System
 *********************************************
 Gaussian 98:
 frequency output generated by the xtb code
 *********************************************
                         Standard orientation:
 --------------------------------------------------------------------
  Center     Atomic     Atomic              Coordinates (Angstroms)
  Number     Number      Type              X           Y           Z
 --------------------------------------------------------------------
    1          8             0        1.642160   -2.551215   -1.345388
    2          1             0        0.702015   -2.548445   -1.057392
    3          1             0        2.138162   -2.945013   -0.610919
    4          8             0       -3.459858    2.567119    1.630908
    5          1             0       -2.916503    2.019199    2.222434
    6          1             0       -2.840596    3.088836    1.105139
    7          8             0       -0.712331   -2.095207   -0.252106
    8          1             0       -0.316092   -1.731343    0.565623
    9          1             0       -0.991193   -1.347684   -0.815248
   10          8             0       -1.422823   -0.351987   -2.156260
   11          1             0       -2.069430   -0.842554   -2.665235
   12          1             0       -1.846952    0.539804   -1.969981
   13          8             0       -2.538457    1.950679   -1.878957
   14          1             0       -2.157686    2.496086   -1.150688
   15          1             0       -2.184557    2.359975   -2.699231
   16          8             0        2.354064   -1.618915   -3.743535
   17          1             0        2.074382   -2.018943   -2.892531
   18          1             0        2.612481   -2.341355   -4.315884
   19          8             0       -1.245412   -3.498214    3.009261
   20          1             0       -1.744197   -3.682862    2.162191
   21          1             0       -1.282103   -4.301101    3.528567
   22          8             0        3.600830    0.751885    1.573756
   23          1             0        2.991606    0.637039    2.351109
   24          1             0        3.802154    1.686074    1.519945
   25          8             0        0.082241    1.596601    1.387638
   26          1             0        0.438337    0.909841    0.799067
   27          1             0       -0.653591    1.205501    1.895626
   28          8             0       -1.274090    3.410973   -0.040876
   29          1             0       -0.718558    2.807822    0.499021
   30          1             0       -0.658884    3.852234   -0.645960
   31          8             0       -4.372584   -1.638257    1.014549
   32          1             0       -4.286159   -0.764388    0.550338
   33          1             0       -5.314651   -1.767913    1.128979
   34          8             0        4.650461   -1.331368    0.150294
   35          1             0        4.532618   -0.956554   -0.747390
   36          1             0        4.550190   -0.576938    0.749679
   37          8             0       -2.577147   -3.738486    0.770461
   38          1             0       -3.316544   -3.111186    0.828777
   39          1             0       -1.908107   -3.270199    0.234452
   40          8             0        2.861505   -2.995626    1.054984
   41          1             0        3.565488   -2.362354    0.731785
   42          1             0        3.328171   -3.690224    1.518668
   43          8             0        0.655167    4.092101   -1.923819
   44          1             0        1.248397    3.296673   -1.905629
   45          1             0        1.217176    4.850701   -2.078202
   46          8             0       -3.037891   -1.419059    3.398953
   47          1             0       -3.557283   -1.506267    2.576935
   48          1             0       -2.375685   -2.130123    3.376504
   49          8             0        1.631807   -0.005550   -0.189073
   50          1             0        1.749011   -0.862784   -0.637701
   51          1             0        2.404122    0.126043    0.392410
   52          8             0        0.633465   -1.707257    2.082943
   53          1             0        0.067196   -2.348791    2.542577
   54          1             0        1.424072   -2.190040    1.779918
   55          8             0        2.079480    1.870837   -2.029546
   56          1             0        1.848667    1.294610   -1.268003
   57          1             0        1.587863    1.467722   -2.780329
   58          8             0        1.677621    0.505935    3.339531
   59          1             0        1.130542    1.159103    2.869627
   60          1             0        1.304008   -0.352070    3.064277
   61          8             0       -0.999089    2.910578   -3.845369
   62          1             0       -0.447397    2.155323   -4.086548
   63          1             0       -0.454646    3.460568   -3.257491
   64          8             0       -1.838048    0.874547    3.119789
   65          1             0       -1.604789    1.159903    4.003596
   66          1             0       -2.305233    0.000659    3.226105
   67          8             0       -4.349491    0.728421   -0.116090
   68          1             0       -3.884666    1.064840   -0.893226
   69          1             0       -4.175194    1.401511    0.578469
   70          8             0        0.584725    0.517985   -3.783964
   71          1             0       -0.095273    0.148276   -3.184353
   72          1             0        1.189245   -0.214481   -3.977933
   73          8             0        4.126719   -0.068234   -2.205356
   74          1             0        3.630476    0.762600   -2.137460
   75          1             0        3.644959   -0.601392   -2.854464
 --------------------------------------------------------------------
     1 basis functions        1 primitive gaussians
     1 alpha electrons        1 beta electrons
 
 Harmonic frequencies (cm**-1), IR intensities (km*mol⁻¹),
 Raman scattering activities (A**4/amu), Raman depolarization ratios,
 reduced masses (AMU), force constants (mDyne/A) and normal coordinates:
                      1                      2                      3
                        a                      a                      a 
 Frequencies --    23.6625                27.1364                30.8229
 Red. masses --    14.3994                14.3435                14.2472
 Frc consts  --     0.0000                 0.0000                 0.0000
 IR Inten    --     0.3388                 0.4954                 2.6982
 Raman Activ --     0.0000                 0.0000                 0.0000
 Depolar     --     0.0000                 0.0000                 0.0000
 Atom AN      X      Y      Z        X      Y      Z        X      Y      Z
   1   8    -0.17  -0.04   0.11    -0.19   0.05  -0.12     0.03  -0.15  -0.01
   2   1    -0.04   0.02   0.04    -0.05   0.01  -0.03     0.01  -0.02  -0.01
   3   1    -0.04  -0.01   0.03    -0.05   0.01  -0.03     0.00  -0.02   0.01
   4   8     0.04  -0.17  -0.01    -0.08  -0.09  -0.12     0.18   0.03   0.23
   5   1     0.02  -0.04  -0.01    -0.02  -0.01  -0.02     0.05  -0.00   0.04
   6   1    -0.00  -0.02   0.01    -0.02  -0.02  -0.03     0.03   0.01   0.04
   7   8    -0.06   0.27   0.19    -0.17   0.02  -0.03     0.01  -0.02  -0.10
   8   1    -0.01   0.06   0.05    -0.03   0.01  -0.01    -0.00  -0.01  -0.02
   9   1    -0.01   0.07   0.05    -0.02   0.01  -0.02     0.01  -0.00  -0.02
  10   8    -0.04   0.23   0.15     0.18   0.01  -0.19     0.04   0.07  -0.03
  11   1    -0.00   0.04   0.05     0.06   0.00  -0.07     0.02   0.02  -0.02
  12   1    -0.02   0.06   0.01     0.03  -0.00  -0.04    -0.00   0.01  -0.00
  13   8    -0.10   0.23  -0.11     0.06  -0.05  -0.14    -0.10   0.00  -0.01
  14   1    -0.03   0.05  -0.02     0.00  -0.02  -0.03    -0.03   0.01  -0.01
  15   1    -0.01   0.05  -0.02     0.02  -0.00  -0.03    -0.03  -0.01  -0.01
  16   8    -0.20  -0.08   0.09     0.09   0.09  -0.03     0.16   0.05   0.10
  17   1    -0.05  -0.02   0.02    -0.01   0.02  -0.02     0.03  -0.00   0.01
  18   1    -0.06  -0.02   0.02     0.04   0.02   0.00     0.05   0.03   0.02
  19   8     0.06  -0.06   0.02     0.07   0.06   0.16    -0.02  -0.09  -0.11
  20   1     0.03  -0.02   0.00     0.01   0.01   0.05    -0.02  -0.00  -0.03
  21   1     0.02  -0.02   0.00     0.03   0.02   0.04     0.00  -0.04  -0.05
  22   8     0.10  -0.01  -0.02    -0.06  -0.11  -0.03    -0.10  -0.01   0.07
  23   1     0.01   0.02  -0.01    -0.01  -0.02  -0.01    -0.04   0.01   0.00
  24   1     0.05  -0.01  -0.02    -0.00  -0.03  -0.01    -0.03  -0.00   0.01
  25   8    -0.04  -0.01  -0.18    -0.05   0.02   0.00    -0.10  -0.10  -0.36
  26   1     0.01   0.01  -0.04    -0.02   0.00  -0.00    -0.00  -0.02  -0.08
  27   1     0.00  -0.02  -0.04    -0.01   0.01   0.00    -0.01  -0.04  -0.08
  28   8    -0.04   0.10  -0.04    -0.07  -0.05  -0.06    -0.08   0.08  -0.10
  29   1    -0.02   0.01  -0.02    -0.02  -0.01  -0.01    -0.02  -0.00  -0.05
  30   1    -0.01   0.02  -0.00    -0.01  -0.00  -0.00    -0.02   0.02  -0.03
  31   8    -0.01  -0.20  -0.08    -0.03  -0.09   0.33    -0.05   0.10   0.21
  32   1     0.02  -0.05  -0.02     0.02  -0.05   0.04    -0.01   0.03   0.06
  33   1    -0.00  -0.03  -0.03    -0.01   0.00   0.08    -0.01   0.03   0.05
  34   8    -0.04  -0.11  -0.01    -0.05  -0.11  -0.01     0.02   0.02   0.13
  35   1    -0.01  -0.03  -0.00    -0.01  -0.02   0.00     0.02   0.01   0.03
  36   1     0.01  -0.02  -0.00    -0.02  -0.03   0.01    -0.00   0.00   0.04
  37   8     0.14  -0.09  -0.03    -0.01  -0.03   0.23    -0.10   0.11  -0.08
  38   1     0.01  -0.05  -0.00    -0.01  -0.02   0.07    -0.02   0.04  -0.00
  39   1     0.02   0.01   0.01    -0.02  -0.00   0.04    -0.02   0.02  -0.02
  40   8    -0.10   0.01   0.08    -0.15  -0.08  -0.18    -0.02   0.01   0.04
  41   1    -0.02  -0.01   0.01    -0.03  -0.03  -0.03    -0.00   0.00   0.02
  42   1    -0.03  -0.00   0.02    -0.05  -0.04  -0.06    -0.01   0.00   0.02
  43   8     0.08   0.03   0.03     0.01   0.07   0.07    -0.07   0.01  -0.12
  44   1     0.02   0.01   0.01     0.01   0.02   0.02    -0.01   0.01  -0.02
  45   1     0.02   0.01   0.01     0.00   0.02   0.03    -0.02   0.00  -0.05
  46   8    -0.04  -0.14  -0.06     0.09   0.05   0.25     0.06  -0.07   0.16
  47   1    -0.01  -0.04  -0.02     0.01   0.00   0.07    -0.00  -0.00   0.05
  48   1    -0.01  -0.03  -0.01     0.03   0.02   0.06     0.01  -0.03   0.02
  49   8     0.09   0.01  -0.01    -0.10   0.02  -0.04     0.08  -0.09  -0.11
  50   1     0.01  -0.00   0.00    -0.04   0.01  -0.02     0.02  -0.03  -0.02
  51   1     0.02  -0.00  -0.00    -0.02  -0.01  -0.01     0.01  -0.02  -0.01
  52   8     0.00   0.11   0.16    -0.05   0.02  -0.09    -0.08  -0.01  -0.06
  53   1     0.00   0.02   0.03    -0.01   0.01  -0.01    -0.02  -0.01  -0.02
  54   1    -0.00   0.03   0.03    -0.02  -0.00  -0.03    -0.01   0.00  -0.01
  55   8     0.08   0.02  -0.01     0.06   0.10   0.07     0.04   0.06   0.00
  56   1     0.02   0.01  -0.00     0.00   0.02   0.01     0.01   0.01  -0.01
  57   1     0.01   0.01   0.00     0.03   0.03   0.01     0.02   0.01  -0.00
  58   8     0.01   0.25  -0.09    -0.05  -0.03  -0.02    -0.28   0.09  -0.09
  59   1     0.00   0.05  -0.05    -0.01  -0.00  -0.00    -0.06   0.01  -0.05
  60   1     0.00   0.05   0.01    -0.02  -0.00  -0.01    -0.06   0.02  -0.02
  61   8     0.08   0.13  -0.02     0.11   0.10  -0.03    -0.08  -0.09  -0.05
  62   1     0.01   0.02  -0.00     0.04   0.03  -0.01    -0.01  -0.02  -0.01
  63   1     0.02   0.02   0.00     0.02   0.02   0.00    -0.02  -0.02  -0.02
  64   8     0.09  -0.21  -0.12    -0.04   0.10   0.05     0.23  -0.18  -0.04
  65   1     0.05  -0.06  -0.03    -0.01   0.05   0.01     0.13  -0.06  -0.02
  66   1     0.01  -0.04  -0.03     0.00   0.02   0.03     0.04  -0.03   0.01
  67   8     0.16  -0.17  -0.07     0.20  -0.27  -0.07     0.02   0.10   0.23
  68   1     0.01  -0.01  -0.02     0.04  -0.06  -0.02    -0.01   0.02   0.05
  69   1     0.03  -0.05  -0.01     0.03  -0.05  -0.03     0.02   0.02   0.05
  70   8    -0.04   0.06   0.06     0.19   0.16  -0.08     0.09   0.01   0.00
  71   1    -0.01   0.03   0.03     0.05   0.03  -0.03     0.02   0.01   0.00
  72   1    -0.02   0.00   0.02     0.05   0.04  -0.02     0.03   0.00   0.01
  73   8    -0.05  -0.14  -0.03     0.03   0.04   0.07     0.10   0.07   0.13
  74   1     0.01  -0.02  -0.01     0.01   0.01   0.02     0.03   0.02   0.03
  75   1    -0.03  -0.03   0.00     0.01   0.02   0.01     0.03   0.01   0.03
                      4                      5                      6
                        a                      a                      a 
 Frequencies --    35.3167                36.9780                37.8663
 Red. masses --    14.3479                14.2925                14.3231
 Frc consts  --     0.0000                 0.0000                 0.0000
 IR Inten    --     1.7906                 0.0848                 0.1740
 Raman Activ --     0.0000                 0.0000                 0.0000
 Depolar     --     0.0000                 0.0000                 0.0000
 Atom AN      X      Y      Z        X      Y      Z        X      Y      Z
   1   8    -0.08   0.14   0.09     0.05  -0.24  -0.08     0.01  -0.07   0.02
   2   1    -0.02   0.02   0.01     0.02  -0.06  -0.01     0.00  -0.01   0.00
   3   1    -0.02   0.03   0.02     0.02  -0.04  -0.01     0.00   0.00   0.02
   4   8     0.16   0.03   0.02    -0.09   0.15  -0.04     0.05  -0.09   0.12
   5   1     0.03   0.01   0.02    -0.03   0.04  -0.00     0.00  -0.03   0.03
   6   1     0.04   0.01   0.01    -0.02   0.04   0.00     0.02  -0.02   0.04
   7   8    -0.15   0.01  -0.02     0.10  -0.18  -0.01    -0.01   0.05  -0.05
   8   1    -0.05   0.01  -0.00     0.03  -0.06  -0.00    -0.01   0.02  -0.02
   9   1    -0.04   0.00  -0.01     0.02  -0.04   0.01     0.01   0.01  -0.03
  10   8    -0.07  -0.00  -0.06     0.01   0.04   0.20     0.10  -0.01  -0.15
  11   1    -0.04   0.01  -0.01    -0.01   0.02   0.06     0.02   0.00  -0.04
  12   1     0.00   0.01  -0.01     0.02   0.02   0.04     0.02  -0.01  -0.02
  13   8     0.12   0.09  -0.02     0.12   0.12   0.04     0.10  -0.04   0.04
  14   1     0.04   0.02  -0.01     0.02   0.04   0.01     0.02  -0.02   0.02
  15   1     0.03   0.02  -0.01     0.04   0.02   0.01     0.02   0.00   0.02
  16   8    -0.06  -0.10   0.00    -0.07  -0.01  -0.02    -0.01  -0.13  -0.02
  17   1    -0.02  -0.00   0.01    -0.00  -0.02  -0.01    -0.00  -0.02  -0.00
  18   1    -0.02  -0.04   0.02    -0.02   0.01  -0.02    -0.00  -0.04   0.00
  19   8     0.05  -0.26  -0.13     0.06  -0.01   0.14    -0.06   0.15  -0.01
  20   1     0.00  -0.06  -0.03     0.02  -0.01   0.04    -0.01   0.04  -0.01
  21   1     0.01  -0.07  -0.03     0.01   0.01   0.05     0.01   0.03  -0.02
  22   8    -0.21   0.11   0.10    -0.26   0.09  -0.11    -0.11   0.25  -0.19
  23   1    -0.04  -0.00   0.03    -0.06   0.02  -0.02    -0.00   0.05  -0.03
  24   1    -0.07   0.03   0.04    -0.10   0.03  -0.05    -0.06   0.07  -0.06
  25   8     0.03   0.16   0.16    -0.20  -0.12  -0.18    -0.10  -0.21   0.07
  26   1    -0.00   0.04   0.03    -0.06  -0.04  -0.04    -0.02  -0.04   0.01
  27   1     0.00   0.04   0.04    -0.05  -0.01  -0.04    -0.02  -0.07   0.02
  28   8     0.15   0.09  -0.03    -0.00   0.21   0.06     0.05  -0.11   0.11
  29   1     0.03   0.03   0.01    -0.02   0.02  -0.00    -0.00  -0.04   0.03
  30   1     0.04   0.01  -0.01     0.01   0.05   0.02     0.03  -0.03   0.04
  31   8     0.09  -0.05   0.06     0.17   0.01  -0.07    -0.14  -0.00   0.05
  32   1     0.04  -0.02   0.01     0.04   0.00  -0.01    -0.02  -0.00   0.01
  33   1     0.02   0.02   0.03     0.04   0.00  -0.02    -0.04   0.00  -0.02
  34   8    -0.08   0.18   0.08    -0.02   0.14  -0.01    -0.02   0.19  -0.04
  35   1    -0.02   0.03   0.01    -0.00   0.02  -0.01     0.00   0.03  -0.02
  36   1    -0.03   0.05   0.01    -0.03   0.04  -0.01    -0.01   0.06  -0.03
  37   8    -0.05  -0.16  -0.10     0.10  -0.09   0.13    -0.04   0.11  -0.01
  38   1    -0.01  -0.04  -0.01     0.03  -0.02   0.02    -0.01   0.02  -0.00
  39   1    -0.02  -0.03  -0.02     0.03  -0.04   0.02    -0.01   0.03  -0.01
  40   8    -0.04   0.14   0.04     0.12  -0.04  -0.07     0.02   0.21   0.08
  41   1    -0.01   0.04   0.01     0.02   0.01  -0.01    -0.00   0.05   0.01
  42   1    -0.01   0.04   0.02     0.05  -0.01  -0.03     0.01   0.07   0.04
  43   8     0.09  -0.01  -0.15     0.13   0.05   0.13     0.13  -0.09   0.17
  44   1     0.01  -0.01  -0.04     0.02  -0.00   0.03     0.03  -0.02   0.01
  45   1     0.03  -0.01  -0.04     0.05  -0.00   0.03     0.03  -0.02   0.05
  46   8     0.25  -0.11  -0.03     0.05   0.03  -0.01    -0.30  -0.10   0.15
  47   1     0.05  -0.02  -0.00     0.03   0.00  -0.01    -0.07  -0.02   0.03
  48   1     0.05  -0.03  -0.02     0.02   0.01   0.01    -0.06  -0.01   0.03
  49   8    -0.14   0.13   0.03    -0.16  -0.19  -0.08    -0.05  -0.01  -0.11
  50   1    -0.04   0.03   0.01    -0.01  -0.04  -0.02    -0.00  -0.01  -0.01
  51   1    -0.04   0.03   0.01    -0.05  -0.03  -0.01    -0.02   0.02  -0.03
  52   8    -0.13  -0.01  -0.01     0.08  -0.15  -0.01    -0.06   0.15  -0.02
  53   1    -0.02  -0.02  -0.01     0.03  -0.03   0.01    -0.02   0.04  -0.01
  54   1    -0.02   0.02  -0.01     0.03  -0.03   0.00    -0.01   0.04   0.00
  55   8    -0.04  -0.08  -0.14    -0.05  -0.07   0.08     0.09  -0.08  -0.13
  56   1    -0.02  -0.01  -0.03    -0.02  -0.03   0.01     0.01  -0.02  -0.04
  57   1    -0.01  -0.02  -0.03    -0.01  -0.01   0.01     0.02  -0.01  -0.04
  58   8    -0.13  -0.12   0.17    -0.22   0.02  -0.08     0.10   0.07   0.01
  59   1    -0.03  -0.01   0.06    -0.06  -0.01  -0.04     0.00   0.01   0.02
  60   1    -0.04  -0.02   0.02    -0.03  -0.01  -0.02     0.03   0.01   0.01
  61   8     0.06  -0.01  -0.11     0.15   0.11   0.06     0.12   0.06   0.10
  62   1     0.01  -0.01  -0.03     0.03   0.02   0.02     0.03   0.02   0.00
  63   1     0.02  -0.00  -0.03     0.04   0.02   0.02     0.03  -0.00   0.04
  64   8     0.06   0.02   0.14    -0.12   0.12  -0.02    -0.08  -0.21   0.12
  65   1     0.00  -0.01   0.04    -0.01   0.03  -0.01    -0.02  -0.05   0.03
  66   1     0.04  -0.01   0.02    -0.02   0.02  -0.00    -0.05  -0.04   0.03
  67   8     0.28  -0.05   0.04     0.14   0.03  -0.04     0.05  -0.01   0.04
  68   1     0.05  -0.00   0.01     0.04   0.02  -0.01     0.02  -0.00   0.01
  69   1     0.06  -0.01   0.01     0.01   0.01  -0.01     0.01  -0.01   0.01
  70   8    -0.06  -0.10  -0.11    -0.07  -0.01   0.06     0.09  -0.02  -0.17
  71   1    -0.02  -0.02  -0.03    -0.01  -0.00   0.02     0.02   0.00  -0.04
  72   1    -0.02  -0.03  -0.02    -0.02  -0.01   0.01     0.02  -0.01  -0.04
  73   8    -0.05  -0.04  -0.04    -0.04   0.00  -0.06     0.06  -0.07  -0.18
  74   1    -0.02  -0.01  -0.02    -0.02  -0.00  -0.01     0.01  -0.02  -0.05
  75   1    -0.01  -0.02  -0.00    -0.01  -0.00  -0.01     0.01  -0.03  -0.03
                      7                      8                      9
                        a                      a                      a 
 Frequencies --    44.6100                47.4432                49.0412
 Red. masses --    14.3636                14.2682                14.4879
 Frc consts  --     0.0000                 0.0000                 0.0000
 IR Inten    --     1.9725                 1.4958                 0.6860
 Raman Activ --     0.0000                 0.0000                 0.0000
 Depolar     --     0.0000                 0.0000                 0.0000
 Atom AN      X      Y      Z        X      Y      Z        X      Y      Z
   1   8     0.08   0.12  -0.12     0.05  -0.26  -0.05    -0.07  -0.05   0.05
   2   1     0.02   0.02  -0.04     0.01  -0.03  -0.02    -0.02  -0.02   0.01
   3   1     0.01   0.01  -0.04     0.00  -0.05   0.00    -0.01  -0.01   0.01
   4   8     0.19   0.00   0.14     0.01  -0.06   0.00     0.08  -0.10  -0.08
   5   1     0.05  -0.00   0.03     0.00   0.00   0.02     0.02  -0.02  -0.02
   6   1     0.04  -0.00   0.03     0.00  -0.02  -0.01     0.02  -0.02  -0.02
   7   8     0.05  -0.09  -0.14     0.06   0.09  -0.17    -0.11  -0.15   0.03
   8   1    -0.00  -0.01  -0.03     0.00   0.04  -0.05    -0.03  -0.03   0.01
   9   1    -0.01  -0.03  -0.03    -0.00   0.01  -0.05    -0.03  -0.04   0.01
  10   8    -0.11  -0.06  -0.06    -0.25  -0.05  -0.21    -0.12  -0.10   0.08
  11   1    -0.04   0.00  -0.01    -0.07  -0.02  -0.04    -0.03  -0.02   0.01
  12   1    -0.01  -0.01  -0.00    -0.05  -0.01  -0.06    -0.01  -0.02   0.01
  13   8     0.06   0.01   0.04    -0.11   0.02  -0.20     0.05  -0.01  -0.06
  14   1     0.02   0.01   0.01    -0.02  -0.02  -0.04     0.01  -0.00  -0.01
  15   1     0.00   0.00   0.01    -0.01   0.01  -0.04     0.02  -0.01  -0.01
  16   8     0.06   0.11  -0.13    -0.06   0.02   0.03     0.06   0.05   0.12
  17   1     0.02   0.03  -0.03    -0.00  -0.02   0.00     0.01   0.01   0.03
  18   1     0.01   0.03  -0.04    -0.02   0.02  -0.01     0.02   0.02   0.03
  19   8    -0.04   0.24   0.29     0.10   0.04  -0.09    -0.13  -0.03   0.09
  20   1     0.02   0.03   0.06     0.03   0.01  -0.03    -0.04  -0.01   0.03
  21   1     0.01   0.07   0.08     0.04   0.00  -0.03    -0.04  -0.00   0.03
  22   8    -0.01  -0.08   0.13     0.01  -0.05   0.04     0.09  -0.12   0.14
  23   1    -0.01  -0.02   0.03     0.01  -0.00   0.02     0.01  -0.03   0.02
  24   1     0.02  -0.02   0.05    -0.01  -0.01  -0.01     0.01  -0.03   0.03
  25   8    -0.00  -0.01  -0.01     0.03  -0.09   0.00     0.10   0.01  -0.08
  26   1     0.01   0.00  -0.00    -0.00  -0.05   0.03     0.03  -0.00  -0.01
  27   1     0.01  -0.01  -0.00     0.01  -0.00   0.03     0.03  -0.00  -0.02
  28   8     0.08   0.04  -0.00    -0.07  -0.22  -0.05     0.05  -0.01  -0.05
  29   1     0.02   0.00  -0.00    -0.01  -0.05  -0.02     0.02  -0.00  -0.02
  30   1     0.02   0.01  -0.01    -0.02  -0.03   0.01     0.01   0.01  -0.01
  31   8     0.14  -0.15  -0.25     0.20   0.07   0.01    -0.11   0.00   0.02
  32   1     0.04  -0.02  -0.03     0.03   0.01  -0.01    -0.01  -0.01  -0.01
  33   1     0.03  -0.05  -0.10     0.05   0.01   0.01    -0.03   0.02   0.01
  34   8    -0.13  -0.08   0.04    -0.00  -0.03   0.00    -0.04   0.15  -0.39
  35   1    -0.03  -0.01   0.01    -0.01  -0.01   0.00    -0.00   0.07  -0.09
  36   1    -0.02  -0.02   0.02     0.02  -0.01   0.00     0.03   0.02  -0.08
  37   8     0.25  -0.12   0.17     0.14   0.05  -0.11    -0.17  -0.06   0.11
  38   1     0.05  -0.04   0.01     0.04   0.02  -0.02    -0.04  -0.01   0.02
  39   1     0.06  -0.04   0.03     0.03   0.01  -0.03    -0.04  -0.03   0.02
  40   8    -0.18  -0.06   0.01    -0.10   0.13   0.13     0.05   0.24   0.04
  41   1    -0.04  -0.02   0.01    -0.02   0.01   0.01    -0.00   0.05  -0.04
  42   1    -0.05  -0.01   0.01    -0.04   0.06   0.08     0.03   0.09   0.04
  43   8    -0.02   0.03  -0.12     0.01  -0.00   0.16     0.06   0.09   0.02
  44   1    -0.01   0.01  -0.03    -0.01  -0.01   0.04     0.01   0.02   0.02
  45   1    -0.00   0.00  -0.04     0.02  -0.01   0.06     0.02   0.02   0.01
  46   8    -0.31   0.06  -0.02     0.19   0.08   0.01    -0.07   0.05  -0.00
  47   1    -0.04   0.00  -0.03     0.05   0.03  -0.00    -0.02   0.01   0.00
  48   1    -0.07   0.02   0.03     0.04   0.02  -0.00    -0.03   0.00   0.01
  49   8     0.04   0.05  -0.01     0.03  -0.23   0.08     0.11  -0.07   0.05
  50   1     0.01   0.01  -0.01     0.03  -0.05   0.01     0.01  -0.02   0.01
  51   1     0.01   0.01   0.00     0.01  -0.05   0.02     0.03  -0.04   0.02
  52   8    -0.12   0.10  -0.08    -0.10   0.23  -0.07    -0.14  -0.02   0.02
  53   1    -0.03   0.04   0.01    -0.02   0.05  -0.02    -0.02  -0.01   0.01
  54   1    -0.04   0.01  -0.01    -0.02   0.06  -0.01    -0.02   0.01   0.01
  55   8    -0.05   0.01  -0.07    -0.16  -0.10   0.17    -0.02   0.03   0.11
  56   1    -0.01   0.01  -0.01    -0.03  -0.04   0.04     0.01   0.00   0.03
  57   1    -0.02  -0.00  -0.01    -0.04  -0.02   0.04    -0.02   0.00   0.04
  58   8    -0.09  -0.02   0.06     0.03   0.06   0.10    -0.05  -0.06   0.02
  59   1    -0.01   0.01   0.02     0.02   0.02   0.03     0.01  -0.01  -0.00
  60   1    -0.03   0.00  -0.00    -0.00   0.02   0.02    -0.03  -0.01   0.01
  61   8    -0.07  -0.00  -0.06     0.09   0.12  -0.00     0.12  -0.00   0.00
  62   1    -0.02  -0.00  -0.01     0.02   0.03   0.00     0.03  -0.01   0.02
  63   1    -0.01   0.00  -0.02     0.02   0.02   0.01     0.03   0.01  -0.00
  64   8     0.10  -0.13   0.07     0.08   0.15   0.17     0.12  -0.06  -0.09
  65   1     0.05  -0.06   0.02     0.01   0.04   0.05     0.04  -0.02  -0.02
  66   1    -0.02  -0.01   0.01     0.03   0.03   0.03     0.01  -0.01  -0.02
  67   8     0.18   0.02   0.12    -0.01   0.03  -0.06     0.04  -0.05  -0.10
  68   1     0.03   0.02   0.03    -0.02   0.01  -0.02     0.01  -0.01  -0.02
  69   1     0.05  -0.00   0.04     0.01   0.00  -0.01     0.01  -0.02  -0.02
  70   8    -0.09  -0.01  -0.04    -0.08   0.00   0.03    -0.04  -0.05   0.20
  71   1    -0.02  -0.01  -0.01    -0.04  -0.01  -0.02    -0.01  -0.02   0.04
  72   1    -0.01   0.00  -0.01    -0.02   0.00   0.01    -0.01  -0.01   0.05
  73   8    -0.01   0.04   0.06    -0.09   0.01   0.05     0.13   0.33  -0.30
  74   1    -0.01   0.01   0.01    -0.03  -0.00   0.02     0.00   0.06  -0.05
  75   1     0.01   0.02  -0.00    -0.02   0.00   0.01     0.02   0.06  -0.05
                     10                     11                     12
                        a                      a                      a 
 Frequencies --    51.7506                52.6413                56.7948
 Red. masses --    14.4407                14.3544                14.5901
 Frc consts  --     0.0000                 0.0000                 0.0000
 IR Inten    --     1.0635                 0.0989                 0.5857
 Raman Activ --     0.0000                 0.0000                 0.0000
 Depolar     --     0.0000                 0.0000                 0.0000
 Atom AN      X      Y      Z        X      Y      Z        X      Y      Z
   1   8     0.19   0.23   0.00    -0.08  -0.15  -0.03    -0.17   0.03  -0.13
   2   1     0.04   0.04  -0.01    -0.01  -0.01   0.01    -0.04   0.03  -0.02
   3   1     0.04   0.03  -0.01    -0.01  -0.03  -0.01    -0.04   0.00  -0.04
   4   8    -0.05  -0.03  -0.11     0.18  -0.05  -0.02    -0.08   0.23   0.10
   5   1    -0.02  -0.01  -0.02     0.03  -0.01   0.01    -0.03   0.05   0.03
   6   1    -0.00  -0.01  -0.02     0.06  -0.03  -0.01    -0.01   0.04   0.02
   7   8     0.10   0.02  -0.11     0.07   0.18   0.18    -0.02   0.21   0.11
   8   1     0.03  -0.00  -0.02     0.04   0.03   0.04     0.01   0.05   0.03
   9   1     0.00   0.01  -0.01     0.03   0.05   0.05    -0.00   0.05   0.03
  10   8    -0.22   0.08   0.08     0.08   0.08   0.07     0.02   0.10   0.02
  11   1    -0.06   0.02   0.03     0.02  -0.01   0.04     0.02   0.01   0.01
  12   1    -0.05   0.03  -0.00     0.01   0.02  -0.02    -0.01   0.02  -0.00
  13   8    -0.14   0.16  -0.16    -0.00   0.07  -0.21    -0.15   0.03  -0.01
  14   1    -0.03   0.03  -0.04     0.01   0.01  -0.05    -0.03   0.00  -0.01
  15   1    -0.01   0.03  -0.04     0.00   0.01  -0.05    -0.03  -0.01  -0.01
  16   8    -0.09  -0.00  -0.17     0.02   0.10   0.10     0.24  -0.04  -0.03
  17   1     0.01   0.01  -0.02    -0.00   0.01   0.01     0.03  -0.00  -0.01
  18   1    -0.06  -0.01  -0.05     0.02   0.04   0.02     0.07  -0.01   0.00
  19   8     0.05   0.05   0.01    -0.05   0.03   0.03     0.12  -0.03  -0.03
  20   1     0.01   0.03   0.00    -0.01   0.02   0.00     0.03  -0.01  -0.01
  21   1     0.03  -0.00  -0.02    -0.02   0.00  -0.00     0.03  -0.01  -0.01
  22   8     0.06  -0.05   0.28    -0.10   0.05  -0.04    -0.06  -0.16   0.10
  23   1    -0.01  -0.02   0.05    -0.01   0.00   0.00    -0.02  -0.01   0.03
  24   1     0.04  -0.02   0.11    -0.04   0.02  -0.02     0.01  -0.05   0.01
  25   8    -0.12  -0.08   0.01     0.00  -0.13   0.13    -0.13  -0.05   0.07
  26   1    -0.01  -0.01   0.00    -0.01  -0.04   0.04    -0.03  -0.02   0.02
  27   1    -0.03  -0.03  -0.01    -0.00  -0.02   0.04    -0.03  -0.01   0.02
  28   8    -0.00  -0.05  -0.09     0.12  -0.18  -0.09    -0.05  -0.06  -0.02
  29   1    -0.01  -0.02  -0.02     0.03  -0.04  -0.02    -0.02  -0.02   0.00
  30   1     0.01  -0.02  -0.01     0.03  -0.04  -0.02    -0.00  -0.03  -0.01
  31   8    -0.00   0.09   0.21    -0.05   0.09  -0.03     0.08  -0.04  -0.08
  32   1     0.00   0.01   0.03     0.00   0.02  -0.01     0.01   0.01   0.01
  33   1    -0.00   0.02   0.04    -0.01   0.03  -0.02     0.02  -0.02  -0.02
  34   8     0.04   0.07   0.02    -0.02   0.08  -0.01    -0.10  -0.00  -0.22
  35   1     0.01   0.01   0.00    -0.01   0.03   0.00    -0.00   0.02  -0.05
  36   1     0.00   0.01   0.01    -0.02   0.01   0.01    -0.02  -0.01  -0.04
  37   8     0.03   0.17   0.02     0.01   0.14  -0.02     0.13  -0.02  -0.04
  38   1     0.01   0.05   0.01    -0.00   0.03  -0.01     0.02  -0.02  -0.01
  39   1     0.01   0.03  -0.00     0.01   0.05   0.01     0.03   0.02   0.00
  40   8     0.15  -0.08  -0.03     0.11  -0.15  -0.14    -0.11   0.03  -0.18
  41   1     0.03  -0.01   0.00     0.01  -0.02  -0.02    -0.03   0.00  -0.05
  42   1     0.05  -0.02  -0.01     0.05  -0.05  -0.08    -0.03   0.01  -0.05
  43   8     0.12  -0.08   0.00    -0.11   0.05  -0.20     0.02  -0.20  -0.00
  44   1     0.03  -0.02  -0.01    -0.04   0.01  -0.03     0.02  -0.04   0.00
  45   1     0.03  -0.02   0.00    -0.02   0.01  -0.04    -0.01  -0.04  -0.01
  46   8    -0.07  -0.09   0.29    -0.15  -0.04   0.05     0.04  -0.07  -0.07
  47   1    -0.02  -0.02   0.07    -0.03   0.00   0.01     0.02  -0.02  -0.02
  48   1    -0.01  -0.01   0.05    -0.03  -0.01   0.01     0.02  -0.01  -0.02
  49   8     0.14   0.12   0.10    -0.08  -0.11   0.03    -0.05  -0.02   0.05
  50   1     0.05   0.03   0.02    -0.01  -0.02   0.00    -0.02   0.00   0.00
  51   1     0.03   0.03   0.04    -0.02  -0.01   0.00    -0.02  -0.02   0.03
  52   8     0.09  -0.10  -0.11     0.21  -0.16   0.17     0.05   0.09   0.10
  53   1     0.02  -0.02  -0.02     0.03  -0.03   0.03     0.01   0.01   0.01
  54   1     0.03  -0.03  -0.01     0.04  -0.05   0.03     0.00   0.03   0.00
  55   8     0.10  -0.09  -0.10    -0.21  -0.00   0.08     0.14  -0.12   0.02
  56   1     0.04  -0.01  -0.01    -0.05  -0.01   0.01     0.03  -0.02   0.01
  57   1     0.00  -0.03  -0.01    -0.04  -0.00   0.01     0.04  -0.03   0.01
  58   8    -0.15  -0.09   0.04     0.08  -0.09   0.13    -0.08   0.13   0.12
  59   1    -0.04  -0.02   0.00     0.00  -0.03   0.04    -0.02   0.02   0.02
  60   1    -0.02  -0.03  -0.01     0.04  -0.03   0.04    -0.01   0.03   0.04
  61   8     0.07   0.05  -0.05    -0.03   0.02  -0.27     0.02  -0.20   0.00
  62   1     0.00  -0.00  -0.00    -0.01   0.00  -0.05     0.00  -0.05   0.00
  63   1     0.02  -0.00  -0.00    -0.01   0.01  -0.07     0.01  -0.05   0.00
  64   8    -0.16  -0.07  -0.02    -0.00  -0.10   0.15    -0.19   0.08   0.06
  65   1    -0.03   0.01  -0.02    -0.01  -0.03   0.04    -0.05   0.01   0.02
  66   1    -0.03  -0.02   0.03    -0.02  -0.02   0.03    -0.03   0.01   0.00
  67   8    -0.00  -0.04  -0.09     0.12   0.06  -0.09    -0.03   0.10   0.19
  68   1    -0.02  -0.00  -0.03     0.01   0.02  -0.03    -0.02   0.02   0.04
  69   1    -0.00  -0.00  -0.03     0.04   0.01  -0.02    -0.01   0.03   0.04
  70   8    -0.15  -0.06   0.07    -0.04   0.02  -0.06     0.13  -0.12   0.05
  71   1    -0.04  -0.01   0.02    -0.01   0.01  -0.01     0.03  -0.02   0.01
  72   1    -0.05  -0.02   0.01    -0.00   0.01  -0.00     0.03  -0.03   0.01
  73   8     0.04  -0.11  -0.10    -0.07   0.19   0.08     0.23   0.10  -0.19
  74   1     0.01  -0.03  -0.03    -0.03   0.04   0.03     0.03   0.01  -0.03
  75   1     0.02  -0.02  -0.03    -0.01   0.04   0.02     0.06   0.01  -0.04
                     13                     14                     15
                        a                      a                      a 
 Frequencies --    57.6356                60.5659                63.4855
 Red. masses --    14.3594                14.5482                14.4684
 Frc consts  --     0.0000                 0.0000                 0.0000
 IR Inten    --     1.4368                 0.7289                 0.3027
 Raman Activ --     0.0000                 0.0000                 0.0000
 Depolar     --     0.0000                 0.0000                 0.0000
 Atom AN      X      Y      Z        X      Y      Z        X      Y      Z
   1   8     0.16   0.00  -0.01     0.09   0.14   0.08     0.04  -0.14   0.02
   2   1     0.04   0.00   0.01     0.02   0.02   0.01     0.01  -0.01   0.00
   3   1     0.04  -0.02  -0.01     0.02   0.01   0.01    -0.00  -0.03   0.01
   4   8    -0.03  -0.02   0.00    -0.04   0.21   0.13    -0.15   0.01  -0.10
   5   1    -0.01  -0.01  -0.00    -0.02   0.04   0.03    -0.04  -0.00  -0.03
   6   1    -0.01  -0.00   0.00    -0.00   0.04   0.03    -0.04   0.02  -0.01
   7   8     0.21   0.03   0.06     0.01  -0.09  -0.04     0.05   0.12  -0.04
   8   1     0.04  -0.00   0.03    -0.01  -0.02  -0.01     0.01   0.03  -0.01
   9   1     0.07   0.01   0.01    -0.01  -0.02  -0.01     0.02   0.03  -0.02
  10   8     0.37   0.00  -0.01    -0.02  -0.07  -0.01    -0.04   0.06  -0.05
  11   1     0.11  -0.02  -0.00    -0.01  -0.01  -0.00    -0.05   0.03   0.02
  12   1     0.07  -0.01   0.00     0.01  -0.01  -0.01     0.02   0.02   0.02
  13   8     0.12  -0.14   0.04     0.12   0.02  -0.12     0.17   0.12   0.25
  14   1     0.02  -0.02   0.01     0.02   0.01  -0.03     0.04   0.04   0.06
  15   1     0.01  -0.02   0.01     0.04  -0.00  -0.03     0.02   0.03   0.06
  16   8    -0.20  -0.12  -0.20     0.05  -0.08  -0.02     0.15   0.08   0.14
  17   1    -0.02  -0.02  -0.04     0.02  -0.01   0.00     0.03   0.01   0.03
  18   1    -0.04  -0.04  -0.04     0.03  -0.03   0.01     0.06   0.03   0.03
  19   8    -0.07  -0.08   0.02    -0.07  -0.08  -0.10     0.02   0.07  -0.09
  20   1    -0.01  -0.00  -0.01    -0.02  -0.01  -0.03     0.01   0.02  -0.02
  21   1    -0.03  -0.03  -0.01    -0.01  -0.02  -0.03     0.02   0.01  -0.04
  22   8    -0.04  -0.14   0.21     0.30   0.04  -0.12     0.04  -0.20   0.07
  23   1    -0.02  -0.03   0.05     0.06   0.02  -0.04     0.00  -0.03   0.01
  24   1     0.01  -0.04   0.06     0.11   0.00  -0.02     0.04  -0.06   0.02
  25   8     0.00   0.01  -0.04    -0.23  -0.06   0.02     0.05  -0.01   0.00
  26   1     0.01   0.00  -0.01    -0.05  -0.02   0.01     0.01   0.00  -0.00
  27   1     0.00   0.00  -0.01    -0.05  -0.01   0.01     0.00  -0.00  -0.01
  28   8    -0.04   0.01   0.02    -0.09   0.04   0.01     0.10   0.24   0.23
  29   1    -0.00   0.01   0.00    -0.03   0.00  -0.00     0.02   0.05   0.05
  30   1    -0.02   0.01   0.00    -0.02   0.01   0.01     0.02   0.04   0.04
  31   8     0.09   0.08   0.04     0.04   0.01   0.03    -0.10  -0.08   0.14
  32   1     0.01   0.02   0.00     0.04   0.00   0.02    -0.01  -0.03   0.02
  33   1     0.03   0.01   0.01     0.00   0.02  -0.01    -0.03  -0.01   0.02
  34   8    -0.24  -0.01  -0.20    -0.05  -0.13  -0.11     0.04  -0.10  -0.06
  35   1    -0.07  -0.00  -0.05    -0.03  -0.02  -0.02     0.01  -0.00  -0.01
  36   1    -0.04  -0.00  -0.04     0.02  -0.03  -0.02     0.02  -0.04   0.00
  37   8     0.07   0.10  -0.08    -0.07  -0.06  -0.11     0.05   0.10  -0.10
  38   1     0.03   0.03  -0.02    -0.01  -0.00  -0.02     0.00   0.02  -0.01
  39   1     0.03   0.02  -0.01    -0.01  -0.02  -0.02     0.01   0.04  -0.02
  40   8    -0.07  -0.01   0.20    -0.01  -0.05   0.12     0.00  -0.01   0.08
  41   1    -0.03  -0.00   0.02    -0.01  -0.02   0.01     0.00  -0.01   0.00
  42   1    -0.00   0.04   0.09    -0.00  -0.00   0.05    -0.00   0.01   0.04
  43   8    -0.10   0.04  -0.01    -0.13   0.08   0.00    -0.05  -0.06  -0.04
  44   1    -0.02   0.01   0.00    -0.03   0.02   0.01    -0.03  -0.03  -0.02
  45   1    -0.03   0.01   0.00    -0.03   0.02   0.01     0.01  -0.03  -0.02
  46   8     0.05   0.00   0.06    -0.05  -0.10   0.09    -0.01  -0.01   0.09
  47   1     0.01   0.01   0.02    -0.01  -0.02   0.02    -0.02  -0.01   0.03
  48   1     0.00  -0.01   0.02    -0.01  -0.02   0.01     0.00   0.00   0.01
  49   8     0.05  -0.01   0.03     0.01   0.06   0.15     0.05  -0.09  -0.00
  50   1     0.03   0.00   0.00     0.01   0.02   0.03     0.02  -0.02   0.01
  51   1     0.00  -0.00   0.02     0.02   0.02   0.01     0.01  -0.01  -0.00
  52   8    -0.04  -0.02   0.18    -0.05  -0.02  -0.01     0.01   0.09  -0.00
  53   1    -0.01  -0.01   0.03    -0.02  -0.00  -0.00    -0.00   0.02  -0.01
  54   1    -0.01  -0.00   0.04    -0.01  -0.01   0.00     0.00   0.02   0.00
  55   8    -0.05   0.06   0.04    -0.16   0.07   0.13    -0.24  -0.16  -0.14
  56   1    -0.01   0.01   0.01    -0.03   0.02   0.04    -0.05  -0.05  -0.04
  57   1    -0.00   0.02   0.00    -0.03   0.00   0.03    -0.06  -0.04  -0.04
  58   8    -0.15   0.05   0.13     0.16   0.08  -0.28    -0.00   0.04   0.05
  59   1    -0.02   0.01   0.01     0.02   0.01  -0.07     0.01   0.01  -0.00
  60   1    -0.04   0.01   0.04     0.04   0.01  -0.05    -0.00   0.01   0.02
  61   8    -0.07   0.03  -0.03     0.14  -0.06  -0.15    -0.10   0.02  -0.00
  62   1    -0.00   0.02  -0.03     0.04  -0.02  -0.01    -0.04   0.01  -0.02
  63   1    -0.02   0.01  -0.01     0.02  -0.00  -0.04    -0.01  -0.00  -0.01
  64   8     0.03   0.00  -0.03    -0.21   0.01   0.10    -0.12   0.02  -0.17
  65   1     0.02   0.00  -0.01    -0.04  -0.00   0.02    -0.03   0.03  -0.05
  66   1     0.01  -0.00   0.00    -0.04  -0.00   0.02    -0.02   0.00  -0.02
  67   8    -0.03   0.03  -0.04     0.33   0.04   0.11     0.13  -0.16  -0.06
  68   1     0.02  -0.01  -0.00     0.07   0.02   0.02     0.05  -0.03  -0.00
  69   1    -0.01   0.01  -0.01     0.05   0.02   0.02    -0.00  -0.03  -0.02
  70   8     0.14   0.15  -0.16     0.05  -0.09   0.08    -0.14  -0.13  -0.27
  71   1     0.04   0.03  -0.03     0.01  -0.03   0.01    -0.04  -0.03  -0.07
  72   1     0.02   0.03  -0.06     0.01  -0.02   0.02    -0.02  -0.03  -0.03
  73   8    -0.20  -0.04  -0.23    -0.13   0.09   0.02     0.07   0.17   0.06
  74   1    -0.05  -0.01  -0.05    -0.04   0.01   0.01    -0.01   0.03   0.01
  75   1    -0.05  -0.01  -0.06    -0.02   0.02  -0.01     0.03   0.03   0.02
                     16                     17                     18
                        a                      a                      a 
 Frequencies --    63.9903                66.8985                68.6013
 Red. masses --    14.6068                14.4316                14.6312
 Frc consts  --     0.0000                 0.0000                 0.0000
 IR Inten    --     1.0995                 0.3985                 3.9642
 Raman Activ --     0.0000                 0.0000                 0.0000
 Depolar     --     0.0000                 0.0000                 0.0000
 Atom AN      X      Y      Z        X      Y      Z        X      Y      Z
   1   8    -0.02  -0.12   0.12    -0.03   0.02   0.04    -0.14   0.09  -0.08
   2   1    -0.01  -0.03   0.03    -0.01  -0.00   0.01    -0.03   0.01  -0.01
   3   1     0.00  -0.00   0.04    -0.00   0.02   0.01    -0.02   0.04  -0.02
   4   8     0.03   0.38  -0.05    -0.04  -0.14   0.19     0.03   0.02   0.01
   5   1    -0.01   0.08  -0.01     0.01  -0.02   0.05    -0.00  -0.02  -0.02
   6   1     0.02   0.06  -0.03    -0.03  -0.01   0.05     0.01   0.00   0.01
   7   8    -0.08   0.01  -0.03    -0.05   0.07  -0.02    -0.07  -0.03   0.12
   8   1    -0.02   0.01  -0.01     0.00   0.02  -0.02    -0.02   0.01   0.02
   9   1    -0.00  -0.00  -0.02    -0.01   0.01  -0.01    -0.02  -0.02   0.01
  10   8     0.06  -0.01  -0.12     0.01   0.02  -0.08    -0.02  -0.22  -0.06
  11   1     0.03  -0.01  -0.04    -0.00   0.01  -0.02    -0.02  -0.04  -0.01
  12   1    -0.00  -0.01  -0.02     0.01   0.01  -0.01     0.02  -0.05  -0.01
  13   8    -0.07  -0.09  -0.03     0.04   0.04  -0.02     0.22  -0.12   0.02
  14   1    -0.00  -0.03  -0.01    -0.01   0.02  -0.00     0.05  -0.02   0.00
  15   1    -0.03  -0.01  -0.01     0.02   0.00  -0.00     0.05  -0.02   0.00
  16   8    -0.25   0.01   0.10    -0.02  -0.27  -0.05    -0.03   0.01  -0.08
  17   1    -0.05  -0.00   0.03    -0.01  -0.05  -0.00    -0.02   0.01  -0.02
  18   1    -0.07   0.01   0.02     0.00  -0.08   0.01    -0.01  -0.00  -0.02
  19   8     0.05   0.05  -0.01     0.01   0.25  -0.09     0.22  -0.10   0.03
  20   1     0.01  -0.00   0.00    -0.00   0.05  -0.02     0.03  -0.02   0.02
  21   1     0.02   0.02   0.01     0.01   0.07  -0.01     0.07  -0.03   0.00
  22   8     0.01  -0.16   0.11    -0.05  -0.16   0.14     0.01  -0.18   0.07
  23   1    -0.00  -0.04   0.02    -0.02  -0.03   0.03    -0.01  -0.01   0.02
  24   1     0.01  -0.04   0.03    -0.00  -0.04   0.03     0.04  -0.05   0.01
  25   8     0.02  -0.12   0.01    -0.01   0.17  -0.03    -0.07  -0.05  -0.02
  26   1     0.01  -0.03   0.01    -0.00   0.04  -0.00     0.00  -0.00  -0.00
  27   1    -0.01  -0.02  -0.01     0.01   0.04   0.00    -0.02  -0.03  -0.02
  28   8     0.10  -0.16  -0.11    -0.20   0.12   0.08     0.03   0.02   0.02
  29   1     0.02  -0.04  -0.02    -0.04   0.03   0.01     0.01   0.00   0.00
  30   1     0.03  -0.03  -0.02    -0.06   0.04   0.02     0.01   0.01   0.01
  31   8    -0.13  -0.19  -0.02    -0.17  -0.07  -0.07     0.09   0.24  -0.06
  32   1    -0.01  -0.03   0.03    -0.02  -0.02  -0.02     0.01   0.06  -0.02
  33   1    -0.04  -0.03  -0.02    -0.04   0.00  -0.02     0.02   0.06  -0.01
  34   8     0.26   0.04  -0.01     0.22   0.07  -0.04     0.27  -0.03   0.05
  35   1     0.04   0.00  -0.00     0.02   0.01  -0.01     0.04  -0.00   0.02
  36   1     0.05   0.01  -0.00     0.02   0.01  -0.00     0.04  -0.02   0.02
  37   8     0.02  -0.09   0.02    -0.04   0.05  -0.03    -0.08   0.03   0.17
  38   1    -0.01  -0.04   0.00    -0.02  -0.00  -0.01    -0.01   0.02   0.04
  39   1    -0.01  -0.01   0.00    -0.02   0.02  -0.01    -0.02  -0.01   0.04
  40   8     0.19   0.14   0.05     0.25  -0.02  -0.16    -0.02   0.18  -0.18
  41   1     0.05   0.02   0.00     0.06   0.00  -0.03     0.02   0.02  -0.03
  42   1     0.04   0.04   0.02     0.07  -0.03  -0.08    -0.04   0.01  -0.06
  43   8     0.02   0.06  -0.08    -0.13  -0.01   0.12     0.02   0.09   0.02
  44   1     0.01   0.02  -0.01    -0.03  -0.00   0.03    -0.01   0.01   0.00
  45   1     0.00   0.02  -0.02    -0.03  -0.00   0.04     0.01   0.02   0.01
  46   8    -0.07  -0.02  -0.08    -0.08   0.16  -0.13    -0.01  -0.25   0.04
  47   1    -0.03  -0.03  -0.01    -0.03   0.03  -0.03     0.01  -0.04  -0.00
  48   1    -0.00   0.01  -0.02    -0.02   0.04  -0.03     0.01  -0.05   0.00
  49   8     0.06  -0.04  -0.02    -0.05   0.00   0.07    -0.02   0.02   0.01
  50   1     0.01  -0.01   0.00    -0.01   0.01   0.01    -0.02   0.01  -0.01
  51   1     0.01  -0.02   0.00    -0.02  -0.01   0.02    -0.00  -0.01   0.00
  52   8     0.03   0.01  -0.08     0.19  -0.00  -0.13     0.03   0.15   0.06
  53   1     0.01  -0.00  -0.02     0.04   0.01  -0.03     0.02   0.02   0.01
  54   1     0.02   0.01  -0.01     0.05  -0.00  -0.02     0.01   0.05  -0.00
  55   8     0.05   0.06   0.05    -0.09   0.01   0.08    -0.12   0.01  -0.01
  56   1     0.01   0.01   0.01    -0.02   0.00   0.02    -0.03   0.00   0.00
  57   1     0.01   0.02   0.01    -0.01  -0.01   0.02    -0.03  -0.00   0.00
  58   8    -0.05  -0.08   0.07    -0.14   0.01   0.06    -0.06   0.21   0.06
  59   1    -0.00  -0.02   0.01    -0.02   0.01   0.01    -0.01   0.04  -0.01
  60   1    -0.01  -0.02   0.01    -0.03   0.01  -0.01    -0.01   0.05   0.03
  61   8    -0.14   0.12   0.01     0.13  -0.11  -0.03     0.08   0.02  -0.01
  62   1    -0.03   0.04  -0.01     0.04  -0.03   0.00     0.02   0.01   0.00
  63   1    -0.03   0.03   0.00     0.02  -0.02  -0.00     0.02   0.01  -0.01
  64   8    -0.21   0.06  -0.16     0.20   0.03   0.12    -0.08  -0.23  -0.12
  65   1    -0.05   0.01  -0.04     0.07  -0.03   0.04    -0.01  -0.05  -0.04
  66   1    -0.05   0.01  -0.04     0.02   0.02   0.01    -0.01  -0.06  -0.01
  67   8     0.16  -0.03   0.29     0.12  -0.05   0.01    -0.12   0.22  -0.13
  68   1     0.02  -0.02   0.05     0.03   0.00   0.01     0.01   0.04  -0.02
  69   1     0.03   0.02   0.05     0.02  -0.02   0.02    -0.02   0.05  -0.03
  70   8     0.01   0.21  -0.03     0.13  -0.12   0.01    -0.06  -0.04  -0.04
  71   1     0.00   0.05  -0.01     0.02  -0.03  -0.01    -0.01  -0.03  -0.02
  72   1    -0.00   0.05  -0.01     0.02  -0.04   0.00    -0.01  -0.00  -0.02
  73   8    -0.06  -0.07  -0.01    -0.17  -0.07  -0.03    -0.14  -0.04   0.13
  74   1    -0.00  -0.01   0.00    -0.05  -0.02  -0.01    -0.03  -0.01   0.02
  75   1    -0.04  -0.02   0.01    -0.04  -0.03  -0.01    -0.02  -0.01   0.02
                     19                     20                     21
                        a                      a                      a 
 Frequencies --    70.4428                72.3177                74.6692
 Red. masses --    14.4556                14.5033                14.3644
 Frc consts  --     0.0000                 0.0000                 0.0000
 IR Inten    --     2.8458                 1.9360                 1.0257
 Raman Activ --     0.0000                 0.0000                 0.0000
 Depolar     --     0.0000                 0.0000                 0.0000
 Atom AN      X      Y      Z        X      Y      Z        X      Y      Z
   1   8    -0.02  -0.01   0.26     0.03  -0.07  -0.13     0.02   0.12  -0.07
   2   1    -0.01  -0.01   0.04     0.01  -0.02  -0.03     0.01   0.01  -0.01
   3   1    -0.02   0.00   0.07     0.02   0.02  -0.02     0.02   0.04  -0.02
   4   8    -0.09  -0.06   0.11     0.00  -0.15  -0.07    -0.03  -0.03   0.12
   5   1    -0.02  -0.02   0.02    -0.01  -0.02   0.00     0.00   0.01   0.04
   6   1    -0.02  -0.01   0.03     0.00  -0.02   0.00    -0.02  -0.00   0.02
   7   8    -0.15   0.04  -0.08     0.04  -0.10  -0.09     0.06  -0.07   0.12
   8   1    -0.04   0.00  -0.01     0.00  -0.03  -0.01     0.01  -0.03   0.04
   9   1    -0.02   0.01  -0.02     0.01  -0.01  -0.01     0.02  -0.01   0.04
  10   8     0.07   0.17  -0.08     0.07   0.19   0.18     0.12  -0.05   0.09
  11   1     0.03   0.04  -0.03     0.03   0.06   0.03     0.03  -0.04   0.04
  12   1     0.01   0.04  -0.02     0.02   0.05   0.05     0.02  -0.01   0.00
  13   8    -0.06   0.13  -0.08    -0.01   0.16   0.10     0.00  -0.08  -0.13
  14   1    -0.02   0.02  -0.01     0.00   0.05   0.02    -0.01  -0.01  -0.03
  15   1    -0.01   0.03  -0.02    -0.01   0.02   0.01    -0.00  -0.01  -0.03
  16   8     0.01  -0.06   0.26    -0.03  -0.01  -0.12    -0.02   0.24  -0.07
  17   1    -0.00  -0.01   0.07    -0.00  -0.01  -0.03    -0.01   0.06  -0.02
  18   1     0.02  -0.02   0.08    -0.02   0.00  -0.04    -0.03   0.06  -0.03
  19   8     0.06  -0.06   0.18    -0.08   0.01  -0.02    -0.25  -0.09   0.05
  20   1     0.01  -0.02   0.05    -0.02   0.00  -0.01    -0.05  -0.02   0.00
  21   1     0.02  -0.01   0.05    -0.03   0.00  -0.01    -0.12  -0.01   0.03
  22   8     0.01  -0.15  -0.04    -0.01  -0.16  -0.08     0.08  -0.08   0.02
  23   1    -0.00  -0.05  -0.01     0.00  -0.03  -0.01     0.01  -0.01  -0.00
  24   1     0.02  -0.04   0.02    -0.01  -0.04  -0.04     0.04  -0.02   0.00
  25   8    -0.05  -0.03   0.02    -0.08  -0.08   0.09    -0.09   0.02  -0.06
  26   1    -0.01   0.00  -0.01    -0.03  -0.03   0.02    -0.02   0.00  -0.01
  27   1    -0.01  -0.02   0.01    -0.02  -0.01   0.03    -0.01   0.01   0.00
  28   8    -0.12  -0.02   0.09     0.13   0.10   0.08    -0.17  -0.05  -0.05
  29   1    -0.03  -0.01   0.02     0.02   0.01   0.02    -0.04  -0.01  -0.01
  30   1    -0.03  -0.01   0.02     0.03  -0.00   0.00    -0.03  -0.01  -0.01
  31   8     0.27   0.17  -0.14     0.06   0.01   0.02    -0.03  -0.02  -0.03
  32   1     0.04   0.05  -0.03     0.01  -0.01  -0.01     0.00  -0.01  -0.01
  33   1     0.07   0.03  -0.03     0.02  -0.01   0.00    -0.01   0.01  -0.00
  34   8     0.08  -0.07  -0.09     0.30  -0.04  -0.01     0.25  -0.01   0.05
  35   1     0.02  -0.01  -0.02     0.05  -0.02  -0.00     0.06  -0.00   0.01
  36   1     0.02  -0.02  -0.02     0.06  -0.01  -0.01     0.05  -0.00   0.01
  37   8     0.06  -0.05   0.19    -0.01  -0.02  -0.05    -0.09  -0.05  -0.06
  38   1     0.02  -0.01   0.03     0.01   0.01  -0.01    -0.02  -0.01  -0.02
  39   1     0.01  -0.03   0.03     0.00  -0.01  -0.02    -0.01  -0.01   0.00
  40   8     0.13   0.01   0.18    -0.03   0.34  -0.01     0.01   0.17  -0.07
  41   1     0.03  -0.01   0.02     0.02   0.05  -0.01     0.02   0.03  -0.00
  42   1     0.04   0.02   0.06    -0.04   0.08   0.02    -0.01   0.02  -0.04
  43   8    -0.15  -0.08   0.05    -0.12  -0.06  -0.26     0.05  -0.22   0.13
  44   1    -0.02  -0.01  -0.01    -0.01   0.00  -0.03     0.00  -0.06   0.01
  45   1    -0.05  -0.01   0.03    -0.05  -0.01  -0.09     0.02  -0.06   0.05
  46   8     0.02  -0.04   0.02    -0.04   0.01   0.09     0.02   0.14  -0.07
  47   1     0.03   0.00  -0.02    -0.00   0.01   0.02     0.00   0.03  -0.02
  48   1     0.00  -0.01   0.02    -0.01   0.00   0.02    -0.01   0.02  -0.01
  49   8    -0.01   0.11  -0.10    -0.08  -0.05  -0.02     0.00  -0.01   0.07
  50   1    -0.02   0.01  -0.00    -0.02  -0.00  -0.02    -0.00  -0.00   0.01
  51   1    -0.00   0.02  -0.02    -0.02  -0.03  -0.00     0.01  -0.00   0.01
  52   8    -0.07  -0.12  -0.13    -0.16   0.10  -0.02    -0.07  -0.09   0.21
  53   1    -0.00  -0.03  -0.01    -0.03   0.01  -0.00    -0.01  -0.04   0.04
  54   1    -0.00  -0.02  -0.01    -0.03   0.04  -0.01    -0.01  -0.01   0.04
  55   8     0.02   0.04  -0.17     0.13   0.07   0.14    -0.00  -0.23  -0.14
  56   1     0.01   0.01  -0.05     0.02   0.02   0.03    -0.01  -0.06  -0.03
  57   1     0.01   0.01  -0.05     0.04   0.02   0.03    -0.01  -0.04  -0.04
  58   8    -0.01  -0.21  -0.08     0.05  -0.01   0.01    -0.02   0.09  -0.08
  59   1    -0.00  -0.04  -0.01     0.01   0.00   0.01    -0.00   0.01  -0.04
  60   1    -0.01  -0.05  -0.03    -0.01   0.00   0.01    -0.01   0.02   0.01
  61   8    -0.03   0.07  -0.11    -0.14  -0.16  -0.15    -0.04   0.17  -0.03
  62   1    -0.01   0.02  -0.04    -0.03  -0.04  -0.02    -0.02   0.04  -0.03
  63   1    -0.01   0.00  -0.01    -0.03  -0.03  -0.05     0.00   0.01   0.01
  64   8    -0.01  -0.02   0.08    -0.07   0.05   0.22     0.10   0.12   0.16
  65   1    -0.01   0.00   0.02    -0.04   0.02   0.06     0.04   0.00   0.04
  66   1     0.00  -0.01   0.02    -0.01   0.01   0.05     0.02   0.03   0.02
  67   8    -0.11   0.18  -0.12    -0.01  -0.08  -0.14     0.13  -0.02   0.02
  68   1    -0.02   0.05  -0.02    -0.00  -0.01  -0.03     0.02   0.00   0.00
  69   1    -0.03   0.03  -0.02    -0.00  -0.03  -0.03     0.03  -0.01   0.01
  70   8     0.05   0.02  -0.20     0.10   0.08   0.19    -0.20   0.07  -0.24
  71   1     0.01   0.03  -0.04     0.03   0.03   0.06    -0.03   0.01  -0.04
  72   1     0.01  -0.00  -0.02     0.01   0.01   0.03    -0.04   0.03  -0.06
  73   8     0.10   0.06  -0.05    -0.03  -0.12   0.02     0.17  -0.03   0.04
  74   1     0.03   0.02  -0.02     0.01  -0.02   0.02     0.03  -0.01   0.01
  75   1     0.01   0.00   0.01    -0.01  -0.02  -0.00     0.05  -0.00   0.00
                     22                     23                     24
                        a                      a                      a 
 Frequencies --    79.9287                83.5798                86.2207
 Red. masses --    14.5279                14.5222                14.5171
 Frc consts  --     0.0000                 0.0000                 0.0000
 IR Inten    --     0.6820                 0.1105                 0.8340
 Raman Activ --     0.0000                 0.0000                 0.0000
 Depolar     --     0.0000                 0.0000                 0.0000
 Atom AN      X      Y      Z        X      Y      Z        X      Y      Z
   1   8     0.07   0.04   0.16     0.13   0.04  -0.02     0.06   0.05   0.04
   2   1     0.02  -0.01   0.03     0.03   0.01  -0.00     0.01   0.00  -0.00
   3   1     0.02  -0.00   0.03     0.03   0.03   0.01     0.01   0.01   0.01
   4   8     0.10  -0.11  -0.03     0.00   0.08  -0.00     0.17  -0.06  -0.09
   5   1     0.02  -0.01   0.02     0.00   0.01  -0.01     0.04  -0.01  -0.01
   6   1     0.03  -0.03  -0.00     0.00   0.01  -0.01     0.04  -0.01  -0.02
   7   8     0.02  -0.11   0.06     0.17   0.06   0.04     0.01   0.10  -0.07
   8   1     0.01  -0.01   0.01     0.03   0.01   0.02     0.00   0.02  -0.01
   9   1     0.00  -0.04   0.00     0.03   0.02   0.02     0.01   0.03  -0.02
  10   8    -0.03  -0.16   0.06    -0.11  -0.02   0.08     0.06   0.09  -0.14
  11   1    -0.01  -0.03   0.01    -0.02  -0.02   0.03     0.02   0.02  -0.03
  12   1    -0.00  -0.04   0.01    -0.03  -0.00  -0.00    -0.00   0.01  -0.02
  13   8     0.06  -0.12   0.03    -0.12   0.01  -0.12    -0.15  -0.03   0.07
  14   1     0.01  -0.02   0.00    -0.03  -0.01  -0.02    -0.03   0.00   0.01
  15   1     0.01  -0.02   0.01    -0.01  -0.00  -0.02    -0.04  -0.00   0.02
  16   8    -0.07   0.13   0.15     0.15  -0.09  -0.06     0.07  -0.06  -0.01
  17   1    -0.00   0.03   0.04     0.04  -0.02  -0.02     0.02  -0.00   0.00
  18   1    -0.03   0.03   0.03     0.06  -0.02  -0.01     0.04  -0.02   0.01
  19   8     0.11   0.16  -0.24    -0.16  -0.06   0.06    -0.02  -0.09   0.13
  20   1     0.01   0.02  -0.04    -0.02   0.00  -0.00     0.01  -0.01   0.02
  21   1     0.06   0.04  -0.06    -0.06  -0.02   0.00    -0.02  -0.03   0.02
  22   8    -0.14  -0.23  -0.06    -0.23  -0.25  -0.21     0.07  -0.05  -0.07
  23   1    -0.03  -0.01  -0.01    -0.04  -0.06  -0.03     0.01  -0.00  -0.02
  24   1     0.02  -0.07  -0.02    -0.05  -0.07  -0.05     0.02  -0.01  -0.02
  25   8    -0.20  -0.03   0.02     0.12   0.10   0.07    -0.17   0.17   0.02
  26   1    -0.05  -0.01   0.00     0.01   0.04  -0.01    -0.04   0.03   0.02
  27   1    -0.04  -0.00   0.02     0.02   0.02   0.00    -0.03   0.05   0.02
  28   8     0.05   0.03  -0.10    -0.05  -0.11  -0.06     0.08   0.17  -0.23
  29   1     0.00   0.00  -0.02    -0.00  -0.01  -0.01     0.01   0.05  -0.04
  30   1     0.02  -0.00  -0.02    -0.02  -0.00  -0.00     0.03   0.03  -0.06
  31   8    -0.01   0.00  -0.02     0.02  -0.04   0.07    -0.05  -0.08  -0.00
  32   1    -0.01  -0.00  -0.01     0.01  -0.01   0.02    -0.04  -0.01   0.01
  33   1    -0.00  -0.00   0.00     0.00  -0.02  -0.00    -0.01  -0.05   0.00
  34   8    -0.07  -0.18  -0.12     0.17  -0.13  -0.05     0.09  -0.03  -0.09
  35   1    -0.01  -0.03  -0.03     0.02  -0.03  -0.01     0.01  -0.00  -0.02
  36   1    -0.03  -0.05  -0.02     0.01  -0.04  -0.01     0.03  -0.01  -0.02
  37   8    -0.10  -0.06  -0.10     0.11   0.07  -0.11     0.12   0.05   0.03
  38   1    -0.02  -0.01  -0.02     0.03   0.02  -0.02     0.02  -0.00   0.00
  39   1    -0.02  -0.02  -0.02     0.04   0.03  -0.01     0.02   0.02   0.01
  40   8     0.08  -0.20   0.15     0.00   0.11   0.09     0.08   0.04   0.03
  41   1     0.01  -0.06   0.01     0.02   0.01   0.01     0.02   0.01  -0.00
  42   1     0.03  -0.04   0.04    -0.02   0.02   0.02     0.02   0.01   0.01
  43   8     0.12   0.08  -0.08     0.02   0.21   0.14     0.30   0.13  -0.11
  44   1     0.03   0.02  -0.02     0.01   0.05   0.00     0.04   0.00  -0.00
  45   1     0.02   0.02  -0.03     0.00   0.06   0.05     0.11  -0.00  -0.07
  46   8    -0.01   0.01  -0.01    -0.04   0.02   0.09    -0.04  -0.06   0.01
  47   1     0.00   0.01  -0.01    -0.02  -0.00   0.03    -0.00  -0.02  -0.00
  48   1     0.01   0.01  -0.02    -0.02  -0.00   0.03    -0.01  -0.02   0.01
  49   8    -0.16   0.12  -0.11    -0.17   0.13  -0.26    -0.17  -0.06   0.24
  50   1    -0.04   0.02  -0.01    -0.04   0.03  -0.07    -0.03  -0.00   0.04
  51   1    -0.05   0.02  -0.01    -0.05   0.02  -0.05    -0.03  -0.00   0.04
  52   8     0.17   0.13  -0.04    -0.06  -0.05   0.17    -0.05  -0.10  -0.01
  53   1     0.03   0.04  -0.02    -0.02  -0.02   0.03    -0.01  -0.03   0.01
  54   1     0.04   0.02   0.01    -0.01  -0.00   0.04    -0.01  -0.02   0.00
  55   8     0.12   0.07  -0.09    -0.04   0.18  -0.18    -0.16  -0.18   0.15
  56   1     0.02   0.02  -0.02    -0.01   0.05  -0.04    -0.06  -0.04   0.04
  57   1     0.02   0.02  -0.02    -0.01   0.03  -0.04    -0.03  -0.04   0.03
  58   8    -0.09   0.21   0.04     0.01  -0.07   0.08    -0.02  -0.01  -0.18
  59   1    -0.03   0.04   0.00     0.01  -0.01   0.02    -0.01   0.00  -0.03
  60   1    -0.01   0.05   0.02    -0.02  -0.01   0.03    -0.01  -0.00  -0.04
  61   8    -0.05   0.07   0.06     0.17  -0.01   0.09    -0.01   0.04   0.21
  62   1    -0.01   0.02   0.01     0.04  -0.01   0.04     0.00   0.02   0.02
  63   1    -0.01   0.02   0.01     0.03   0.00   0.02     0.01   0.01   0.04
  64   8    -0.01   0.06   0.31     0.00  -0.03  -0.14    -0.00  -0.05   0.13
  65   1    -0.01  -0.00   0.08    -0.01   0.01  -0.04    -0.01  -0.02   0.04
  66   1    -0.01   0.01   0.06    -0.00  -0.01  -0.02    -0.00  -0.01   0.02
  67   8    -0.03  -0.03  -0.05     0.04  -0.03   0.10    -0.28  -0.01   0.08
  68   1    -0.00  -0.01  -0.01    -0.01  -0.01   0.01    -0.07  -0.02   0.01
  69   1     0.01  -0.02  -0.01     0.01   0.00   0.02    -0.03  -0.01   0.01
  70   8    -0.10   0.08   0.06    -0.02  -0.17   0.06     0.08  -0.01  -0.16
  71   1    -0.02   0.01   0.02    -0.00  -0.03   0.02     0.01  -0.00  -0.05
  72   1    -0.02   0.02   0.02    -0.00  -0.04   0.02     0.02  -0.01  -0.03
  73   8     0.13   0.06  -0.05    -0.09   0.03   0.06    -0.08   0.07   0.03
  74   1     0.04   0.02  -0.01    -0.01   0.01  -0.00    -0.05  -0.00   0.03
  75   1     0.02   0.02  -0.00    -0.01   0.01   0.00    -0.00   0.01  -0.00
                     25                     26                     27
                        a                      a                      a 
 Frequencies --    90.5963                91.4792               100.4315
 Red. masses --    14.3364                14.4381                14.5161
 Frc consts  --     0.0000                 0.0000                 0.0000
 IR Inten    --     0.6852                 6.1272                 1.0528
 Raman Activ --     0.0000                 0.0000                 0.0000
 Depolar     --     0.0000                 0.0000                 0.0000
 Atom AN      X      Y      Z        X      Y      Z        X      Y      Z
   1   8    -0.17   0.03   0.02    -0.06  -0.03   0.06    -0.04  -0.02  -0.01
   2   1    -0.04   0.03   0.01    -0.01   0.00   0.02    -0.01  -0.02  -0.00
   3   1    -0.04   0.01   0.01    -0.01   0.00   0.02    -0.00  -0.00  -0.01
   4   8     0.04  -0.03  -0.12    -0.06   0.00   0.04     0.04   0.05  -0.02
   5   1     0.00   0.01  -0.01    -0.01  -0.02  -0.01     0.01  -0.01  -0.03
   6   1     0.02  -0.01  -0.03    -0.02   0.01   0.01     0.01   0.00  -0.01
   7   8    -0.11   0.11   0.09    -0.01   0.17   0.02    -0.07  -0.27  -0.01
   8   1    -0.03   0.02   0.02    -0.01   0.06  -0.00    -0.01  -0.08  -0.00
   9   1    -0.02   0.03   0.02    -0.01   0.02  -0.02    -0.00  -0.05   0.02
  10   8     0.01  -0.01  -0.02    -0.16  -0.20  -0.25     0.25   0.20   0.28
  11   1     0.00  -0.00  -0.01    -0.06  -0.03  -0.06     0.09   0.03   0.05
  12   1     0.00  -0.01   0.00    -0.02  -0.05  -0.04     0.03   0.04   0.04
  13   8    -0.02  -0.05   0.13     0.11  -0.10   0.06    -0.15   0.04  -0.10
  14   1     0.01  -0.02   0.03     0.02  -0.02   0.01    -0.04   0.01  -0.02
  15   1    -0.01  -0.01   0.03     0.01  -0.02   0.01    -0.03   0.01  -0.02
  16   8     0.04  -0.14   0.04    -0.14   0.09   0.10     0.03  -0.02   0.02
  17   1    -0.01  -0.02   0.01    -0.03   0.02   0.03     0.00  -0.00   0.00
  18   1     0.03  -0.04   0.03    -0.07   0.02   0.01     0.03  -0.00   0.02
  19   8    -0.23   0.07  -0.07    -0.22   0.06  -0.02     0.02   0.23  -0.21
  20   1    -0.04   0.00  -0.03    -0.03   0.01  -0.02    -0.01   0.02  -0.04
  21   1    -0.08   0.03  -0.00    -0.06   0.01  -0.02     0.06   0.06  -0.05
  22   8     0.12   0.04   0.15    -0.07   0.02  -0.09     0.00   0.00   0.01
  23   1     0.01   0.01   0.02    -0.00   0.00  -0.01     0.01   0.01   0.01
  24   1     0.06   0.01   0.07    -0.04   0.01  -0.04    -0.01   0.00  -0.01
  25   8    -0.09  -0.30  -0.14     0.05   0.22   0.02     0.14   0.20   0.09
  26   1    -0.01  -0.08  -0.02     0.01   0.06  -0.00     0.04   0.05   0.02
  27   1    -0.02  -0.07  -0.03     0.01   0.04  -0.01     0.03   0.04   0.01
  28   8     0.12  -0.06   0.02    -0.06   0.14   0.00    -0.06  -0.07  -0.10
  29   1     0.02  -0.04  -0.01    -0.01   0.05   0.01    -0.00   0.00  -0.01
  30   1     0.03  -0.01   0.01    -0.02   0.02  -0.01    -0.02  -0.01  -0.02
  31   8     0.30  -0.02  -0.00     0.34   0.06   0.03     0.25   0.02   0.03
  32   1     0.05  -0.00  -0.00     0.07   0.02   0.01     0.05   0.01   0.01
  33   1     0.08  -0.04  -0.01     0.09  -0.02  -0.03     0.06  -0.02  -0.02
  34   8     0.05   0.10   0.04     0.07   0.02  -0.03    -0.03   0.01  -0.01
  35   1     0.00   0.03   0.01     0.02  -0.00  -0.01    -0.01   0.01   0.00
  36   1     0.01   0.02   0.02     0.00   0.01  -0.01    -0.00  -0.00   0.00
  37   8     0.02  -0.20  -0.19     0.11  -0.05  -0.20    -0.13  -0.27  -0.09
  38   1     0.02  -0.04  -0.03     0.04   0.00  -0.04    -0.01  -0.04  -0.01
  39   1     0.01  -0.04  -0.03     0.04  -0.00  -0.03    -0.03  -0.09  -0.04
  40   8     0.02   0.01  -0.16     0.09  -0.05  -0.08    -0.01  -0.01  -0.02
  41   1     0.01   0.01  -0.02     0.02  -0.01  -0.01    -0.00  -0.00  -0.01
  42   1     0.01  -0.03  -0.09     0.03  -0.04  -0.06    -0.00   0.00   0.00
  43   8     0.04   0.19   0.01    -0.02  -0.12  -0.06     0.04  -0.05   0.08
  44   1     0.01   0.04  -0.02     0.01  -0.02   0.01    -0.00  -0.02   0.02
  45   1     0.01   0.05  -0.00    -0.01  -0.03  -0.04     0.03  -0.02   0.04
  46   8    -0.02   0.15   0.14    -0.13   0.01   0.27    -0.13  -0.02   0.22
  47   1     0.01   0.05   0.02    -0.01   0.01   0.06    -0.02   0.00   0.05
  48   1    -0.01   0.04   0.03    -0.03   0.00   0.07    -0.02   0.01   0.04
  49   8     0.20   0.06  -0.09    -0.12  -0.04   0.10    -0.07  -0.04   0.09
  50   1     0.04   0.01  -0.01    -0.03  -0.01   0.02    -0.03  -0.01   0.02
  51   1     0.05   0.01  -0.02    -0.03  -0.02   0.02    -0.01  -0.01   0.01
  52   8     0.00  -0.07   0.04     0.03  -0.09   0.09     0.04   0.15  -0.14
  53   1    -0.01  -0.02  -0.00    -0.01  -0.02   0.00     0.00   0.05  -0.03
  54   1    -0.00  -0.02   0.00    -0.00  -0.03   0.02     0.01   0.03  -0.02
  55   8    -0.09   0.12  -0.15     0.15  -0.05   0.16    -0.12  -0.13   0.02
  56   1    -0.00   0.03  -0.03     0.03  -0.01   0.04    -0.04  -0.04   0.00
  57   1    -0.02   0.01  -0.03     0.03   0.00   0.04    -0.02  -0.02  -0.00
  58   8    -0.05   0.02  -0.03    -0.00  -0.01  -0.03     0.05   0.05   0.08
  59   1    -0.02  -0.02  -0.03    -0.00   0.00  -0.00     0.02   0.03   0.03
  60   1     0.00  -0.01   0.01    -0.00  -0.00  -0.00     0.01   0.02  -0.00
  61   8    -0.01  -0.04   0.18    -0.08  -0.04  -0.03     0.02   0.04   0.02
  62   1     0.00  -0.00   0.04    -0.02  -0.01  -0.00     0.00   0.01  -0.01
  63   1    -0.00   0.00   0.03    -0.02  -0.01  -0.01     0.01   0.00   0.01
  64   8    -0.02   0.15   0.14     0.02  -0.12  -0.17     0.01  -0.13  -0.19
  65   1     0.02   0.05   0.03     0.01  -0.00  -0.06    -0.01   0.00  -0.05
  66   1    -0.01   0.04   0.05    -0.01  -0.02  -0.00    -0.01  -0.02  -0.02
  67   8    -0.10  -0.05  -0.02     0.05   0.01  -0.02    -0.05   0.03   0.06
  68   1    -0.02  -0.02  -0.00     0.03   0.00   0.00    -0.03   0.00   0.00
  69   1    -0.02  -0.01  -0.01    -0.01   0.01  -0.00    -0.00   0.02   0.01
  70   8     0.02  -0.12  -0.06     0.02   0.13   0.14    -0.01  -0.03  -0.13
  71   1     0.01  -0.02  -0.01    -0.01   0.01   0.00     0.02   0.01   0.01
  72   1     0.01  -0.03  -0.00     0.00   0.03   0.02    -0.00  -0.01  -0.02
  73   8    -0.12   0.03   0.04     0.13  -0.05  -0.08    -0.05   0.04   0.04
  74   1    -0.02   0.01  -0.02     0.03  -0.01   0.00    -0.03   0.00   0.02
  75   1    -0.03  -0.00   0.02     0.01  -0.01  -0.01    -0.01   0.01   0.01
                     28                     29                     30
                        a                      a                      a 
 Frequencies --   121.3984               126.7318               132.2194
 Red. masses --    14.1773                13.7585                13.7321
 Frc consts  --     0.0000                 0.0000                 0.0000
 IR Inten    --     5.9580                 0.4749                11.2801
 Raman Activ --     0.0000                 0.0000                 0.0000
 Depolar     --     0.0000                 0.0000                 0.0000
 Atom AN      X      Y      Z        X      Y      Z        X      Y      Z
   1   8     0.07   0.40   0.16    -0.07   0.02   0.00     0.04   0.29   0.11
   2   1     0.01   0.05   0.01    -0.01   0.02   0.01     0.01   0.04   0.01
   3   1     0.01   0.06   0.02    -0.01   0.00  -0.01     0.01   0.04   0.01
   4   8     0.29   0.07  -0.30     0.20   0.05  -0.18    -0.37  -0.10   0.32
   5   1     0.06   0.02  -0.06     0.04   0.02  -0.03    -0.07  -0.04   0.06
   6   1     0.09   0.00  -0.08     0.05   0.01  -0.05    -0.10  -0.02   0.08
   7   8    -0.08   0.04  -0.03     0.02   0.11   0.02    -0.07   0.03  -0.02
   8   1    -0.02   0.01  -0.01     0.01   0.02   0.01    -0.02   0.01  -0.01
   9   1    -0.02   0.01  -0.01     0.01   0.03   0.01    -0.02   0.01  -0.01
  10   8    -0.05   0.07  -0.05     0.12   0.03   0.07     0.03   0.08  -0.03
  11   1    -0.02   0.03  -0.02     0.04   0.00   0.01     0.01   0.03  -0.02
  12   1    -0.01   0.02  -0.00     0.02   0.00   0.02     0.01   0.02  -0.00
  13   8    -0.04   0.06   0.09     0.04  -0.07   0.03     0.01   0.06  -0.01
  14   1     0.00   0.00   0.03    -0.00  -0.00   0.00     0.02   0.00  -0.00
  15   1    -0.02   0.02   0.02     0.04  -0.05   0.00     0.02   0.00  -0.00
  16   8     0.09  -0.07  -0.11    -0.32   0.28   0.08    -0.13   0.12  -0.07
  17   1     0.03   0.02  -0.01    -0.05   0.06   0.02    -0.01   0.05  -0.00
  18   1     0.04  -0.04   0.01    -0.21   0.07  -0.04    -0.11   0.02  -0.03
  19   8    -0.03  -0.02   0.03     0.08   0.05  -0.04    -0.05   0.04   0.02
  20   1    -0.01  -0.01   0.01     0.02   0.02  -0.01    -0.01  -0.00   0.00
  21   1    -0.03   0.01   0.02     0.05  -0.00  -0.03    -0.04   0.03   0.03
  22   8    -0.16  -0.02  -0.13     0.01  -0.02  -0.02    -0.11  -0.02  -0.10
  23   1    -0.02   0.02  -0.02    -0.01  -0.02  -0.01    -0.01   0.01  -0.01
  24   1    -0.08   0.00  -0.10     0.01  -0.01   0.02    -0.09   0.01  -0.09
  25   8     0.03  -0.20  -0.10    -0.05   0.01  -0.04     0.10  -0.22  -0.08
  26   1     0.01  -0.05  -0.02    -0.01   0.00  -0.01     0.03  -0.06  -0.02
  27   1     0.00  -0.05  -0.03    -0.01  -0.00  -0.01     0.01  -0.04  -0.03
  28   8     0.09  -0.12   0.13    -0.03   0.04   0.00     0.14  -0.17   0.02
  29   1     0.02  -0.05   0.01    -0.01   0.01  -0.00     0.03  -0.06  -0.00
  30   1     0.02  -0.04   0.02    -0.01   0.00  -0.01     0.04  -0.03   0.02
  31   8     0.03   0.03  -0.01    -0.01  -0.02  -0.01     0.01  -0.01   0.03
  32   1     0.01   0.00  -0.01    -0.01  -0.00   0.00    -0.00  -0.01   0.00
  33   1     0.01   0.02   0.01    -0.00  -0.01  -0.01     0.00  -0.00   0.02
  34   8     0.04  -0.04  -0.04    -0.01  -0.00   0.02     0.02  -0.04  -0.03
  35   1     0.00  -0.01  -0.01    -0.00   0.01   0.01    -0.01  -0.00  -0.00
  36   1     0.00  -0.01  -0.01     0.00  -0.00   0.01     0.01  -0.01  -0.00
  37   8    -0.05  -0.02   0.03     0.11   0.09  -0.04    -0.02  -0.06   0.00
  38   1    -0.01  -0.00   0.01     0.02   0.01  -0.01    -0.01  -0.02   0.00
  39   1    -0.02  -0.01   0.00     0.02   0.04  -0.00    -0.01  -0.01  -0.00
  40   8     0.09  -0.07   0.07    -0.06   0.07   0.03     0.06  -0.05   0.07
  41   1     0.02  -0.02   0.01    -0.01   0.01   0.00     0.01  -0.01   0.01
  42   1     0.02  -0.02   0.01    -0.02   0.04   0.04     0.02  -0.01   0.02
  43   8    -0.18  -0.23   0.20    -0.05  -0.09   0.21     0.21   0.07  -0.23
  44   1    -0.04  -0.06   0.05    -0.00  -0.02   0.03     0.04   0.01  -0.02
  45   1    -0.04  -0.04   0.13    -0.01  -0.01   0.12     0.06  -0.01  -0.17
  46   8     0.05   0.05  -0.05    -0.02   0.00   0.00     0.08   0.08  -0.04
  47   1     0.01   0.01  -0.01    -0.00  -0.00   0.00     0.01   0.01  -0.00
  48   1     0.01   0.01  -0.01    -0.00   0.00   0.00     0.02   0.02  -0.01
  49   8    -0.10  -0.05   0.04    -0.01   0.04  -0.02    -0.02  -0.07   0.02
  50   1    -0.02  -0.01  -0.01    -0.00   0.01   0.00    -0.00  -0.01  -0.01
  51   1    -0.02  -0.02   0.01     0.00   0.02  -0.01    -0.00  -0.02   0.00
  52   8    -0.00   0.01   0.01    -0.04  -0.02  -0.09     0.00   0.02  -0.01
  53   1    -0.00   0.00   0.00    -0.01  -0.00  -0.02     0.00   0.01  -0.00
  54   1     0.00   0.00   0.01    -0.01  -0.00  -0.02     0.00   0.01   0.00
  55   8    -0.06  -0.08   0.19    -0.03  -0.02  -0.05    -0.04  -0.10   0.10
  56   1    -0.02  -0.04   0.04    -0.01  -0.01  -0.01    -0.03  -0.02   0.02
  57   1    -0.00  -0.01   0.04    -0.01  -0.00  -0.01    -0.01  -0.02   0.02
  58   8    -0.07   0.16   0.00    -0.03  -0.18  -0.12    -0.00   0.06   0.06
  59   1    -0.02   0.02  -0.03    -0.01  -0.03  -0.01     0.00  -0.00  -0.01
  60   1    -0.00   0.03   0.03    -0.01  -0.04  -0.05     0.01   0.01   0.03
  61   8    -0.15   0.03   0.00     0.26  -0.52   0.02     0.19  -0.19  -0.01
  62   1    -0.04   0.01  -0.00     0.08  -0.13   0.03     0.05  -0.05   0.01
  63   1    -0.04  -0.00   0.01     0.05  -0.10  -0.01     0.05  -0.04  -0.01
  64   8     0.10  -0.01  -0.11     0.02   0.00   0.04     0.04   0.03  -0.14
  65   1     0.05  -0.00  -0.03    -0.00   0.00   0.01     0.06  -0.00  -0.05
  66   1     0.02   0.00  -0.02    -0.00   0.00   0.01     0.01   0.00  -0.02
  67   8     0.06  -0.02  -0.04    -0.04  -0.00   0.03    -0.06  -0.00   0.02
  68   1     0.00  -0.01  -0.02    -0.01  -0.02  -0.00     0.00   0.02   0.02
  69   1     0.04   0.00  -0.02     0.01   0.00  -0.00    -0.05  -0.01   0.02
  70   8     0.04   0.02   0.04    -0.06   0.02  -0.04     0.01   0.04  -0.05
  71   1     0.01   0.00   0.00    -0.00   0.00   0.00     0.00   0.01  -0.01
  72   1     0.00   0.00  -0.01    -0.00   0.01   0.00     0.00   0.01  -0.01
  73   8    -0.02   0.04  -0.00    -0.02   0.12   0.08    -0.06   0.14   0.08
  74   1    -0.02  -0.00   0.02    -0.01   0.03   0.02    -0.04   0.02   0.03
  75   1     0.01   0.02  -0.02     0.00   0.03   0.01     0.01   0.04  -0.00
                     31                     32                     33
                        a                      a                      a 
 Frequencies --   134.4300               139.8301               156.4923
 Red. masses --    13.6038                14.0172                13.1072
 Frc consts  --     0.0000                 0.0000                 0.0000
 IR Inten    --     2.7129                 8.1515                 2.0288
 Raman Activ --     0.0000                 0.0000                 0.0000
 Depolar     --     0.0000                 0.0000                 0.0000
 Atom AN      X      Y      Z        X      Y      Z        X      Y      Z
   1   8    -0.13   0.13  -0.01    -0.10   0.13  -0.00     0.06   0.00   0.08
   2   1    -0.03   0.04   0.02    -0.02   0.03   0.02     0.01  -0.01  -0.00
   3   1    -0.03   0.00  -0.02    -0.02   0.00  -0.02     0.01   0.04   0.05
   4   8    -0.08  -0.03   0.07     0.00   0.02   0.00    -0.06  -0.03   0.06
   5   1    -0.02  -0.01   0.01     0.01   0.01  -0.00    -0.02  -0.01   0.01
   6   1    -0.02   0.00   0.02    -0.00   0.00  -0.01    -0.01  -0.01   0.01
   7   8     0.00   0.13   0.16    -0.01   0.09   0.17     0.09  -0.03  -0.12
   8   1     0.02   0.02   0.04     0.01   0.02   0.04     0.01  -0.01  -0.02
   9   1     0.00   0.04   0.04    -0.01   0.02   0.04     0.02  -0.01  -0.03
  10   8     0.06  -0.06   0.13    -0.01  -0.11   0.07     0.07  -0.01   0.13
  11   1     0.01  -0.04   0.06    -0.01  -0.03   0.03     0.03  -0.00   0.02
  12   1     0.00  -0.02   0.02     0.02  -0.01  -0.00     0.02   0.00   0.02
  13   8    -0.06  -0.15   0.08     0.26   0.00  -0.08     0.13  -0.06   0.03
  14   1    -0.01  -0.03   0.01     0.05   0.01  -0.02     0.04  -0.02   0.01
  15   1    -0.03  -0.03   0.02     0.05   0.01  -0.02     0.01  -0.00   0.01
  16   8     0.12  -0.04  -0.03     0.12  -0.02  -0.07    -0.04  -0.04   0.28
  17   1     0.00  -0.00  -0.01     0.00   0.00  -0.02    -0.01  -0.02   0.07
  18   1     0.09  -0.01   0.02     0.08  -0.01   0.01     0.12   0.00   0.11
  19   8     0.16   0.15  -0.13     0.08   0.15  -0.10    -0.05   0.00   0.04
  20   1     0.02   0.05  -0.02     0.02   0.01  -0.02     0.01   0.01  -0.01
  21   1     0.10   0.02  -0.06     0.07   0.03  -0.03    -0.03  -0.00   0.00
  22   8    -0.02  -0.01  -0.04    -0.04  -0.01  -0.04     0.04  -0.04   0.01
  23   1    -0.01  -0.04  -0.02    -0.01  -0.03  -0.01    -0.00  -0.00  -0.01
  24   1    -0.05   0.01  -0.00    -0.05   0.01  -0.01     0.09  -0.03   0.05
  25   8    -0.05  -0.03  -0.10    -0.02  -0.07  -0.11    -0.01  -0.00   0.06
  26   1    -0.01  -0.01  -0.02    -0.00  -0.02  -0.03    -0.01   0.00   0.00
  27   1    -0.01  -0.01  -0.02    -0.00  -0.02  -0.03    -0.01   0.00   0.01
  28   8    -0.05  -0.08  -0.11     0.02   0.09   0.05     0.12  -0.14  -0.05
  29   1    -0.01  -0.02  -0.02     0.00   0.01   0.00     0.01  -0.03   0.01
  30   1    -0.01  -0.01  -0.01     0.01   0.01   0.01     0.05  -0.06  -0.02
  31   8     0.10   0.13  -0.08    -0.09  -0.15   0.09    -0.03  -0.02   0.03
  32   1     0.06   0.02  -0.03    -0.06  -0.03   0.04    -0.01  -0.00   0.01
  33   1     0.02   0.06  -0.04    -0.02  -0.07   0.04    -0.01  -0.01   0.01
  34   8    -0.04  -0.01  -0.01    -0.02  -0.01   0.01    -0.11   0.07  -0.13
  35   1    -0.01  -0.00  -0.00    -0.01  -0.01  -0.00    -0.07   0.04  -0.02
  36   1     0.00   0.00  -0.00     0.00   0.00  -0.00    -0.02   0.01  -0.01
  37   8    -0.01   0.20   0.01     0.14  -0.15  -0.10     0.18   0.15  -0.07
  38   1    -0.00   0.05   0.00     0.02  -0.06  -0.02     0.04   0.03  -0.02
  39   1    -0.00   0.06   0.01     0.03  -0.01  -0.01     0.05   0.04  -0.01
  40   8    -0.09   0.17   0.11    -0.05   0.12   0.12    -0.04   0.07  -0.24
  41   1    -0.02   0.03   0.00    -0.02   0.02   0.01    -0.00   0.03  -0.04
  42   1    -0.03   0.12   0.14    -0.02   0.10   0.14    -0.00  -0.08  -0.21
  43   8     0.08  -0.02  -0.08    -0.03  -0.06  -0.00     0.10  -0.26   0.03
  44   1     0.01  -0.01  -0.00    -0.01  -0.02   0.00     0.04  -0.06  -0.02
  45   1     0.02  -0.02  -0.09     0.00  -0.01   0.05     0.02  -0.05   0.09
  46   8    -0.02   0.04  -0.05    -0.02   0.05   0.08     0.07   0.03  -0.04
  47   1     0.00   0.01  -0.02    -0.01   0.00   0.02     0.01   0.00  -0.00
  48   1    -0.00   0.02  -0.01     0.01   0.02   0.01     0.01  -0.00  -0.00
  49   8    -0.04  -0.01   0.04     0.01  -0.03   0.00    -0.11   0.12  -0.01
  50   1    -0.01   0.00   0.00    -0.00  -0.00  -0.01    -0.03   0.03  -0.00
  51   1    -0.00  -0.00   0.00     0.00  -0.01  -0.00    -0.02   0.03  -0.01
  52   8     0.04  -0.04  -0.08     0.07  -0.04  -0.02    -0.15   0.02  -0.11
  53   1     0.01  -0.01  -0.02     0.02  -0.01  -0.01    -0.03   0.01  -0.01
  54   1     0.01  -0.01  -0.03     0.02  -0.01  -0.02    -0.03   0.01  -0.01
  55   8    -0.00  -0.06   0.06     0.01  -0.03   0.06     0.15  -0.07  -0.08
  56   1    -0.01  -0.01   0.02     0.00  -0.01   0.01     0.01   0.01  -0.01
  57   1    -0.00  -0.01   0.02    -0.00  -0.01   0.02     0.02  -0.02  -0.01
  58   8    -0.03  -0.35  -0.14    -0.02  -0.26  -0.08    -0.06   0.08  -0.13
  59   1    -0.01  -0.07  -0.00    -0.01  -0.06  -0.00    -0.00   0.01  -0.06
  60   1    -0.01  -0.08  -0.07    -0.00  -0.06  -0.04    -0.02   0.02  -0.02
  61   8    -0.21   0.05   0.27     0.10   0.26  -0.35    -0.06   0.12  -0.09
  62   1    -0.06   0.02   0.05     0.02   0.05  -0.07    -0.03   0.02  -0.03
  63   1    -0.04   0.01   0.06     0.02   0.05  -0.07    -0.00   0.02  -0.02
  64   8     0.02  -0.01  -0.06     0.04   0.03   0.01     0.04  -0.01  -0.07
  65   1     0.02  -0.01  -0.02     0.03   0.01  -0.00     0.05  -0.02  -0.02
  66   1    -0.00   0.00  -0.01     0.00   0.02   0.01     0.01  -0.01  -0.02
  67   8     0.33  -0.04  -0.15    -0.39   0.05   0.17    -0.03  -0.01   0.02
  68   1     0.09   0.01  -0.03    -0.08  -0.02   0.04     0.01  -0.01   0.01
  69   1     0.05  -0.01  -0.03    -0.06   0.01   0.04    -0.01  -0.00   0.01
  70   8    -0.05  -0.03   0.09    -0.04   0.01   0.07    -0.00  -0.02   0.17
  71   1    -0.00  -0.02   0.03    -0.01  -0.01   0.01    -0.00   0.01   0.05
  72   1    -0.01  -0.00   0.00    -0.01   0.01  -0.00    -0.02  -0.02   0.04
  73   8    -0.05  -0.03   0.05    -0.00  -0.05   0.02    -0.35   0.11   0.18
  74   1    -0.01  -0.01   0.02    -0.00  -0.01   0.01    -0.07   0.04   0.02
  75   1    -0.01  -0.00   0.01     0.00  -0.01  -0.00    -0.10   0.02   0.06
                     34                     35                     36
                        a                      a                      a 
 Frequencies --   159.0514               166.9341               167.3868
 Red. masses --    12.3724                11.0106                 9.8813
 Frc consts  --     0.0000                 0.0000                 0.0000
 IR Inten    --     7.2083                11.2026                14.3992
 Raman Activ --     0.0000                 0.0000                 0.0000
 Depolar     --     0.0000                 0.0000                 0.0000
 Atom AN      X      Y      Z        X      Y      Z        X      Y      Z
   1   8     0.05   0.14   0.13     0.05  -0.01   0.02    -0.07  -0.10  -0.06
   2   1     0.00   0.02   0.01     0.01  -0.00   0.00    -0.01  -0.02  -0.00
   3   1    -0.00   0.05   0.05     0.01   0.01   0.02    -0.01  -0.03  -0.02
   4   8    -0.02   0.01  -0.00     0.06   0.08  -0.09    -0.02  -0.06   0.06
   5   1    -0.01   0.01   0.00     0.02   0.03  -0.02    -0.01  -0.02   0.01
   6   1    -0.00  -0.00  -0.01     0.01   0.02  -0.02    -0.00  -0.02   0.02
   7   8     0.05  -0.01  -0.06     0.02  -0.03   0.04    -0.03   0.03   0.02
   8   1    -0.00  -0.00  -0.01    -0.00  -0.00   0.01     0.01   0.00  -0.00
   9   1     0.01   0.00  -0.02     0.00  -0.01   0.01    -0.00   0.01   0.00
  10   8     0.12  -0.01   0.19    -0.01  -0.03  -0.05     0.00   0.01   0.00
  11   1     0.03  -0.01   0.05     0.00  -0.01  -0.02    -0.00   0.00   0.00
  12   1     0.03   0.00   0.03    -0.00  -0.01  -0.02     0.00   0.00   0.00
  13   8     0.10  -0.08  -0.01    -0.03   0.01  -0.08     0.01  -0.00   0.07
  14   1     0.02  -0.02   0.00    -0.03  -0.00  -0.01     0.02  -0.00   0.01
  15   1     0.02  -0.01  -0.00     0.01   0.02  -0.01    -0.03   0.01   0.01
  16   8    -0.10  -0.13   0.16    -0.15  -0.13  -0.10    -0.11  -0.17  -0.19
  17   1     0.00   0.00   0.07     0.02  -0.02  -0.00     0.02  -0.02  -0.02
  18   1    -0.21  -0.07   0.00    -0.29  -0.06  -0.10    -0.38  -0.08  -0.16
  19   8     0.08  -0.00  -0.04     0.09  -0.05  -0.04    -0.08   0.09   0.03
  20   1     0.01   0.02  -0.01     0.00  -0.01   0.00    -0.00   0.01  -0.00
[...]
  70   8    -0.04   0.05   0.01     0.00  -0.00  -0.00    -0.01   0.03  -0.00
  71   1    -0.03  -0.01   0.02     0.01   0.00  -0.01    -0.05  -0.02   0.04
  72   1     0.18  -0.21  -0.06    -0.01   0.02   0.01     0.09  -0.10  -0.04
  73   8     0.13   0.04   0.12     0.00  -0.00  -0.00     0.00  -0.00   0.00
  74   1    -0.15   0.31   0.05    -0.00   0.00   0.00    -0.00   0.01   0.00
  75   1    -0.37  -0.46  -0.53     0.00   0.00   0.00    -0.00  -0.00  -0.00
                    211                    212                    213
                        a                      a                      a 
 Frequencies --  3543.1186              3671.5511              3675.1289
 Red. masses --     1.7800                 1.8354                 1.8329
 Frc consts  --     0.0000                 0.0000                 0.0000
 IR Inten    --   128.5325                19.5617                12.7249
 Raman Activ --     0.0000                 0.0000                 0.0000
 Depolar     --     0.0000                 0.0000                 0.0000
 Atom AN      X      Y      Z        X      Y      Z        X      Y      Z
   1   8    -0.00  -0.00   0.00    -0.00   0.00  -0.00    -0.00   0.00  -0.00
   2   1     0.00   0.00  -0.00     0.00  -0.00   0.00    -0.00   0.00   0.00
   3   1    -0.00   0.00  -0.00     0.00  -0.00   0.00     0.00  -0.00   0.00
   4   8    -0.16  -0.11   0.11    -0.00  -0.00  -0.00    -0.00   0.00  -0.00
   5   1     0.04  -0.08   0.08     0.00  -0.00   0.00     0.00  -0.00   0.00
   6   1     0.58   0.53  -0.52     0.00   0.00  -0.00     0.00   0.00  -0.00
   7   8     0.00  -0.00   0.00    -0.00   0.00  -0.00    -0.00   0.00  -0.00
   8   1     0.00   0.00   0.00    -0.00   0.00  -0.00    -0.00   0.00   0.00
   9   1    -0.00   0.00  -0.00     0.01  -0.01   0.02    -0.00  -0.00   0.00
  10   8     0.00  -0.00  -0.00     0.16   0.12   0.12    -0.01  -0.00  -0.00
  11   1     0.00   0.00  -0.00    -0.64  -0.51  -0.52     0.02   0.02   0.02
  12   1    -0.00   0.01   0.00     0.01   0.04   0.02    -0.00  -0.00  -0.00
  13   8    -0.00  -0.00  -0.01     0.00  -0.00   0.00    -0.00  -0.00   0.00
  14   1     0.02   0.02   0.03    -0.00  -0.00  -0.00     0.00   0.00   0.00
  15   1     0.00  -0.00   0.00     0.00   0.00   0.00     0.00   0.00  -0.00
  16   8    -0.00  -0.00   0.00     0.00  -0.00  -0.00     0.00  -0.00  -0.00
  17   1     0.00   0.00  -0.00     0.00  -0.00  -0.00     0.00  -0.00  -0.00
  18   1     0.00  -0.00  -0.00    -0.00   0.01   0.01    -0.00   0.01   0.01
  19   8    -0.00  -0.00   0.00    -0.00  -0.00   0.00    -0.00  -0.01   0.00
  20   1     0.00  -0.00   0.00     0.00  -0.00   0.00     0.00  -0.00   0.00
  21   1     0.00   0.00  -0.00     0.00   0.00  -0.00     0.00   0.02  -0.01
  22   8    -0.00  -0.00   0.00     0.00   0.00  -0.00     0.00   0.00  -0.00
  23   1     0.00   0.00  -0.00     0.00   0.00  -0.00     0.00   0.00  -0.00
  24   1    -0.00  -0.00  -0.00    -0.00  -0.00   0.00    -0.00  -0.01   0.00
  25   8    -0.00  -0.00   0.00    -0.00  -0.00  -0.00     0.00   0.00  -0.00
  26   1     0.00   0.00  -0.00     0.00   0.00  -0.00     0.00  -0.00  -0.00
  27   1     0.00   0.00  -0.00    -0.00   0.00   0.00    -0.00  -0.00   0.00
  28   8     0.03   0.01  -0.01    -0.00  -0.00   0.00    -0.00  -0.00   0.00
  29   1    -0.03   0.04  -0.04     0.00  -0.00  -0.00     0.00  -0.00   0.00
  30   1    -0.08  -0.07   0.08     0.00   0.00  -0.00     0.00   0.00  -0.00
  31   8     0.00   0.00  -0.00     0.01   0.00  -0.00     0.23   0.03  -0.03
  32   1    -0.00  -0.01   0.00     0.00   0.00   0.00     0.03   0.03  -0.02
  33   1    -0.00  -0.00  -0.00    -0.03  -0.00   0.00    -0.94  -0.15   0.12
  34   8     0.00  -0.00  -0.00    -0.00  -0.00  -0.00     0.00  -0.00  -0.00
  35   1    -0.00   0.00  -0.00     0.00  -0.00   0.00     0.00   0.00  -0.00
  36   1    -0.00   0.00   0.00    -0.00   0.00   0.00    -0.00   0.00   0.00
  37   8    -0.00   0.00   0.00     0.00   0.00  -0.00    -0.00   0.00   0.00
  38   1     0.00  -0.00  -0.00     0.00  -0.00  -0.00     0.02  -0.02  -0.00
  39   1     0.00   0.00  -0.00    -0.00  -0.00   0.00    -0.00  -0.00   0.00
  40   8    -0.00  -0.00   0.00     0.00  -0.00   0.00     0.00  -0.00   0.00
  41   1     0.00   0.00  -0.00     0.00  -0.00   0.00     0.00  -0.00   0.00
  42   1    -0.00   0.00  -0.00    -0.00   0.00  -0.00    -0.00   0.00  -0.00
  43   8     0.00   0.00  -0.00     0.00   0.00  -0.00     0.00   0.00  -0.00
  44   1    -0.00  -0.00   0.00     0.00   0.00  -0.00     0.00   0.00  -0.00
  45   1    -0.00  -0.00   0.00    -0.01  -0.01   0.00    -0.00  -0.00   0.00
  46   8    -0.00   0.00  -0.00    -0.00   0.00  -0.00    -0.00  -0.00  -0.00
  47   1     0.00  -0.00   0.00     0.00   0.00   0.00     0.02   0.00   0.02
  48   1     0.00  -0.00   0.00     0.00  -0.00   0.00    -0.00   0.00  -0.00
  49   8     0.00  -0.00  -0.00    -0.00  -0.00  -0.00    -0.00  -0.00  -0.00
  50   1    -0.00   0.00   0.00    -0.00   0.00   0.00     0.00  -0.00  -0.00
  51   1    -0.00   0.00  -0.00     0.00   0.00   0.00     0.00   0.00   0.00
  52   8    -0.00   0.00   0.00    -0.00   0.00  -0.00    -0.00  -0.00   0.00
  53   1     0.00   0.00  -0.00    -0.00  -0.00   0.00     0.00   0.00  -0.00
  54   1     0.00  -0.00  -0.00     0.00  -0.00  -0.00     0.00  -0.00  -0.00
  55   8    -0.00  -0.00  -0.00    -0.00  -0.00  -0.00    -0.00   0.00  -0.00
  56   1     0.00   0.00  -0.00    -0.00   0.00  -0.00     0.00  -0.00   0.00
  57   1     0.00   0.00   0.00     0.00   0.00   0.00     0.00   0.00   0.00
  58   8    -0.00  -0.00   0.00    -0.00  -0.00  -0.00     0.00  -0.00   0.00
  59   1    -0.00   0.00  -0.00     0.00  -0.00   0.00    -0.00  -0.00  -0.00
  60   1     0.00   0.00   0.00     0.00   0.00   0.00    -0.00   0.00   0.00
  61   8     0.01  -0.01  -0.00    -0.00  -0.00  -0.00    -0.00  -0.00  -0.00
  62   1    -0.02   0.04   0.01    -0.00   0.00   0.00     0.00  -0.00  -0.00
  63   1    -0.00  -0.01  -0.00     0.00   0.00   0.00     0.00   0.00   0.00
  64   8    -0.00   0.00  -0.00     0.00   0.00   0.00     0.01   0.01   0.03
  65   1     0.00   0.00   0.00    -0.00  -0.00  -0.01    -0.03  -0.04  -0.11
  66   1     0.00   0.00   0.00     0.00   0.00   0.00     0.00   0.00   0.00
  67   8    -0.01  -0.00   0.03     0.00  -0.00  -0.00     0.00  -0.00  -0.00
  68   1     0.05   0.03  -0.09    -0.00   0.00   0.00    -0.00  -0.00   0.00
  69   1    -0.01  -0.03  -0.03    -0.00   0.00   0.00     0.00   0.00  -0.00
  70   8    -0.00   0.00  -0.00    -0.00  -0.00   0.00    -0.00   0.00  -0.00
  71   1    -0.00   0.00   0.00     0.02   0.01  -0.01    -0.00  -0.00   0.00
  72   1     0.00  -0.00  -0.00     0.00  -0.00  -0.00     0.00  -0.00  -0.00
  73   8     0.00  -0.00  -0.00     0.00  -0.00  -0.00     0.00   0.00   0.00
  74   1    -0.00   0.00   0.00    -0.00   0.00   0.00     0.00   0.00   0.00
  75   1     0.00   0.00   0.00     0.00   0.00   0.00    -0.00  -0.00  -0.00
                    214                    215                    216
                        a                      a                      a 
 Frequencies --  3676.8771              3679.1004              3681.3473
 Red. masses --     1.8359                 1.8356                 1.8389
 Frc consts  --     0.0000                 0.0000                 0.0000
 IR Inten    --    14.4755                10.6694                14.4615
 Raman Activ --     0.0000                 0.0000                 0.0000
 Depolar     --     0.0000                 0.0000                 0.0000
 Atom AN      X      Y      Z        X      Y      Z        X      Y      Z
   1   8    -0.00   0.00   0.00    -0.00  -0.00   0.00     0.00  -0.00   0.00
   2   1    -0.00  -0.00  -0.00     0.00  -0.00  -0.00     0.00   0.00  -0.00
   3   1     0.00  -0.00   0.00    -0.00   0.00  -0.00    -0.00   0.00  -0.00
   4   8     0.00  -0.00   0.00    -0.00   0.00  -0.00    -0.00   0.00  -0.00
   5   1    -0.02   0.02  -0.02     0.00  -0.00   0.00     0.00  -0.00   0.00
   6   1     0.00  -0.00   0.00     0.00   0.00  -0.00    -0.00  -0.00   0.00
   7   8     0.00   0.00   0.00    -0.00  -0.00   0.00    -0.00  -0.00  -0.00
   8   1    -0.00  -0.00  -0.00    -0.00  -0.00  -0.00     0.00   0.00   0.00
   9   1     0.00  -0.00   0.00    -0.00   0.00  -0.00     0.00  -0.00   0.00
  10   8     0.00   0.00   0.00    -0.00  -0.00  -0.00    -0.00  -0.00  -0.00
  11   1    -0.01  -0.01  -0.01     0.01   0.01   0.01     0.00   0.00   0.00
  12   1     0.00   0.00   0.00     0.00  -0.00  -0.00     0.00  -0.00  -0.00
  13   8     0.00   0.00   0.00     0.00   0.00   0.00     0.00   0.00  -0.00
  14   1    -0.00  -0.00  -0.00    -0.00  -0.00  -0.00    -0.00  -0.00  -0.00
  15   1     0.00   0.00  -0.00    -0.00  -0.00   0.00    -0.00  -0.00   0.00
  16   8     0.00  -0.00  -0.00     0.06  -0.18  -0.14     0.00  -0.00  -0.00
  17   1     0.00  -0.00  -0.00     0.01  -0.01  -0.04     0.00  -0.00  -0.00
  18   1    -0.00   0.01   0.01    -0.27   0.72   0.60    -0.01   0.02   0.01
  19   8    -0.00  -0.00   0.00     0.00   0.00  -0.00     0.00   0.00  -0.00
  20   1    -0.00  -0.00   0.00    -0.00   0.00  -0.00    -0.00   0.00  -0.00
  21   1     0.00   0.02  -0.01    -0.00  -0.01   0.00    -0.00  -0.01   0.01
  22   8    -0.00   0.00   0.00    -0.00  -0.01   0.00     0.05   0.23  -0.01
  23   1     0.00   0.00  -0.00    -0.00  -0.00   0.00     0.02   0.03  -0.02
  24   1    -0.00  -0.00   0.00     0.01   0.02  -0.00    -0.22  -0.94   0.07
  25   8    -0.00  -0.00   0.00     0.00  -0.00  -0.00    -0.00  -0.00  -0.00
  26   1    -0.00   0.00   0.00    -0.00   0.00   0.00     0.00   0.00   0.00
  27   1     0.01   0.00  -0.01    -0.00  -0.00   0.00     0.00   0.00  -0.00
  28   8     0.00  -0.00   0.00     0.00   0.00  -0.00    -0.00   0.00  -0.00
  29   1    -0.00   0.00  -0.00    -0.00   0.00   0.00     0.00  -0.00   0.00
  30   1     0.00   0.00  -0.00    -0.00  -0.00   0.00    -0.00  -0.00   0.00
  31   8     0.03   0.00  -0.00    -0.00  -0.00   0.00    -0.00  -0.00   0.00
  32   1     0.00   0.00  -0.00    -0.00  -0.00   0.00    -0.00  -0.00   0.00
  33   1    -0.12  -0.02   0.02     0.01   0.00  -0.00     0.01   0.00  -0.00
  34   8    -0.00   0.00   0.00    -0.00   0.00   0.00     0.00  -0.00  -0.00
  35   1     0.00   0.00  -0.00     0.00  -0.00   0.00    -0.00   0.00  -0.00
  36   1     0.00  -0.00  -0.00     0.00  -0.00  -0.00    -0.00   0.02   0.01
  37   8    -0.00   0.00  -0.00    -0.00  -0.00   0.00    -0.00  -0.00   0.00
  38   1     0.00  -0.00  -0.00    -0.00   0.00  -0.00     0.00  -0.00   0.00
  39   1    -0.00  -0.00   0.00     0.00   0.00  -0.00     0.00   0.00  -0.00
  40   8     0.00  -0.00   0.00    -0.00   0.00  -0.00    -0.00   0.00  -0.00
  41   1     0.00  -0.00   0.00     0.00   0.00  -0.00     0.00   0.00  -0.00
  42   1    -0.00   0.00  -0.00     0.01  -0.01   0.01     0.01  -0.01   0.01
  43   8     0.00   0.00  -0.00    -0.00  -0.00   0.00     0.00   0.00  -0.00
  44   1    -0.00   0.00  -0.00    -0.00   0.00   0.00     0.00  -0.00  -0.00
  45   1    -0.00  -0.00   0.00     0.01   0.01  -0.00    -0.00  -0.01   0.00
  46   8    -0.00   0.00  -0.00     0.00  -0.00   0.00     0.00  -0.00  -0.00
  47   1     0.00   0.00   0.00    -0.00  -0.00  -0.00     0.00   0.00   0.00
  48   1     0.00  -0.00  -0.00    -0.00   0.00  -0.00    -0.00   0.00  -0.00
  49   8    -0.00   0.00   0.00     0.00   0.00   0.00    -0.00  -0.00  -0.00
  50   1     0.00  -0.00  -0.00     0.00  -0.00  -0.00    -0.00  -0.00  -0.00
  51   1     0.00   0.00   0.00    -0.00  -0.00  -0.00     0.02   0.01   0.01
  52   8    -0.00   0.00   0.00    -0.00  -0.00   0.00    -0.00  -0.00   0.00
  53   1    -0.00  -0.00   0.00     0.00   0.00  -0.00     0.00   0.00  -0.00
  54   1     0.00  -0.00  -0.00     0.00  -0.00  -0.00    -0.00   0.00   0.00
  55   8    -0.00  -0.00   0.00    -0.00   0.00  -0.00    -0.00   0.00  -0.00
  56   1     0.00   0.00  -0.00    -0.00  -0.00   0.00     0.00  -0.00   0.00
  57   1    -0.00  -0.00  -0.00     0.00   0.00   0.00     0.00   0.00   0.00
  58   8    -0.00   0.00  -0.00     0.00   0.00   0.00    -0.00   0.00   0.00
  59   1     0.00   0.00   0.00    -0.00  -0.00  -0.00     0.00  -0.00   0.00
  60   1     0.00  -0.00  -0.00    -0.00  -0.00  -0.00    -0.00  -0.00  -0.00
  61   8     0.00   0.00   0.00     0.00  -0.00  -0.00    -0.00   0.00   0.00
  62   1     0.00  -0.00  -0.00    -0.00   0.00   0.00     0.00  -0.00  -0.00
  63   1    -0.00  -0.00  -0.00    -0.00  -0.00  -0.00    -0.00  -0.00  -0.00
  64   8    -0.06  -0.07  -0.21     0.00   0.00   0.00    -0.00  -0.00  -0.00
  65   1     0.24   0.30   0.88    -0.00  -0.00  -0.01     0.00   0.00   0.00
  66   1    -0.02  -0.03  -0.02     0.00   0.00   0.00     0.00   0.00  -0.00
  67   8     0.00   0.00   0.00    -0.00   0.00   0.00    -0.00   0.00  -0.00
  68   1    -0.00  -0.00   0.00    -0.00  -0.00   0.00     0.00  -0.00   0.00
  69   1    -0.00  -0.00  -0.00    -0.00  -0.00  -0.00     0.00  -0.00  -0.00
  70   8    -0.00   0.00   0.00    -0.00   0.01   0.00    -0.00   0.00  -0.00
  71   1     0.00   0.00  -0.00    -0.00  -0.00   0.00    -0.00  -0.00   0.00
  72   1     0.00  -0.00  -0.00     0.02  -0.02  -0.01     0.00  -0.00  -0.00
  73   8     0.00   0.00   0.00     0.00   0.00   0.01     0.00   0.00  -0.00
  74   1     0.00   0.00   0.00    -0.00   0.00   0.00     0.00  -0.00   0.00
  75   1    -0.00  -0.00  -0.00    -0.02  -0.02  -0.02    -0.00  -0.00  -0.00
                    217                    218                    219
                        a                      a                      a 
 Frequencies --  3684.0568              3687.7493              3688.3139
 Red. masses --     1.8417                 1.8409                 1.8412
 Frc consts  --     0.0000                 0.0000                 0.0000
 IR Inten    --     8.6884                 9.7436                 8.8534
 Raman Activ --     0.0000                 0.0000                 0.0000
 Depolar     --     0.0000                 0.0000                 0.0000
 Atom AN      X      Y      Z        X      Y      Z        X      Y      Z
   1   8     0.00   0.00  -0.00    -0.00   0.00  -0.00     0.00  -0.00   0.01
   2   1    -0.00   0.00   0.00    -0.00   0.00   0.00     0.00   0.00  -0.00
   3   1     0.00  -0.00   0.00     0.00  -0.00   0.00    -0.02   0.01  -0.02
   4   8    -0.00  -0.00   0.00    -0.00  -0.00   0.00    -0.00  -0.00   0.00
   5   1    -0.00   0.00  -0.00     0.00  -0.00   0.00    -0.00   0.00  -0.00
   6   1     0.00   0.00  -0.00     0.00   0.00  -0.00     0.00   0.00  -0.00
   7   8     0.00  -0.00  -0.00     0.00   0.00  -0.00     0.00  -0.00   0.00
   8   1     0.00   0.00   0.00    -0.00  -0.00  -0.00    -0.00  -0.00  -0.00
   9   1    -0.00   0.00  -0.00     0.00   0.00   0.00     0.00   0.00  -0.00
  10   8     0.00   0.00   0.00     0.00   0.00   0.00     0.00   0.00   0.00
  11   1    -0.00  -0.00  -0.00    -0.01  -0.01  -0.01    -0.00  -0.00  -0.00
  12   1    -0.00   0.00   0.00     0.00   0.00   0.00     0.00   0.00   0.00
  13   8    -0.00  -0.00   0.00     0.00   0.00  -0.00    -0.00   0.00  -0.00
  14   1     0.00   0.00   0.00     0.00   0.00  -0.00     0.00  -0.00  -0.00
  15   1     0.00   0.00  -0.00    -0.00  -0.00   0.00    -0.00  -0.00   0.00
  16   8    -0.00   0.00   0.00    -0.00   0.00   0.00    -0.00   0.00   0.00
  17   1    -0.00   0.00  -0.00    -0.00   0.00   0.00    -0.00  -0.00   0.00
  18   1     0.00  -0.01  -0.00     0.00  -0.01  -0.01     0.00  -0.01  -0.01
  19   8     0.01   0.20  -0.13     0.00   0.00  -0.00     0.00   0.01  -0.00
  20   1    -0.01   0.02  -0.03    -0.00   0.00  -0.00    -0.00   0.00  -0.00
  21   1    -0.03  -0.80   0.54    -0.00  -0.01   0.00    -0.00  -0.02   0.02
  22   8    -0.00  -0.00   0.00     0.00   0.00  -0.00    -0.00  -0.00   0.00
  23   1    -0.00  -0.00   0.00     0.00   0.00   0.00    -0.00  -0.00   0.00
  24   1     0.00   0.01  -0.00    -0.00  -0.01   0.00     0.00   0.02  -0.00
  25   8    -0.00  -0.00   0.00     0.00   0.00  -0.00    -0.00   0.00   0.00
  26   1    -0.00  -0.00   0.00    -0.00   0.00   0.00     0.00  -0.00  -0.00
  27   1     0.00   0.00  -0.00    -0.00  -0.00   0.00    -0.00   0.00   0.00
  28   8    -0.00  -0.00   0.00     0.00   0.00  -0.00     0.00   0.00  -0.00
  29   1    -0.00  -0.00   0.00    -0.00   0.00  -0.00    -0.00   0.00  -0.00
  30   1     0.00   0.00  -0.00    -0.02  -0.01   0.02    -0.00  -0.00   0.00
  31   8     0.01   0.00  -0.00     0.00   0.00  -0.00     0.00   0.00  -0.00
  32   1     0.00   0.00  -0.00     0.00   0.00  -0.00     0.00   0.00  -0.00
  33   1    -0.03  -0.00   0.00    -0.00  -0.00   0.00    -0.00  -0.00   0.00
  34   8    -0.00   0.00   0.00     0.00   0.00  -0.00    -0.00  -0.00   0.00
  35   1    -0.00   0.00  -0.00     0.00  -0.00  -0.00    -0.00   0.00   0.00
  36   1     0.00  -0.00  -0.00     0.00  -0.00   0.00     0.00  -0.00  -0.00
  37   8     0.00   0.00   0.00     0.00   0.00  -0.00     0.00  -0.00   0.00
  38   1     0.00  -0.00  -0.00     0.00   0.00  -0.00    -0.00   0.00  -0.00
  39   1    -0.00  -0.00   0.00    -0.00  -0.00   0.00     0.00   0.00  -0.00
  40   8     0.00  -0.01   0.00     0.01  -0.02   0.01    -0.11   0.17  -0.11
  41   1     0.00  -0.00   0.00    -0.00  -0.00   0.00     0.00   0.03  -0.02
  42   1    -0.01   0.02  -0.01    -0.04   0.07  -0.05     0.45  -0.71   0.47
  43   8     0.00   0.00  -0.00    -0.14  -0.19   0.04    -0.01  -0.02   0.00
  44   1     0.00   0.00  -0.00    -0.00  -0.03   0.00    -0.00  -0.00   0.00
  45   1    -0.01  -0.01   0.00     0.55   0.78  -0.15     0.05   0.07  -0.01
  46   8     0.00  -0.00  -0.00     0.00  -0.00  -0.00     0.00  -0.00   0.00
  47   1     0.00  -0.00   0.00     0.00   0.00   0.00     0.00  -0.00  -0.00
  48   1    -0.02   0.02  -0.00    -0.00   0.00  -0.00    -0.00   0.00  -0.00
  49   8     0.00  -0.00  -0.00    -0.00   0.00  -0.00     0.00   0.00   0.00
  50   1    -0.00   0.00   0.00     0.00  -0.00  -0.00     0.00  -0.00   0.00
  51   1    -0.00  -0.00  -0.00     0.00   0.00   0.00    -0.00  -0.00  -0.00
  52   8    -0.00  -0.00   0.00    -0.00   0.00   0.00     0.00  -0.00  -0.00
  53   1     0.01   0.01  -0.01     0.00   0.00  -0.00    -0.00  -0.00   0.00
  54   1    -0.00   0.00  -0.00     0.00  -0.00  -0.00    -0.02   0.01   0.00
  55   8     0.00  -0.00   0.00    -0.00   0.00   0.00     0.00   0.00  -0.00
  56   1    -0.00   0.00  -0.00    -0.00  -0.00  -0.00    -0.00  -0.00   0.00
  57   1    -0.00   0.00  -0.00    -0.00  -0.00   0.00    -0.00  -0.00  -0.00
  58   8     0.00   0.00   0.00    -0.00   0.00  -0.00     0.00  -0.00   0.00
  59   1    -0.00   0.00  -0.00     0.00  -0.00   0.00    -0.00   0.00  -0.00
  60   1    -0.00  -0.00  -0.00    -0.00  -0.00  -0.00    -0.00   0.00  -0.00
  61   8    -0.00  -0.00  -0.00     0.00   0.00   0.00     0.00   0.00   0.00
  62   1     0.00  -0.00  -0.00    -0.00   0.00   0.00    -0.00   0.00   0.00
  63   1     0.00   0.00   0.00    -0.02  -0.02  -0.02    -0.00  -0.00  -0.00
  64   8    -0.00  -0.00  -0.00    -0.00  -0.00  -0.00    -0.00  -0.00  -0.00
  65   1     0.00   0.01   0.02     0.00   0.00   0.00     0.00   0.00   0.00
  66   1    -0.00  -0.00  -0.00    -0.00  -0.00  -0.00    -0.00  -0.00  -0.00
  67   8    -0.00  -0.00   0.00    -0.00  -0.00   0.00    -0.00  -0.00   0.00
  68   1     0.00   0.00   0.00     0.00   0.00  -0.00     0.00   0.00  -0.00
  69   1     0.00   0.00  -0.00     0.00  -0.00  -0.00    -0.00   0.00   0.00
  70   8     0.00  -0.00  -0.00    -0.00   0.00   0.00     0.00  -0.00  -0.00
  71   1     0.00   0.00  -0.00    -0.00   0.00   0.00     0.00   0.00  -0.00
  72   1    -0.00   0.00   0.00     0.00  -0.00  -0.00    -0.00   0.00   0.00
  73   8    -0.00  -0.00  -0.00    -0.00   0.00  -0.00    -0.00  -0.00  -0.00
  74   1    -0.00   0.00   0.00     0.00  -0.00  -0.00    -0.00  -0.00   0.00
  75   1     0.00   0.00   0.00     0.00   0.00   0.00     0.00   0.00   0.00
