      -----------------------------------------------------------      
     |                   =====================                   |     
     |                           x T B                           |     
     |                   =====================                   |     
     |                         S. Grimme                         |     
     |          Mulliken Center for Theoretical Chemistry        |     
     |                    University of Bonn                     |     
      -----------------------------------------------------------      

   * xtb version 6.5.1 (579679a) compiled by 'ehlert@majestix' on 2022-07-11

   xtb is free software: you can redistribute it and/or modify it under
   the terms of the GNU Lesser General Public License as published by
   the Free Software Foundation, either version 3 of the License, or
   (at your option) any later version.
   
   xtb is distributed in the hope that it will be useful,
   but WITHOUT ANY WARRANTY; without even the implied warranty of
   MERCHANTABILITY or FITNESS FOR A PARTICULAR PURPOSE.  See the
   GNU Lesser General Public License for more details.
   
   Cite this work as:
   * C. Bannwarth, E. Caldeweyher, S. Ehlert, A. Hansen, P. Pracht,
     J. Seibert, S. Spicher, S. Grimme, WIREs Comput. Mol. Sci., 2020, 11,
     e01493. DOI: 10.1002/wcms.1493
   
   for GFN2-xTB:
   * C. Bannwarth, S. Ehlert and S. Grimme., J. Chem. Theory Comput., 2019,
     15, 1652-1671. DOI: 10.1021/acs.jctc.8b01176
   for GFN1-xTB:
   * S. Grimme, C. Bannwarth, P. Shushkov, J. Chem. Theory Comput., 2017,
     13, 1989-2009. DOI: 10.1021/acs.jctc.7b00118
   for GFN0-xTB:
   * P. Pracht, E. Caldeweyher, S. Ehlert, S. Grimme, ChemRxiv, 2019, preprint.
     DOI: 10.26434/chemrxiv.8326202.v1
   for GFN-FF:
   * S. Spicher and S. Grimme, Angew. Chem. Int. Ed., 2020, 59, 15665-15673.
     DOI: 10.1002/anie.202004239
   
   for ALPB and GBSA implicit solvation:
   * S. Ehlert, M. Stahn, S. Spicher, S. Grimme, J. Chem. Theory Comput.,
     2021, 17, 4250-4261. DOI: 10.1021/acs.jctc.1c00471
   
   for DFT-D4:
   * E. Caldeweyher, C. Bannwarth and S. Grimme, J. Chem. Phys., 2017,
     147, 034112. DOI: 10.1063/1.4993215
   * E. Caldeweyher, S. Ehlert, A. Hansen, H. Neugebauer, S. Spicher,
     C. Bannwarth and S. Grimme, J. Chem. Phys., 2019, 150, 154122.
     DOI: 10.1063/1.5090222
   * E. Caldeweyher, J.-M. Mewes, S. Ehlert and S. Grimme, Phys. Chem. Chem. Phys.
     2020, 22, 8499-8512. DOI: 10.1039/D0CP00502A
   
   for sTDA-xTB:
   * S. Grimme and C. Bannwarth, J. Chem. Phys., 2016, 145, 054103.
     DOI: 10.1063/1.4959605
   
   in the mass-spec context:
   * V. Asgeirsson, C. Bauer and S. Grimme, Chem. Sci., 2017, 8, 4879.
     DOI: 10.1039/c7sc00601b
   * J. Koopman and S. Grimme, ACS Omega 2019, 4, 12, 15120-15133.
     DOI: 10.1021/acsomega.9b02011
   
   for metadynamics refer to:
   * S. Grimme, J. Chem. Theory Comput., 2019, 155, 2847-2862
     DOI: 10.1021/acs.jctc.9b00143
   
   for SPH calculations refer to:
   * S. Spicher and S. Grimme, J. Chem. Theory Comput., 2021, 17, 1701-1714
     DOI: 10.1021/acs.jctc.0c01306
   
   with help from (in alphabetical order)
   P. Atkinson, C. Bannwarth, F. Bohle, G. Brandenburg, E. Caldeweyher
   M. Checinski, S. Dohm, S. Ehlert, S. Ehrlich, I. Gerasimov, C. Hölzer
   A. Katbashev, J. Koopman, C. Lavigne, S. Lehtola, F. März, M. Müller,
   F. Musil, H. Neugebauer, J. Pisarek, C. Plett, P. Pracht, F. Pultar,
   J. Seibert, P. Shushkov, S. Spicher, M. Stahn, M. Steiner, T. Strunk,
   J. Stückrath, T. Rose, and J. Unsleber
   
 * started run on 2022/10/12 at 03:16:08.989     

           -------------------------------------------------
          |                Calculation Setup                |
           -------------------------------------------------

          program call               : xtb solvent_cut.coord --gfn2 --ohess
          hostname                   : cn1257
          coordinate file            : solvent_cut.coord
          omp threads                :                    10

   ID    Z sym.   atoms
    1    8 o      1, 4, 7, 10, 13, 16, 19, 22, 25, 28, 31, 34, 37, 40, 43,
                  46, 49, 52, 55, 58, 61, 64, 67, 70, 73
    2    1 h      2, 3, 5, 6, 8, 9, 11, 12, 14, 15, 17, 18, 20, 21, 23, 24,
                  26, 27, 29, 30, 32, 33, 35, 36, 38, 39, 41, 42, 44, 45, 47,
                  48, 50, 51, 53, 54, 56, 57, 59, 60, 62, 63, 65, 66, 68, 69,
                  71, 72, 74, 75

molecular fragmentation (1/2 indicates fragments):
111222222222222222222222222222222222222222222222222222222222222222222222
222
# atoms in fragment 1/2:     3    72
 fragment masses (1/2) :       18.02      432.37
CMA distance (Bohr)    :   8.157
constraining FC (au)   :  0.0500

           -------------------------------------------------
          |                 G F N 2 - x T B                 |
           -------------------------------------------------

        Reference                      10.1021/acs.jctc.8b01176
      * Hamiltonian:
        H0-scaling (s, p, d)           1.850000    2.230000    2.230000
        zeta-weighting                 0.500000
      * Dispersion:
        s8                             2.700000
        a1                             0.520000
        a2                             5.000000
        s9                             5.000000
      * Repulsion:
        kExp                           1.500000    1.000000
        rExp                           1.000000
      * Coulomb:
        alpha                          2.000000
        third order                    shell-resolved
        anisotropic                    true
        a3                             3.000000
        a5                             4.000000
        cn-shift                       1.200000
        cn-exp                         4.000000
        max-rad                        5.000000


          ...................................................
          :                      SETUP                      :
          :.................................................:
          :  # basis functions                 150          :
          :  # atomic orbitals                 150          :
          :  # shells                          100          :
          :  # electrons                       200          :
          :  max. iterations                   250          :
          :  Hamiltonian                  GFN2-xTB          :
          :  restarted?                      false          :
          :  GBSA solvation                  false          :
          :  PC potential                    false          :
          :  electronic temp.          300.0000000     K    :
          :  accuracy                    1.0000000          :
          :  -> integral cutoff          0.2500000E+02      :
          :  -> integral neglect         0.1000000E-07      :
          :  -> SCF convergence          0.1000000E-05 Eh   :
          :  -> wf. convergence          0.1000000E-03 e    :
          :  Broyden damping             0.4000000          :
          ...................................................

 iter      E             dE          RMSdq      gap      omega  full diag
   1   -127.8862222 -0.127886E+03  0.403E+00   11.08       0.0  T
   2   -127.8950753 -0.885312E-02  0.239E+00   10.66       1.0  T
   3   -127.8983889 -0.331358E-02  0.229E-01   10.10       1.0  T
   4   -127.8990054 -0.616522E-03  0.563E-02   10.24       1.0  T
   5   -127.8990385 -0.330565E-04  0.344E-02   10.21       1.0  T
   6   -127.8990445 -0.597806E-05  0.246E-03   10.22       4.7  T
   7   -127.8990445 -0.621682E-07  0.855E-04   10.22      13.5  T
   8   -127.8990445 -0.379806E-08  0.460E-04   10.22      25.1  T

   *** convergence criteria satisfied after 8 iterations ***

         #    Occupation            Energy/Eh            Energy/eV
      -------------------------------------------------------------
         1        2.0000           -0.7051572             -19.1883
       ...           ...                  ...                  ...
        94        2.0000           -0.4277294             -11.6391
        95        2.0000           -0.4270284             -11.6200
        96        2.0000           -0.4264235             -11.6036
        97        2.0000           -0.4252370             -11.5713
        98        2.0000           -0.4208461             -11.4518
        99        2.0000           -0.4191218             -11.4049
       100        2.0000           -0.4124254             -11.2227 (HOMO)
       101                         -0.0368411              -1.0025 (LUMO)
       102                         -0.0120871              -0.3289
       103                          0.0001034               0.0028
       104                          0.0047274               0.1286
       105                          0.0321290               0.8743
       ...                                ...                  ...
       150                          0.3574889               9.7278
      -------------------------------------------------------------
                  HL-Gap            0.3755843 Eh           10.2202 eV
             Fermi-level           -0.2246333 Eh           -6.1126 eV

 SCC (total)                   0 d,  0 h,  0 min,  0.070 sec
 SCC setup                      ...        0 min,  0.001 sec (  0.716%)
 Dispersion                     ...        0 min,  0.001 sec (  1.336%)
 classical contributions        ...        0 min,  0.001 sec (  0.729%)
 integral evaluation            ...        0 min,  0.004 sec (  5.650%)
 iterations                     ...        0 min,  0.050 sec ( 71.628%)
 molecular gradient             ...        0 min,  0.013 sec ( 18.772%)
 printout                       ...        0 min,  0.001 sec (  1.023%)

         :::::::::::::::::::::::::::::::::::::::::::::::::::::
         ::                     SUMMARY                     ::
         :::::::::::::::::::::::::::::::::::::::::::::::::::::
         :: total energy            -127.137831197089 Eh    ::
         :: gradient norm              0.033929243168 Eh/a0 ::
         :: HOMO-LUMO gap             10.220169185189 eV    ::
         ::.................................................::
         :: SCC energy              -127.899044518074 Eh    ::
         :: -> isotropic ES            0.761002788921 Eh    ::
         :: -> anisotropic ES         -0.129743718612 Eh    ::
         :: -> anisotropic XC         -0.016367766395 Eh    ::
         :: -> dispersion             -0.036473886144 Eh    ::
         :: repulsion energy           0.758698086725 Eh    ::
         :: add. restraining           0.000000000000 Eh    ::
         :: total charge              -0.000000000000 e     ::
         :::::::::::::::::::::::::::::::::::::::::::::::::::::

      ----------------------------------------------------------- 
     |                   =====================                   |
     |                        A N C O P T                        |
     |                   =====================                   |
     |               Approximate Normal Coordinate               |
     |                Rational Function Optimizer                |
      ----------------------------------------------------------- 

          ...................................................
          :                      SETUP                      :
          :.................................................:
          :   optimization level            normal          :
          :   max. optcycles                   225          :
          :   ANC micro-cycles                  20          :
          :   degrees of freedom               219          :
          :.................................................:
          :   RF solver                   davidson          :
          :   write xtbopt.log                true          :
          :   linear?                        false          :
          :   energy convergence         0.5000000E-05 Eh   :
          :   grad. convergence          0.1000000E-02 Eh/α :
          :   maximium RF displ.         1.0000000          :
          :   Hlow (freq-cutoff)         0.1000000E-01      :
          :   Hmax (freq-cutoff)         5.0000000          :
          :   S6 in model hess.         20.0000000          :
          ...................................................

generating ANC from model Hessian ...
Using Lindh-Hessian (1995)
 Shifting diagonal of input Hessian by   1.058437223072408E-002
 Lowest  eigenvalues of input Hessian
    0.010000    0.010406    0.010430    0.010474    0.010496    0.010560
    0.010574    0.000000    0.000000    0.000000    0.000000    0.000000
    0.000000    0.010585    0.010603    0.010620    0.010635    0.010666
 Highest eigenvalues
    1.406365    1.409142    1.411179    1.411488    1.415617    1.420770
 

........................................................................
.............................. CYCLE    1 ..............................
........................................................................
   1   -127.8990445 -0.127899E+03  0.480E-05   10.22       0.0  T
   2   -127.8990445 -0.126477E-10  0.271E-05   10.22     426.2  T
   3   -127.8990445 -0.325429E-11  0.711E-06   10.22    1624.1  T
     SCC iter.                  ...        0 min,  0.015 sec
     gradient                   ...        0 min,  0.013 sec
 * total energy  :  -127.1378312 Eh     change       -0.2429360E-08 Eh
   gradient norm :     0.0339305 Eh/α   predicted     0.0000000E+00 (-100.00%)
   displ. norm   :     0.4470870 α      lambda       -0.5506011E-02
   maximum displ.:     0.2799899 α      in ANC's #1, #2, #52, ...

........................................................................
.............................. CYCLE    2 ..............................
........................................................................
   1   -127.9027244 -0.127903E+03  0.880E-02   10.28       0.0  T
   2   -127.9027455 -0.210520E-04  0.535E-02   10.29       1.0  T
   3   -127.9027506 -0.511234E-05  0.788E-03   10.31       1.5  T
   4   -127.9027513 -0.670412E-06  0.166E-03   10.31       6.9  T
   5   -127.9027513 -0.707382E-08  0.253E-04   10.31      45.6  T
   6   -127.9027513 -0.238245E-09  0.104E-04   10.31     111.4  T
     SCC iter.                  ...        0 min,  0.027 sec
     gradient                   ...        0 min,  0.013 sec
 * total energy  :  -127.1414912 Eh     change       -0.3660017E-02 Eh
   gradient norm :     0.0201798 Eh/α   predicted    -0.3303360E-02 (  -9.74%)
   displ. norm   :     0.4908219 α      lambda       -0.3361318E-02
   maximum displ.:     0.1538468 α      in ANC's #1, #2, #33, ...

........................................................................
.............................. CYCLE    3 ..............................
........................................................................
   1   -127.9076729 -0.127908E+03  0.654E-02   10.33       0.0  T
   2   -127.9076973 -0.244386E-04  0.383E-02   10.34       1.0  T
   3   -127.9077014 -0.411519E-05  0.920E-03   10.35       1.3  T
   4   -127.9077020 -0.555424E-06  0.144E-03   10.35       8.0  T
   5   -127.9077020 -0.699463E-08  0.270E-04   10.35      42.7  T
   6   -127.9077020 -0.329109E-09  0.958E-05   10.35     120.6  T
     SCC iter.                  ...        0 min,  0.027 sec
     gradient                   ...        0 min,  0.013 sec
 * total energy  :  -127.1437411 Eh     change       -0.2249856E-02 Eh
   gradient norm :     0.0149537 Eh/α   predicted    -0.2085570E-02 (  -7.30%)
   displ. norm   :     0.5346705 α      lambda       -0.2178096E-02
   maximum displ.:     0.2526579 α      in ANC's #1, #2, #24, ...

........................................................................
.............................. CYCLE    4 ..............................
........................................................................
   1   -127.9099320 -0.127910E+03  0.514E-02   10.34       0.0  T
   2   -127.9099423 -0.103149E-04  0.308E-02   10.34       1.0  T
   3   -127.9099444 -0.208246E-05  0.575E-03   10.34       2.0  T
   4   -127.9099447 -0.298141E-06  0.110E-03   10.35      10.5  T
   5   -127.9099447 -0.408420E-08  0.189E-04   10.35      61.2  T
   6   -127.9099447 -0.142151E-09  0.755E-05   10.35     152.9  T
     SCC iter.                  ...        0 min,  0.027 sec
     gradient                   ...        0 min,  0.013 sec
 * total energy  :  -127.1454445 Eh     change       -0.1703467E-02 Eh
   gradient norm :     0.0131619 Eh/α   predicted    -0.1400377E-02 ( -17.79%)
   displ. norm   :     0.6433802 α      lambda       -0.2126490E-02
   maximum displ.:     0.2505453 α      in ANC's #1, #24, #2, ...

........................................................................
.............................. CYCLE    5 ..............................
........................................................................
   1   -127.9112958 -0.127911E+03  0.530E-02   10.32       0.0  T
   2   -127.9113036 -0.772375E-05  0.319E-02   10.32       1.0  T
   3   -127.9113053 -0.174438E-05  0.506E-03   10.32       2.3  T
   4   -127.9113055 -0.251761E-06  0.101E-03   10.32      11.5  T
   5   -127.9113056 -0.284527E-08  0.158E-04   10.32      72.9  T
   6   -127.9113056 -0.120252E-09  0.614E-05   10.32     188.1  T
     SCC iter.                  ...        0 min,  0.027 sec
     gradient                   ...        0 min,  0.013 sec
 * total energy  :  -127.1471705 Eh     change       -0.1725946E-02 Eh
   gradient norm :     0.0125864 Eh/α   predicted    -0.1503366E-02 ( -12.90%)
   displ. norm   :     0.7255348 α      lambda       -0.2176669E-02
   maximum displ.:     0.2710878 α      in ANC's #2, #24, #1, ...

........................................................................
.............................. CYCLE    6 ..............................
........................................................................
   1   -127.9066552 -0.127907E+03  0.689E-02   10.30       0.0  T
   2   -127.9066655 -0.103051E-04  0.419E-02   10.31       1.0  T
   3   -127.9066689 -0.339214E-05  0.585E-03   10.31       2.0  T
   4   -127.9066693 -0.348489E-06  0.168E-03   10.31       6.9  T
   5   -127.9066693 -0.900599E-08  0.195E-04   10.31      59.3  T
   6   -127.9066693 -0.234991E-09  0.773E-05   10.31     149.4  T
     SCC iter.                  ...        0 min,  0.027 sec
     gradient                   ...        0 min,  0.013 sec
 * total energy  :  -127.1487804 Eh     change       -0.1609899E-02 Eh
   gradient norm :     0.0216586 Eh/α   predicted    -0.1661240E-02 (   3.19%)
   displ. norm   :     0.6625869 α      lambda       -0.2331734E-02
   maximum displ.:     0.2655118 α      in ANC's #24, #2, #32, ...

........................................................................
.............................. CYCLE    7 ..............................
........................................................................
   1   -127.9072492 -0.127907E+03  0.614E-02   10.25       0.0  T
   2   -127.9072621 -0.128093E-04  0.367E-02   10.25       1.0  T
   3   -127.9072654 -0.333930E-05  0.664E-03   10.25       1.7  T
   4   -127.9072658 -0.389052E-06  0.160E-03   10.25       7.2  T
   5   -127.9072658 -0.820711E-08  0.257E-04   10.25      45.0  T
   6   -127.9072658 -0.362391E-09  0.835E-05   10.25     138.3  T
     SCC iter.                  ...        0 min,  0.027 sec
     gradient                   ...        0 min,  0.013 sec
 * total energy  :  -127.1501316 Eh     change       -0.1351228E-02 Eh
   gradient norm :     0.0195784 Eh/α   predicted    -0.1677715E-02 (  24.16%)
   displ. norm   :     0.5658347 α      lambda       -0.1556565E-02
   maximum displ.:     0.2401502 α      in ANC's #24, #2, #1, ...

........................................................................
.............................. CYCLE    8 ..............................
........................................................................
   1   -127.8993076 -0.127899E+03  0.576E-02   10.20       0.0  T
   2   -127.8993127 -0.510346E-05  0.352E-02   10.21       1.0  T
   3   -127.8993146 -0.191711E-05  0.386E-03   10.21       3.0  T
   4   -127.8993148 -0.154810E-06  0.120E-03   10.21       9.6  T
   5   -127.8993148 -0.399136E-08  0.146E-04   10.21      79.3  T
   6   -127.8993148 -0.111484E-09  0.638E-05   10.21     181.1  T
     SCC iter.                  ...        0 min,  0.027 sec
     gradient                   ...        0 min,  0.013 sec
 * total energy  :  -127.1510923 Eh     change       -0.9607156E-03 Eh
   gradient norm :     0.0180689 Eh/α   predicted    -0.1027466E-02 (   6.95%)
   displ. norm   :     0.5273025 α      lambda       -0.1908974E-02
   maximum displ.:     0.2365493 α      in ANC's #24, #2, #39, ...

........................................................................
.............................. CYCLE    9 ..............................
........................................................................
   1   -127.9044656 -0.127904E+03  0.807E-02   10.26       0.0  T
   2   -127.9044873 -0.217716E-04  0.477E-02   10.27       1.0  T
   3   -127.9044925 -0.514731E-05  0.877E-03   10.28       1.3  T
   4   -127.9044931 -0.637573E-06  0.195E-03   10.28       5.9  T
   5   -127.9044931 -0.872888E-08  0.306E-04   10.28      37.8  T
   6   -127.9044931 -0.437083E-09  0.966E-05   10.28     119.5  T
     SCC iter.                  ...        0 min,  0.027 sec
     gradient                   ...        0 min,  0.013 sec
 * total energy  :  -127.1510527 Eh     change        0.3961959E-04 Eh
   gradient norm :     0.0436838 Eh/α   predicted    -0.1219901E-02 (*******%)
   displ. norm   :     0.2123622 α      lambda       -0.1941711E-02
   maximum displ.:     0.0614394 α      in ANC's #24, #43, #15, ...

........................................................................
.............................. CYCLE   10 ..............................
........................................................................
   1   -127.9078534 -0.127908E+03  0.527E-02   10.29       0.0  T
   2   -127.9078587 -0.525076E-05  0.319E-02   10.28       1.0  T
   3   -127.9078606 -0.191715E-05  0.426E-03   10.28       2.7  T
   4   -127.9078607 -0.147266E-06  0.122E-03   10.28       9.4  T
   5   -127.9078607 -0.342129E-08  0.125E-04   10.28      92.1  T
   6   -127.9078607 -0.839151E-10  0.547E-05   10.28     211.1  T
     SCC iter.                  ...        0 min,  0.027 sec
     gradient                   ...        0 min,  0.013 sec
 * total energy  :  -127.1521346 Eh     change       -0.1081850E-02 Eh
   gradient norm :     0.0204638 Eh/α   predicted    -0.1014639E-02 (  -6.21%)
   displ. norm   :     0.2709268 α      lambda       -0.9168471E-03
   maximum displ.:     0.0860794 α      in ANC's #15, #1, #48, ...

........................................................................
.............................. CYCLE   11 ..............................
........................................................................
   1   -127.9040284 -0.127904E+03  0.443E-02   10.25       0.0  T
   2   -127.9040331 -0.475888E-05  0.267E-02   10.24       1.0  T
   3   -127.9040346 -0.151680E-05  0.402E-03   10.24       2.9  T
   4   -127.9040348 -0.148174E-06  0.112E-03   10.24      10.3  T
   5   -127.9040348 -0.309140E-08  0.123E-04   10.24      94.1  T
   6   -127.9040348 -0.878941E-10  0.517E-05   10.24     223.5  T
     SCC iter.                  ...        0 min,  0.027 sec
     gradient                   ...        0 min,  0.013 sec
 * total energy  :  -127.1525030 Eh     change       -0.3684802E-03 Eh
   gradient norm :     0.0141808 Eh/α   predicted    -0.4920748E-03 (  33.54%)
   displ. norm   :     0.2785539 α      lambda       -0.5917621E-03
   maximum displ.:     0.0974036 α      in ANC's #15, #24, #2, ...

........................................................................
.............................. CYCLE   12 ..............................
........................................................................
   1   -127.9054972 -0.127905E+03  0.310E-02   10.25       0.0  T
   2   -127.9054989 -0.169452E-05  0.188E-02   10.25       1.0  T
   3   -127.9054994 -0.469239E-06  0.231E-03   10.25       5.0  T
   4   -127.9054994 -0.558211E-07  0.572E-04   10.25      20.2  T
   5   -127.9054995 -0.818630E-09  0.829E-05   10.25     139.2  T
     SCC iter.                  ...        0 min,  0.023 sec
     gradient                   ...        0 min,  0.013 sec
 * total energy  :  -127.1529742 Eh     change       -0.4711898E-03 Eh
   gradient norm :     0.0085092 Eh/α   predicted    -0.3188398E-03 ( -32.33%)
   displ. norm   :     0.5415474 α      lambda       -0.9963606E-03
   maximum displ.:     0.2067515 α      in ANC's #15, #13, #24, ...

........................................................................
.............................. CYCLE   13 ..............................
........................................................................
   1   -127.9085932 -0.127909E+03  0.640E-02   10.29       0.0  T
   2   -127.9085998 -0.665776E-05  0.390E-02   10.29       1.0  T
   3   -127.9086016 -0.182102E-05  0.442E-03   10.30       2.6  T
   4   -127.9086019 -0.225721E-06  0.107E-03   10.30      10.7  T
   5   -127.9086019 -0.274386E-08  0.157E-04   10.30      73.5  T
   6   -127.9086019 -0.103967E-09  0.643E-05   10.30     179.7  T
     SCC iter.                  ...        0 min,  0.027 sec
     gradient                   ...        0 min,  0.013 sec
 * total energy  :  -127.1537097 Eh     change       -0.7354227E-03 Eh
   gradient norm :     0.0162449 Eh/α   predicted    -0.6442848E-03 ( -12.39%)
   displ. norm   :     0.6427330 α      lambda       -0.1039889E-02
   maximum displ.:     0.2509750 α      in ANC's #15, #13, #24, ...

........................................................................
.............................. CYCLE   14 ..............................
........................................................................
   1   -127.9068308 -0.127907E+03  0.726E-02   10.30       0.0  T
   2   -127.9068361 -0.526149E-05  0.447E-02   10.31       1.0  T
   3   -127.9068384 -0.227329E-05  0.362E-03   10.33       3.2  T
   4   -127.9068385 -0.122560E-06  0.112E-03   10.33      10.3  T
   5   -127.9068385 -0.313219E-08  0.150E-04   10.33      77.2  T
   6   -127.9068385 -0.876952E-10  0.674E-05   10.33     171.4  T
     SCC iter.                  ...        0 min,  0.027 sec
     gradient                   ...        0 min,  0.013 sec
 * total energy  :  -127.1545222 Eh     change       -0.8125498E-03 Eh
   gradient norm :     0.0216638 Eh/α   predicted    -0.7347366E-03 (  -9.58%)
   displ. norm   :     0.5798340 α      lambda       -0.1304085E-02
   maximum displ.:     0.2277279 α      in ANC's #15, #13, #7, ...

........................................................................
.............................. CYCLE   15 ..............................
........................................................................
   1   -127.9114549 -0.127911E+03  0.631E-02   10.35       0.0  T
   2   -127.9114611 -0.622631E-05  0.385E-02   10.35       1.0  T
   3   -127.9114632 -0.207818E-05  0.431E-03   10.35       2.7  T
   4   -127.9114634 -0.193950E-06  0.121E-03   10.35       9.5  T
   5   -127.9114634 -0.371156E-08  0.147E-04   10.35      78.5  T
   6   -127.9114634 -0.108386E-09  0.665E-05   10.35     173.6  T
     SCC iter.                  ...        0 min,  0.027 sec
     gradient                   ...        0 min,  0.013 sec
 * total energy  :  -127.1553572 Eh     change       -0.8349588E-03 Eh
   gradient norm :     0.0274843 Eh/α   predicted    -0.8712658E-03 (   4.35%)
   displ. norm   :     0.4982219 α      lambda       -0.1990709E-02
   maximum displ.:     0.1666661 α      in ANC's #13, #7, #15, ...

........................................................................
.............................. CYCLE   16 ..............................
........................................................................
   1   -127.9083035 -0.127908E+03  0.678E-02   10.36       0.0  T
   2   -127.9083131 -0.962154E-05  0.413E-02   10.37       1.0  T
   3   -127.9083161 -0.299716E-05  0.539E-03   10.37       2.1  T
   4   -127.9083164 -0.304602E-06  0.147E-03   10.37       7.8  T
   5   -127.9083164 -0.656185E-08  0.200E-04   10.37      57.7  T
   6   -127.9083164 -0.219487E-09  0.840E-05   10.37     137.4  T
     SCC iter.                  ...        0 min,  0.027 sec
     gradient                   ...        0 min,  0.013 sec
 * total energy  :  -127.1566961 Eh     change       -0.1338935E-02 Eh
   gradient norm :     0.0255063 Eh/α   predicted    -0.1242429E-02 (  -7.21%)
   displ. norm   :     0.4523048 α      lambda       -0.2431210E-02
   maximum displ.:     0.1603443 α      in ANC's #7, #13, #41, ...

........................................................................
.............................. CYCLE   17 ..............................
........................................................................
   1   -127.9184248 -0.127918E+03  0.692E-02   10.44       0.0  T
   2   -127.9184405 -0.156690E-04  0.407E-02   10.45       1.0  T
   3   -127.9184445 -0.398895E-05  0.732E-03   10.46       1.6  T
   4   -127.9184449 -0.442514E-06  0.187E-03   10.46       6.2  T
   5   -127.9184450 -0.103661E-07  0.249E-04   10.46      46.3  T
   6   -127.9184450 -0.355399E-09  0.898E-05   10.46     128.6  T
     SCC iter.                  ...        0 min,  0.027 sec
     gradient                   ...        0 min,  0.013 sec
 * total energy  :  -127.1566958 Eh     change        0.3052110E-06 Eh
   gradient norm :     0.0372550 Eh/α   predicted    -0.1464296E-02 (*******%)
   displ. norm   :     0.4524075 α      lambda       -0.3815511E-02
   maximum displ.:     0.1467206 α      in ANC's #15, #7, #13, ...

........................................................................
.............................. CYCLE   18 ..............................
........................................................................
   1   -127.9135468 -0.127914E+03  0.883E-02   10.43       0.0  T
   2   -127.9135631 -0.163588E-04  0.532E-02   10.43       1.0  T
   3   -127.9135680 -0.484302E-05  0.746E-03   10.43       1.5  T
   4   -127.9135684 -0.483069E-06  0.176E-03   10.43       6.6  T
   5   -127.9135684 -0.719636E-08  0.238E-04   10.43      48.6  T
   6   -127.9135684 -0.308432E-09  0.956E-05   10.43     120.8  T
     SCC iter.                  ...        0 min,  0.027 sec
     gradient                   ...        0 min,  0.013 sec
 * total energy  :  -127.1589594 Eh     change       -0.2263578E-02 Eh
   gradient norm :     0.0275887 Eh/α   predicted    -0.2298222E-02 (   1.53%)
   displ. norm   :     0.6261524 α      lambda       -0.3085206E-02
   maximum displ.:     0.2191371 α      in ANC's #13, #15, #7, ...

........................................................................
.............................. CYCLE   19 ..............................
........................................................................
   1   -127.8968591 -0.127897E+03  0.103E-01   10.26       0.0  T
   2   -127.8968827 -0.236329E-04  0.615E-02   10.25       1.0  T
   3   -127.8968888 -0.608154E-05  0.875E-03   10.25       1.3  T
   4   -127.8968895 -0.745547E-06  0.241E-03   10.25       4.8  T
   5   -127.8968896 -0.178478E-07  0.301E-04   10.25      38.4  T
   6   -127.8968896 -0.554337E-09  0.126E-04   10.25      91.4  T
     SCC iter.                  ...        0 min,  0.027 sec
     gradient                   ...        0 min,  0.014 sec
 * total energy  :  -127.1586042 Eh     change        0.3552002E-03 Eh
   gradient norm :     0.0632478 Eh/α   predicted    -0.2147407E-02 (-704.56%)
   displ. norm   :     0.2693650 α      lambda       -0.5024569E-02
   maximum displ.:     0.0663496 α      in ANC's #52, #49, #51, ...

........................................................................
.............................. CYCLE   20 ..............................
........................................................................
   1   -127.9091877 -0.127909E+03  0.652E-02   10.35       0.0  T
   2   -127.9092028 -0.151314E-04  0.379E-02   10.36       1.0  T
   3   -127.9092069 -0.406838E-05  0.741E-03   10.36       1.6  T
   4   -127.9092073 -0.455270E-06  0.192E-03   10.36       6.0  T
   5   -127.9092073 -0.124419E-07  0.240E-04   10.36      48.1  T
   6   -127.9092073 -0.414502E-09  0.849E-05   10.36     136.0  T
     SCC iter.                  ...        0 min,  0.027 sec
     gradient                   ...        0 min,  0.013 sec
 * total energy  :  -127.1612412 Eh     change       -0.2636986E-02 Eh
   gradient norm :     0.0330148 Eh/α   predicted    -0.2694570E-02 (   2.18%)
   displ. norm   :     0.5186582 α      lambda       -0.4946714E-02
   maximum displ.:     0.1354405 α      in ANC's #56, #41, #7, ...
 * RMSD in coord.:     0.8853223 α      energy gain  -0.2340996E-01 Eh

generating ANC from model Hessian ...
Using Lindh-Hessian (1995)
 Shifting diagonal of input Hessian by   1.015297252884208E-002
 Lowest  eigenvalues of input Hessian
    0.010000    0.010049    0.010085    0.010125    0.000000    0.000000
    0.000000    0.000000    0.000000    0.000000    0.010166    0.010181
    0.010195    0.010218    0.010242    0.010296    0.010311    0.010362
 Highest eigenvalues
    1.410633    1.413198    1.425774    1.426637    1.459655    1.487784
 

........................................................................
.............................. CYCLE   21 ..............................
........................................................................
   1   -127.9184346 -0.127918E+03  0.119E-01   10.36       0.0  T
   2   -127.9184701 -0.355700E-04  0.711E-02   10.36       1.0  T
   3   -127.9184844 -0.143009E-04  0.113E-02   10.35       1.0  T
   4   -127.9184854 -0.101941E-05  0.374E-03   10.35       3.1  T
   5   -127.9184855 -0.487692E-07  0.426E-04   10.35      27.1  T
   6   -127.9184855 -0.126069E-08  0.175E-04   10.35      66.1  T
     SCC iter.                  ...        0 min,  0.027 sec
     gradient                   ...        0 min,  0.013 sec
 * total energy  :  -127.1580632 Eh     change        0.3177907E-02 Eh
   gradient norm :     0.0902003 Eh/α   predicted     0.0000000E+00 (-100.00%)
   displ. norm   :     0.3020749 α      lambda       -0.9427940E-02
   maximum displ.:     0.0989812 α      in ANC's #32, #80, #118, ...

........................................................................
.............................. CYCLE   22 ..............................
........................................................................
   1   -127.9163988 -0.127916E+03  0.924E-02   10.37       0.0  T
   2   -127.9164153 -0.164983E-04  0.561E-02   10.37       1.0  T
   3   -127.9164226 -0.723598E-05  0.726E-03   10.37       1.6  T
   4   -127.9164230 -0.393720E-06  0.229E-03   10.37       5.0  T
   5   -127.9164230 -0.171741E-07  0.272E-04   10.37      42.4  T
   6   -127.9164230 -0.380936E-09  0.123E-04   10.37      93.7  T
     SCC iter.                  ...        0 min,  0.027 sec
     gradient                   ...        0 min,  0.013 sec
 * total energy  :  -127.1642923 Eh     change       -0.6229068E-02 Eh
   gradient norm :     0.0308184 Eh/α   predicted    -0.5145151E-02 ( -17.40%)
   displ. norm   :     0.3224336 α      lambda       -0.3205314E-02
   maximum displ.:     0.1180440 α      in ANC's #32, #17, #22, ...

........................................................................
.............................. CYCLE   23 ..............................
........................................................................
   1   -127.9167945 -0.127917E+03  0.656E-02   10.33       0.0  T
   2   -127.9168004 -0.584148E-05  0.397E-02   10.33       1.0  T
   3   -127.9168027 -0.236518E-05  0.439E-03   10.32       2.6  T
   4   -127.9168029 -0.141517E-06  0.128E-03   10.32       9.0  T
   5   -127.9168029 -0.516575E-08  0.176E-04   10.32      65.4  T
   6   -127.9168029 -0.146699E-09  0.725E-05   10.32     159.2  T
     SCC iter.                  ...        0 min,  0.027 sec
     gradient                   ...        0 min,  0.013 sec
 * total energy  :  -127.1658484 Eh     change       -0.1556122E-02 Eh
   gradient norm :     0.0215120 Eh/α   predicted    -0.1769284E-02 (  13.70%)
   displ. norm   :     0.2972688 α      lambda       -0.1374704E-02
   maximum displ.:     0.1331560 α      in ANC's #32, #17, #23, ...

........................................................................
.............................. CYCLE   24 ..............................
........................................................................
   1   -127.9141363 -0.127914E+03  0.537E-02   10.31       0.0  T
   2   -127.9141439 -0.759053E-05  0.327E-02   10.31       1.0  T
   3   -127.9141458 -0.193916E-05  0.470E-03   10.31       2.5  T
   4   -127.9141461 -0.253588E-06  0.109E-03   10.31      10.6  T
   5   -127.9141461 -0.355253E-08  0.154E-04   10.31      75.0  T
   6   -127.9141461 -0.143970E-09  0.597E-05   10.31     193.3  T
     SCC iter.                  ...        0 min,  0.027 sec
     gradient                   ...        0 min,  0.013 sec
 * total energy  :  -127.1668735 Eh     change       -0.1025100E-02 Eh
   gradient norm :     0.0204377 Eh/α   predicted    -0.7480927E-03 ( -27.02%)
   displ. norm   :     0.4920814 α      lambda       -0.1732819E-02
   maximum displ.:     0.1894317 α      in ANC's #32, #17, #22, ...

........................................................................
.............................. CYCLE   25 ..............................
........................................................................
   1   -127.9133476 -0.127913E+03  0.622E-02   10.28       0.0  T
   2   -127.9133587 -0.110726E-04  0.380E-02   10.28       1.0  T
   3   -127.9133616 -0.294077E-05  0.573E-03   10.27       2.0  T
   4   -127.9133620 -0.366709E-06  0.149E-03   10.27       7.7  T
   5   -127.9133620 -0.766626E-08  0.234E-04   10.27      49.3  T
   6   -127.9133620 -0.306130E-09  0.835E-05   10.27     138.3  T
     SCC iter.                  ...        0 min,  0.027 sec
     gradient                   ...        0 min,  0.013 sec
 * total energy  :  -127.1678877 Eh     change       -0.1014160E-02 Eh
   gradient norm :     0.0181488 Eh/α   predicted    -0.1076206E-02 (   6.12%)
   displ. norm   :     0.3790875 α      lambda       -0.1243786E-02
   maximum displ.:     0.1566104 α      in ANC's #17, #32, #23, ...

........................................................................
.............................. CYCLE   26 ..............................
........................................................................
   1   -127.9169106 -0.127917E+03  0.384E-02   10.28       0.0  T
   2   -127.9169142 -0.366726E-05  0.230E-02   10.27       1.0  T
   3   -127.9169152 -0.987498E-06  0.344E-03   10.27       3.4  T
   4   -127.9169154 -0.115781E-06  0.835E-04   10.27      13.8  T
   5   -127.9169154 -0.220464E-08  0.129E-04   10.27      89.5  T
     SCC iter.                  ...        0 min,  0.023 sec
     gradient                   ...        0 min,  0.013 sec
 * total energy  :  -127.1687421 Eh     change       -0.8544278E-03 Eh
   gradient norm :     0.0102744 Eh/α   predicted    -0.7113529E-03 ( -16.75%)
   displ. norm   :     0.5162007 α      lambda       -0.1420882E-02
   maximum displ.:     0.2179934 α      in ANC's #17, #23, #25, ...

........................................................................
.............................. CYCLE   27 ..............................
........................................................................
   1   -127.9208484 -0.127921E+03  0.601E-02   10.26       0.0  T
   2   -127.9208599 -0.114480E-04  0.355E-02   10.25       1.0  T
   3   -127.9208621 -0.224546E-05  0.630E-03   10.24       1.8  T
   4   -127.9208625 -0.342870E-06  0.122E-03   10.24       9.4  T
   5   -127.9208625 -0.427826E-08  0.196E-04   10.24      59.0  T
   6   -127.9208625 -0.189942E-09  0.719E-05   10.24     160.5  T
     SCC iter.                  ...        0 min,  0.027 sec
     gradient                   ...        0 min,  0.013 sec
 * total energy  :  -127.1692947 Eh     change       -0.5525616E-03 Eh
   gradient norm :     0.0204896 Eh/α   predicted    -0.8997518E-03 (  62.83%)
   displ. norm   :     0.3519611 α      lambda       -0.9806619E-03
   maximum displ.:     0.1492392 α      in ANC's #17, #23, #16, ...

........................................................................
.............................. CYCLE   28 ..............................
........................................................................
   1   -127.9181650 -0.127918E+03  0.416E-02   10.20       0.0  T
   2   -127.9181693 -0.422079E-05  0.253E-02   10.20       1.0  T
   3   -127.9181706 -0.132493E-05  0.356E-03   10.20       3.2  T
   4   -127.9181707 -0.128064E-06  0.947E-04   10.20      12.2  T
   5   -127.9181707 -0.240242E-08  0.116E-04   10.20      99.5  T
     SCC iter.                  ...        0 min,  0.023 sec
     gradient                   ...        0 min,  0.013 sec
 * total energy  :  -127.1699209 Eh     change       -0.6262369E-03 Eh
   gradient norm :     0.0124200 Eh/α   predicted    -0.5510738E-03 ( -12.00%)
   displ. norm   :     0.3586411 α      lambda       -0.7890398E-03
   maximum displ.:     0.1583149 α      in ANC's #17, #23, #16, ...

........................................................................
.............................. CYCLE   29 ..............................
........................................................................
   1   -127.9214850 -0.127921E+03  0.412E-02   10.23       0.0  T
   2   -127.9214896 -0.455466E-05  0.248E-02   10.24       1.0  T
   3   -127.9214911 -0.155855E-05  0.390E-03   10.24       3.0  T
   4   -127.9214913 -0.132365E-06  0.112E-03   10.24      10.3  T
   5   -127.9214913 -0.429206E-08  0.144E-04   10.24      80.4  T
   6   -127.9214913 -0.116842E-09  0.547E-05   10.24     211.2  T
     SCC iter.                  ...        0 min,  0.027 sec
     gradient                   ...        0 min,  0.013 sec
 * total energy  :  -127.1700037 Eh     change       -0.8276092E-04 Eh
   gradient norm :     0.0204782 Eh/α   predicted    -0.4452667E-03 ( 438.02%)
   displ. norm   :     0.2983878 α      lambda       -0.9185071E-03
   maximum displ.:     0.1359160 α      in ANC's #17, #16, #23, ...

........................................................................
.............................. CYCLE   30 ..............................
........................................................................
   1   -127.9155914 -0.127916E+03  0.406E-02   10.19       0.0  T
   2   -127.9155935 -0.217924E-05  0.249E-02   10.19       1.0  T
   3   -127.9155946 -0.105429E-05  0.255E-03   10.18       4.5  T
   4   -127.9155946 -0.438249E-07  0.814E-04   10.18      14.2  T
   5   -127.9155946 -0.247235E-08  0.107E-04   10.18     107.7  T
     SCC iter.                  ...        0 min,  0.023 sec
     gradient                   ...        0 min,  0.013 sec
 * total energy  :  -127.1704846 Eh     change       -0.4808666E-03 Eh
   gradient norm :     0.0088981 Eh/α   predicted    -0.5001440E-03 (   4.01%)
   displ. norm   :     0.1627401 α      lambda       -0.3364061E-03
   maximum displ.:     0.0617374 α      in ANC's #17, #16, #13, ...

........................................................................
.............................. CYCLE   31 ..............................
........................................................................
   1   -127.9187974 -0.127919E+03  0.263E-02   10.20       0.0  T
   2   -127.9187997 -0.234099E-05  0.156E-02   10.20       1.0  T
   3   -127.9188002 -0.468395E-06  0.280E-03   10.20       4.1  T
   4   -127.9188003 -0.726869E-07  0.561E-04   10.19      20.6  T
   5   -127.9188003 -0.848004E-09  0.759E-05   10.20     152.2  T
     SCC iter.                  ...        0 min,  0.023 sec
     gradient                   ...        0 min,  0.013 sec
 * total energy  :  -127.1706438 Eh     change       -0.1592701E-03 Eh
   gradient norm :     0.0104686 Eh/α   predicted    -0.1726612E-03 (   8.41%)
   displ. norm   :     0.2547621 α      lambda       -0.2859415E-03
   maximum displ.:     0.1169486 α      in ANC's #17, #16, #1, ...

........................................................................
.............................. CYCLE   32 ..............................
........................................................................
   1   -127.9183530 -0.127918E+03  0.250E-02   10.17       0.0  T
   2   -127.9183540 -0.997929E-06  0.153E-02   10.18       1.0  T
   3   -127.9183544 -0.412949E-06  0.172E-03   10.18       6.7  T
   4   -127.9183545 -0.257200E-07  0.544E-04   10.18      21.2  T
   5   -127.9183545 -0.811852E-09  0.600E-05   10.18     192.5  T
     SCC iter.                  ...        0 min,  0.023 sec
     gradient                   ...        0 min,  0.013 sec
 * total energy  :  -127.1708111 Eh     change       -0.1673208E-03 Eh
   gradient norm :     0.0067585 Eh/α   predicted    -0.1522534E-03 (  -9.01%)
   displ. norm   :     0.2977388 α      lambda       -0.2845670E-03
   maximum displ.:     0.1263116 α      in ANC's #17, #16, #1, ...

........................................................................
.............................. CYCLE   33 ..............................
........................................................................
   1   -127.9195720 -0.127920E+03  0.298E-02   10.19       0.0  T
   2   -127.9195732 -0.115223E-05  0.181E-02   10.19       1.0  T
   3   -127.9195736 -0.401136E-06  0.185E-03   10.20       6.2  T
   4   -127.9195736 -0.349752E-07  0.529E-04   10.20      21.8  T
   5   -127.9195736 -0.816513E-09  0.687E-05   10.20     168.2  T
     SCC iter.                  ...        0 min,  0.023 sec
     gradient                   ...        0 min,  0.013 sec
 * total energy  :  -127.1709692 Eh     change       -0.1581006E-03 Eh
   gradient norm :     0.0053212 Eh/α   predicted    -0.1548995E-03 (  -2.02%)
   displ. norm   :     0.2014437 α      lambda       -0.1323368E-03
   maximum displ.:     0.0812655 α      in ANC's #17, #16, #1, ...

........................................................................
.............................. CYCLE   34 ..............................
........................................................................
   1   -127.9196391 -0.127920E+03  0.200E-02   10.19       0.0  T
   2   -127.9196396 -0.482593E-06  0.123E-02   10.19       1.0  T
   3   -127.9196398 -0.191839E-06  0.116E-03   10.19       9.9  T
   4   -127.9196398 -0.133026E-07  0.353E-04   10.19      32.7  T
   5   -127.9196398 -0.322984E-09  0.418E-05   10.19     276.4  T
     SCC iter.                  ...        0 min,  0.023 sec
     gradient                   ...        0 min,  0.013 sec
 * total energy  :  -127.1710605 Eh     change       -0.9125052E-04 Eh
   gradient norm :     0.0047048 Eh/α   predicted    -0.6885549E-04 ( -24.54%)
   displ. norm   :     0.2414125 α      lambda       -0.1473493E-03
   maximum displ.:     0.0949052 α      in ANC's #1, #16, #17, ...

........................................................................
.............................. CYCLE   35 ..............................
........................................................................
   1   -127.9205702 -0.127921E+03  0.238E-02   10.19       0.0  T
   2   -127.9205711 -0.965093E-06  0.145E-02   10.19       1.0  T
   3   -127.9205714 -0.290454E-06  0.166E-03   10.19       7.0  T
   4   -127.9205714 -0.335356E-07  0.457E-04   10.19      25.3  T
   5   -127.9205714 -0.645002E-09  0.596E-05   10.19     193.8  T
     SCC iter.                  ...        0 min,  0.023 sec
     gradient                   ...        0 min,  0.013 sec
 * total energy  :  -127.1711491 Eh     change       -0.8864442E-04 Eh
   gradient norm :     0.0044960 Eh/α   predicted    -0.7796878E-04 ( -12.04%)
   displ. norm   :     0.1814069 α      lambda       -0.8732794E-04
   maximum displ.:     0.0763111 α      in ANC's #1, #16, #4, ...

........................................................................
.............................. CYCLE   36 ..............................
........................................................................
   1   -127.9211063 -0.127921E+03  0.186E-02   10.19       0.0  T
   2   -127.9211069 -0.597196E-06  0.114E-02   10.19       1.0  T
   3   -127.9211071 -0.206447E-06  0.134E-03   10.19       8.6  T
   4   -127.9211071 -0.188858E-07  0.393E-04   10.19      29.4  T
   5   -127.9211071 -0.497522E-09  0.501E-05   10.19     230.4  T
     SCC iter.                  ...        0 min,  0.023 sec
     gradient                   ...        0 min,  0.013 sec
 * total energy  :  -127.1712040 Eh     change       -0.5489260E-04 Eh
   gradient norm :     0.0032466 Eh/α   predicted    -0.4510397E-04 ( -17.83%)
   displ. norm   :     0.1859046 α      lambda       -0.7573143E-04
   maximum displ.:     0.0818703 α      in ANC's #1, #4, #17, ...

........................................................................
.............................. CYCLE   37 ..............................
........................................................................
   1   -127.9207791 -0.127921E+03  0.171E-02   10.19       0.0  T
   2   -127.9207795 -0.408915E-06  0.104E-02   10.19       1.1  T
   3   -127.9207796 -0.145107E-06  0.110E-03   10.18      10.5  T
   4   -127.9207796 -0.125024E-07  0.321E-04   10.18      36.0  T
   5   -127.9207796 -0.336073E-09  0.450E-05   10.18     256.6  T
     SCC iter.                  ...        0 min,  0.023 sec
     gradient                   ...        0 min,  0.013 sec
 * total energy  :  -127.1712552 Eh     change       -0.5116954E-04 Eh
   gradient norm :     0.0030258 Eh/α   predicted    -0.3917772E-04 ( -23.44%)
   displ. norm   :     0.1897797 α      lambda       -0.7451567E-04
   maximum displ.:     0.0816288 α      in ANC's #1, #3, #22, ...

........................................................................
.............................. CYCLE   38 ..............................
........................................................................
   1   -127.9216599 -0.127922E+03  0.179E-02   10.19       0.0  T
   2   -127.9216603 -0.417911E-06  0.109E-02   10.19       1.1  T
   3   -127.9216605 -0.153698E-06  0.109E-03   10.19      10.6  T
   4   -127.9216605 -0.126071E-07  0.331E-04   10.19      34.8  T
   5   -127.9216605 -0.380979E-09  0.491E-05   10.19     235.1  T
     SCC iter.                  ...        0 min,  0.023 sec
     gradient                   ...        0 min,  0.013 sec
 * total energy  :  -127.1713003 Eh     change       -0.4508077E-04 Eh
   gradient norm :     0.0030916 Eh/α   predicted    -0.3860413E-04 ( -14.37%)
   displ. norm   :     0.1612339 α      lambda       -0.5083247E-04
   maximum displ.:     0.0772062 α      in ANC's #1, #4, #3, ...

........................................................................
.............................. CYCLE   39 ..............................
........................................................................
   1   -127.9204984 -0.127920E+03  0.141E-02   10.18       0.0  T
   2   -127.9204987 -0.231561E-06  0.862E-03   10.18       1.3  T
   3   -127.9204988 -0.932970E-07  0.773E-04   10.18      14.9  T
   4   -127.9204988 -0.597026E-08  0.244E-04   10.18      47.2  T
     SCC iter.                  ...        0 min,  0.019 sec
     gradient                   ...        0 min,  0.013 sec
 * total energy  :  -127.1713328 Eh     change       -0.3252954E-04 Eh
   gradient norm :     0.0024723 Eh/α   predicted    -0.2607735E-04 ( -19.83%)
   displ. norm   :     0.1343418 α      lambda       -0.4403738E-04
   maximum displ.:     0.0642953 α      in ANC's #1, #22, #9, ...

........................................................................
.............................. CYCLE   40 ..............................
........................................................................
   1   -127.9212157 -0.127921E+03  0.117E-02   10.18       0.0  T
   2   -127.9212160 -0.226337E-06  0.708E-03   10.18       1.6  T
   3   -127.9212160 -0.666351E-07  0.818E-04   10.18      14.1  T
   4   -127.9212160 -0.718754E-08  0.210E-04   10.18      55.0  T
     SCC iter.                  ...        0 min,  0.019 sec
     gradient                   ...        0 min,  0.013 sec
 * total energy  :  -127.1713596 Eh     change       -0.2680486E-04 Eh
   gradient norm :     0.0022341 Eh/α   predicted    -0.2242081E-04 ( -16.36%)
   displ. norm   :     0.1303516 α      lambda       -0.3615587E-04
   maximum displ.:     0.0683966 α      in ANC's #1, #9, #4, ...

........................................................................
.............................. CYCLE   41 ..............................
........................................................................
   1   -127.9204750 -0.127920E+03  0.114E-02   10.17       0.0  T
   2   -127.9204753 -0.210368E-06  0.697E-03   10.17       1.7  T
   3   -127.9204753 -0.628701E-07  0.782E-04   10.17      14.8  T
   4   -127.9204753 -0.679975E-08  0.195E-04   10.17      59.1  T
     SCC iter.                  ...        0 min,  0.019 sec
     gradient                   ...        0 min,  0.013 sec
 * total energy  :  -127.1713829 Eh     change       -0.2330950E-04 Eh
   gradient norm :     0.0024525 Eh/α   predicted    -0.1839018E-04 ( -21.10%)
   displ. norm   :     0.1181047 α      lambda       -0.2842806E-04
   maximum displ.:     0.0678898 α      in ANC's #1, #9, #4, ...

........................................................................
.............................. CYCLE   42 ..............................
........................................................................
   1   -127.9203398 -0.127920E+03  0.952E-03   10.17       0.0  T
   2   -127.9203399 -0.142218E-06  0.583E-03   10.17       2.0  T
   3   -127.9203399 -0.474764E-07  0.627E-04   10.17      18.4  T
   4   -127.9203400 -0.452343E-08  0.175E-04   10.17      65.9  T
     SCC iter.                  ...        0 min,  0.019 sec
     gradient                   ...        0 min,  0.013 sec
 * total energy  :  -127.1714044 Eh     change       -0.2142961E-04 Eh
   gradient norm :     0.0021080 Eh/α   predicted    -0.1441627E-04 ( -32.73%)
   displ. norm   :     0.1521337 α      lambda       -0.3554327E-04
   maximum displ.:     0.0833503 α      in ANC's #1, #9, #6, ...
 * RMSD in coord.:     0.4809130 α      energy gain  -0.1016320E-01 Eh

generating ANC from model Hessian ...
Using Lindh-Hessian (1995)
 Shifting diagonal of input Hessian by   1.013564914814335E-002
 Lowest  eigenvalues of input Hessian
    0.010000    0.010042    0.010092    0.000000    0.000000    0.000000
    0.000000    0.000000    0.000000    0.010152    0.010163    0.010178
    0.010211    0.010235    0.010279    0.010298    0.010394    0.010421
 Highest eigenvalues
    1.402947    1.407857    1.408520    1.409209    1.416430    1.419525
 

........................................................................
.............................. CYCLE   43 ..............................
........................................................................
   1   -127.9206159 -0.127921E+03  0.124E-02   10.18       0.0  T
   2   -127.9206161 -0.198403E-06  0.759E-03   10.18       1.5  T
   3   -127.9206162 -0.738563E-07  0.727E-04   10.18      15.9  T
   4   -127.9206162 -0.592094E-08  0.221E-04   10.18      52.2  T
     SCC iter.                  ...        0 min,  0.019 sec
     gradient                   ...        0 min,  0.013 sec
 * total energy  :  -127.1714297 Eh     change       -0.2530396E-04 Eh
   gradient norm :     0.0017253 Eh/α   predicted     0.0000000E+00 (-100.00%)
   displ. norm   :     0.0439479 α      lambda       -0.1559425E-04
   maximum displ.:     0.0189579 α      in ANC's #2, #8, #6, ...

........................................................................
.............................. CYCLE   44 ..............................
........................................................................
   1   -127.9209801 -0.127921E+03  0.679E-03   10.18       0.0  T
   2   -127.9209802 -0.934495E-07  0.413E-03   10.18       2.8  T
   3   -127.9209803 -0.243462E-07  0.530E-04   10.18      21.8  T
   4   -127.9209803 -0.314775E-08  0.121E-04   10.18      95.5  T
     SCC iter.                  ...        0 min,  0.018 sec
     gradient                   ...        0 min,  0.013 sec
 * total energy  :  -127.1714445 Eh     change       -0.1483315E-04 Eh
   gradient norm :     0.0006675 Eh/α   predicted    -0.7817037E-05 ( -47.30%)
   displ. norm   :     0.0743501 α      lambda       -0.1515270E-04
   maximum displ.:     0.0333426 α      in ANC's #2, #8, #6, ...

........................................................................
.............................. CYCLE   45 ..............................
........................................................................
   1   -127.9213858 -0.127921E+03  0.700E-03   10.18       0.0  T
   2   -127.9213860 -0.135925E-06  0.421E-03   10.18       2.7  T
   3   -127.9213860 -0.270068E-07  0.664E-04   10.18      17.4  T
   4   -127.9213860 -0.443748E-08  0.124E-04   10.18      92.9  T
     SCC iter.                  ...        0 min,  0.019 sec
     gradient                   ...        0 min,  0.013 sec
 * total energy  :  -127.1714589 Eh     change       -0.1440151E-04 Eh
   gradient norm :     0.0014593 Eh/α   predicted    -0.7602961E-05 ( -47.21%)
   displ. norm   :     0.1099265 α      lambda       -0.1565424E-04
   maximum displ.:     0.0527207 α      in ANC's #2, #8, #6, ...

........................................................................
.............................. CYCLE   46 ..............................
........................................................................
   1   -127.9215367 -0.127922E+03  0.850E-03   10.19       0.0  T
   2   -127.9215368 -0.102614E-06  0.520E-03   10.18       2.2  T
   3   -127.9215368 -0.338173E-07  0.542E-04   10.18      21.3  T
   4   -127.9215368 -0.321177E-08  0.138E-04   10.18      84.0  T
     SCC iter.                  ...        0 min,  0.019 sec
     gradient                   ...        0 min,  0.013 sec
 * total energy  :  -127.1714766 Eh     change       -0.1769517E-04 Eh
   gradient norm :     0.0014003 Eh/α   predicted    -0.7870241E-05 ( -55.52%)
   displ. norm   :     0.2029426 α      lambda       -0.2617426E-04
   maximum displ.:     0.0999870 α      in ANC's #2, #8, #6, ...

........................................................................
.............................. CYCLE   47 ..............................
........................................................................
   1   -127.9214824 -0.127921E+03  0.157E-02   10.19       0.0  T
   2   -127.9214826 -0.270203E-06  0.964E-03   10.18       1.2  T
   3   -127.9214828 -0.113932E-06  0.842E-04   10.18      13.7  T
   4   -127.9214828 -0.673333E-08  0.249E-04   10.18      46.4  T
     SCC iter.                  ...        0 min,  0.019 sec
     gradient                   ...        0 min,  0.013 sec
 * total energy  :  -127.1715068 Eh     change       -0.3020463E-04 Eh
   gradient norm :     0.0014077 Eh/α   predicted    -0.1332699E-04 ( -55.88%)
   displ. norm   :     0.3303318 α      lambda       -0.3998818E-04
   maximum displ.:     0.1640494 α      in ANC's #2, #8, #6, ...

........................................................................
.............................. CYCLE   48 ..............................
........................................................................
   1   -127.9212040 -0.127921E+03  0.252E-02   10.18       0.0  T
   2   -127.9212046 -0.626227E-06  0.156E-02   10.18       1.0  T
   3   -127.9212049 -0.285593E-06  0.125E-03   10.18       9.2  T
   4   -127.9212049 -0.136590E-07  0.390E-04   10.18      29.6  T
   5   -127.9212049 -0.392490E-09  0.499E-05   10.18     231.5  T
     SCC iter.                  ...        0 min,  0.023 sec
     gradient                   ...        0 min,  0.013 sec
 * total energy  :  -127.1715525 Eh     change       -0.4573177E-04 Eh
   gradient norm :     0.0027227 Eh/α   predicted    -0.2096392E-04 ( -54.16%)
   displ. norm   :     0.3007631 α      lambda       -0.5352584E-04
   maximum displ.:     0.1494660 α      in ANC's #2, #8, #6, ...

........................................................................
.............................. CYCLE   49 ..............................
........................................................................
   1   -127.9210605 -0.127921E+03  0.213E-02   10.18       0.0  T
   2   -127.9210609 -0.439540E-06  0.131E-02   10.18       1.0  T
   3   -127.9210611 -0.194262E-06  0.105E-03   10.18      11.0  T
   4   -127.9210612 -0.100572E-07  0.324E-04   10.18      35.7  T
   5   -127.9210612 -0.260187E-09  0.405E-05   10.18     285.4  T
     SCC iter.                  ...        0 min,  0.023 sec
     gradient                   ...        0 min,  0.013 sec
 * total energy  :  -127.1715982 Eh     change       -0.4572244E-04 Eh
   gradient norm :     0.0034980 Eh/α   predicted    -0.2918415E-04 ( -36.17%)
   displ. norm   :     0.4617909 α      lambda       -0.8968856E-04
   maximum displ.:     0.2291161 α      in ANC's #2, #8, #6, ...

........................................................................
.............................. CYCLE   50 ..............................
........................................................................
   1   -127.9206448 -0.127921E+03  0.329E-02   10.18       0.0  T
   2   -127.9206460 -0.118039E-05  0.203E-02   10.18       1.0  T
   3   -127.9206465 -0.485827E-06  0.174E-03   10.18       6.6  T
   4   -127.9206465 -0.304176E-07  0.520E-04   10.18      22.2  T
   5   -127.9206465 -0.646665E-09  0.641E-05   10.18     180.3  T
     SCC iter.                  ...        0 min,  0.023 sec
     gradient                   ...        0 min,  0.013 sec
 * total energy  :  -127.1716717 Eh     change       -0.7345531E-04 Eh
   gradient norm :     0.0049914 Eh/α   predicted    -0.5440812E-04 ( -25.93%)
   displ. norm   :     0.5006623 α      lambda       -0.1219673E-03
   maximum displ.:     0.2478031 α      in ANC's #2, #8, #6, ...

........................................................................
.............................. CYCLE   51 ..............................
........................................................................
   1   -127.9207529 -0.127921E+03  0.326E-02   10.18       0.0  T
   2   -127.9207543 -0.135808E-05  0.200E-02   10.18       1.0  T
   3   -127.9207547 -0.471380E-06  0.193E-03   10.18       6.0  T
   4   -127.9207548 -0.425677E-07  0.552E-04   10.18      20.9  T
   5   -127.9207548 -0.735099E-09  0.679E-05   10.18     169.9  T
     SCC iter.                  ...        0 min,  0.023 sec
     gradient                   ...        0 min,  0.013 sec
 * total energy  :  -127.1717651 Eh     change       -0.9335877E-04 Eh
   gradient norm :     0.0045902 Eh/α   predicted    -0.7627557E-04 ( -18.30%)
   displ. norm   :     0.4844452 α      lambda       -0.1559487E-03
   maximum displ.:     0.2308146 α      in ANC's #2, #8, #6, ...

........................................................................
.............................. CYCLE   52 ..............................
........................................................................
   1   -127.9200798 -0.127920E+03  0.415E-02   10.18       0.0  T
   2   -127.9200828 -0.293654E-05  0.255E-02   10.18       1.0  T
   3   -127.9200837 -0.883645E-06  0.292E-03   10.18       4.0  T
   4   -127.9200838 -0.978130E-07  0.707E-04   10.18      16.3  T
   5   -127.9200838 -0.110911E-08  0.919E-05   10.18     125.6  T
     SCC iter.                  ...        0 min,  0.023 sec
     gradient                   ...        0 min,  0.013 sec
 * total energy  :  -127.1718608 Eh     change       -0.9570766E-04 Eh
   gradient norm :     0.0087479 Eh/α   predicted    -0.9627640E-04 (   0.59%)
   displ. norm   :     0.3544336 α      lambda       -0.2935852E-03
   maximum displ.:     0.1014795 α      in ANC's #2, #4, #24, ...

........................................................................
.............................. CYCLE   53 ..............................
........................................................................
   1   -127.9239547 -0.127924E+03  0.340E-02   10.19       0.0  T
   2   -127.9239578 -0.310115E-05  0.204E-02   10.19       1.0  T
   3   -127.9239585 -0.714959E-06  0.323E-03   10.19       3.6  T
   4   -127.9239586 -0.998076E-07  0.705E-04   10.19      16.4  T
   5   -127.9239586 -0.151006E-08  0.121E-04   10.19      95.6  T
     SCC iter.                  ...        0 min,  0.023 sec
     gradient                   ...        0 min,  0.013 sec
 * total energy  :  -127.1719257 Eh     change       -0.6493134E-04 Eh
   gradient norm :     0.0089683 Eh/α   predicted    -0.1652346E-03 ( 154.48%)
   displ. norm   :     0.4040478 α      lambda       -0.2913884E-03
   maximum displ.:     0.1974939 α      in ANC's #2, #8, #6, ...

........................................................................
.............................. CYCLE   54 ..............................
........................................................................
   1   -127.9189879 -0.127919E+03  0.416E-02   10.17       0.0  T
   2   -127.9189907 -0.278550E-05  0.254E-02   10.17       1.0  T
   3   -127.9189917 -0.100669E-05  0.297E-03   10.17       3.9  T
   4   -127.9189917 -0.882789E-07  0.851E-04   10.17      13.6  T
   5   -127.9189917 -0.203065E-08  0.998E-05   10.17     115.7  T
     SCC iter.                  ...        0 min,  0.023 sec
     gradient                   ...        0 min,  0.013 sec
 * total energy  :  -127.1720695 Eh     change       -0.1438028E-03 Eh
   gradient norm :     0.0096267 Eh/α   predicted    -0.1694802E-03 (  17.86%)
   displ. norm   :     0.1352930 α      lambda       -0.1995468E-03
   maximum displ.:     0.0664742 α      in ANC's #8, #6, #2, ...

........................................................................
.............................. CYCLE   55 ..............................
........................................................................
   1   -127.9183748 -0.127918E+03  0.189E-02   10.17       0.0  T
   2   -127.9183758 -0.952345E-06  0.114E-02   10.16       1.0  T
   3   -127.9183760 -0.231321E-06  0.177E-03   10.16       6.5  T
   4   -127.9183760 -0.293805E-07  0.382E-04   10.16      30.3  T
   5   -127.9183760 -0.307324E-09  0.503E-05   10.16     229.4  T
     SCC iter.                  ...        0 min,  0.023 sec
     gradient                   ...        0 min,  0.013 sec
 * total energy  :  -127.1721820 Eh     change       -0.1124959E-03 Eh
   gradient norm :     0.0091087 Eh/α   predicted    -0.1015997E-03 (  -9.69%)
   displ. norm   :     0.2217016 α      lambda       -0.1935561E-03
   maximum displ.:     0.1031804 α      in ANC's #8, #4, #2, ...

........................................................................
.............................. CYCLE   56 ..............................
........................................................................
   1   -127.9195069 -0.127920E+03  0.177E-02   10.16       0.0  T
   2   -127.9195076 -0.736253E-06  0.107E-02   10.16       1.1  T
   3   -127.9195078 -0.196248E-06  0.152E-03   10.16       7.6  T
   4   -127.9195078 -0.246127E-07  0.367E-04   10.16      31.4  T
   5   -127.9195078 -0.405976E-09  0.566E-05   10.16     204.0  T
     SCC iter.                  ...        0 min,  0.023 sec
     gradient                   ...        0 min,  0.013 sec
 * total energy  :  -127.1723369 Eh     change       -0.1549177E-03 Eh
   gradient norm :     0.0060448 Eh/α   predicted    -0.1015354E-03 ( -34.46%)
   displ. norm   :     0.6298836 α      lambda       -0.3347463E-03
   maximum displ.:     0.2920646 α      in ANC's #8, #2, #4, ...

........................................................................
.............................. CYCLE   57 ..............................
........................................................................
   1   -127.9188562 -0.127919E+03  0.513E-02   10.15       0.0  T
   2   -127.9188607 -0.451293E-05  0.314E-02   10.15       1.0  T
   3   -127.9188621 -0.137516E-05  0.355E-03   10.14       3.3  T
   4   -127.9188622 -0.155803E-06  0.975E-04   10.15      11.8  T
   5   -127.9188622 -0.257039E-08  0.125E-04   10.15      92.6  T
     SCC iter.                  ...        0 min,  0.023 sec
     gradient                   ...        0 min,  0.013 sec
 * total energy  :  -127.1725980 Eh     change       -0.2610486E-03 Eh
   gradient norm :     0.0086922 Eh/α   predicted    -0.2337809E-03 ( -10.45%)
   displ. norm   :     0.6135916 α      lambda       -0.4236209E-03
   maximum displ.:     0.2700139 α      in ANC's #8, #4, #22, ...

........................................................................
.............................. CYCLE   58 ..............................
........................................................................
   1   -127.9196355 -0.127920E+03  0.513E-02   10.14       0.0  T
   2   -127.9196411 -0.562346E-05  0.315E-02   10.14       1.0  T
   3   -127.9196431 -0.196994E-05  0.407E-03   10.14       2.8  T
   4   -127.9196433 -0.183636E-06  0.121E-03   10.14       9.5  T
   5   -127.9196433 -0.441010E-08  0.148E-04   10.14      78.0  T
   6   -127.9196433 -0.133355E-09  0.610E-05   10.14     189.2  T
     SCC iter.                  ...        0 min,  0.027 sec
     gradient                   ...        0 min,  0.013 sec
 * total energy  :  -127.1728422 Eh     change       -0.2441932E-03 Eh
   gradient norm :     0.0113048 Eh/α   predicted    -0.2915600E-03 (  19.40%)
   displ. norm   :     0.4933141 α      lambda       -0.4736159E-03
   maximum displ.:     0.2323225 α      in ANC's #8, #4, #22, ...

........................................................................
.............................. CYCLE   59 ..............................
........................................................................
   1   -127.9227880 -0.127923E+03  0.397E-02   10.14       0.0  T
   2   -127.9227902 -0.221072E-05  0.243E-02   10.14       1.0  T
   3   -127.9227910 -0.753883E-06  0.252E-03   10.13       4.6  T
   4   -127.9227910 -0.656785E-07  0.719E-04   10.13      16.1  T
   5   -127.9227910 -0.146929E-08  0.104E-04   10.13     111.5  T
     SCC iter.                  ...        0 min,  0.023 sec
     gradient                   ...        0 min,  0.013 sec
 * total energy  :  -127.1731442 Eh     change       -0.3020589E-03 Eh
   gradient norm :     0.0104666 Eh/α   predicted    -0.2944401E-03 (  -2.52%)
   displ. norm   :     0.6988838 α      lambda       -0.5687251E-03
   maximum displ.:     0.3700787 α      in ANC's #8, #6, #2, ...

........................................................................
.............................. CYCLE   60 ..............................
........................................................................
   1   -127.9185367 -0.127919E+03  0.561E-02   10.10       0.0  T
   2   -127.9185460 -0.924456E-05  0.334E-02   10.10       1.0  T
   3   -127.9185479 -0.189647E-05  0.558E-03   10.10       2.1  T
   4   -127.9185482 -0.295137E-06  0.112E-03   10.09      10.3  T
   5   -127.9185482 -0.378344E-08  0.180E-04   10.10      64.1  T
   6   -127.9185482 -0.220027E-09  0.608E-05   10.10     190.0  T
     SCC iter.                  ...        0 min,  0.027 sec
     gradient                   ...        0 min,  0.013 sec
 * total energy  :  -127.1734330 Eh     change       -0.2887525E-03 Eh
   gradient norm :     0.0176148 Eh/α   predicted    -0.4232591E-03 (  46.58%)
   displ. norm   :     0.3975443 α      lambda       -0.1028096E-02
   maximum displ.:     0.1590143 α      in ANC's #8, #2, #17, ...

........................................................................
.............................. CYCLE   61 ..............................
........................................................................
   1   -127.9279147 -0.127928E+03  0.667E-02   10.13       0.0  T
   2   -127.9279263 -0.115914E-04  0.405E-02   10.13       1.0  T
   3   -127.9279313 -0.495760E-05  0.621E-03   10.13       1.9  T
   4   -127.9279316 -0.335725E-06  0.204E-03   10.13       5.7  T
   5   -127.9279316 -0.166290E-07  0.220E-04   10.13      52.4  T
   6   -127.9279316 -0.285581E-09  0.957E-05   10.13     120.6  T
     SCC iter.                  ...        0 min,  0.027 sec
     gradient                   ...        0 min,  0.013 sec
 * total energy  :  -127.1723494 Eh     change        0.1083612E-02 Eh
   gradient norm :     0.0488831 Eh/α   predicted    -0.5952900E-03 (-154.94%)
   displ. norm   :     0.2047138 α      lambda       -0.3213626E-02
   maximum displ.:     0.0906025 α      in ANC's #29, #66, #22, ...

........................................................................
.............................. CYCLE   62 ..............................
........................................................................
   1   -127.9248904 -0.127925E+03  0.530E-02   10.13       0.0  T
   2   -127.9248978 -0.736467E-05  0.326E-02   10.13       1.0  T
   3   -127.9249020 -0.418720E-05  0.508E-03   10.12       2.3  T
   4   -127.9249021 -0.160354E-06  0.163E-03   10.12       7.1  T
   5   -127.9249021 -0.146039E-07  0.200E-04   10.12      57.8  T
   6   -127.9249021 -0.267690E-09  0.799E-05   10.12     144.4  T
     SCC iter.                  ...        0 min,  0.027 sec
     gradient                   ...        0 min,  0.013 sec
 * total energy  :  -127.1738753 Eh     change       -0.1525948E-02 Eh
   gradient norm :     0.0124331 Eh/α   predicted    -0.1674152E-02 (   9.71%)
   displ. norm   :     0.4840975 α      lambda       -0.9273186E-03
   maximum displ.:     0.2250947 α      in ANC's #8, #4, #22, ...

........................................................................
.............................. CYCLE   63 ..............................
........................................................................
   1   -127.9171392 -0.127917E+03  0.563E-02   10.06       0.0  T
   2   -127.9171452 -0.597278E-05  0.342E-02   10.06       1.0  T
   3   -127.9171473 -0.213757E-05  0.438E-03   10.05       2.6  T
   4   -127.9171475 -0.186879E-06  0.132E-03   10.05       8.8  T
   5   -127.9171475 -0.536032E-08  0.154E-04   10.05      75.0  T
   6   -127.9171475 -0.142023E-09  0.650E-05   10.05     177.8  T
     SCC iter.                  ...        0 min,  0.027 sec
     gradient                   ...        0 min,  0.013 sec
 * total energy  :  -127.1739244 Eh     change       -0.4908523E-04 Eh
   gradient norm :     0.0256349 Eh/α   predicted    -0.5723194E-03 (1065.97%)
   displ. norm   :     0.2256471 α      lambda       -0.8747940E-03
   maximum displ.:     0.1246495 α      in ANC's #8, #22, #17, ...

........................................................................
.............................. CYCLE   64 ..............................
........................................................................
   1   -127.9210785 -0.127921E+03  0.291E-02   10.08       0.0  T
   2   -127.9210805 -0.202297E-05  0.173E-02   10.08       1.0  T
   3   -127.9210811 -0.659769E-06  0.269E-03   10.08       4.3  T
   4   -127.9210812 -0.574510E-07  0.760E-04   10.08      15.2  T
   5   -127.9210812 -0.170195E-08  0.902E-05   10.08     128.1  T
     SCC iter.                  ...        0 min,  0.023 sec
     gradient                   ...        0 min,  0.013 sec
 * total energy  :  -127.1744225 Eh     change       -0.4980865E-03 Eh
   gradient norm :     0.0109027 Eh/α   predicted    -0.4596687E-03 (  -7.71%)
   displ. norm   :     0.3008281 α      lambda       -0.4782567E-03
   maximum displ.:     0.1993353 α      in ANC's #8, #17, #16, ...

........................................................................
.............................. CYCLE   65 ..............................
........................................................................
   1   -127.9245374 -0.127925E+03  0.289E-02   10.10       0.0  T
   2   -127.9245391 -0.173932E-05  0.172E-02   10.10       1.0  T
   3   -127.9245396 -0.461351E-06  0.243E-03   10.09       4.7  T
   4   -127.9245396 -0.561778E-07  0.613E-04   10.09      18.9  T
   5   -127.9245396 -0.107080E-08  0.769E-05   10.09     150.2  T
     SCC iter.                  ...        0 min,  0.023 sec
     gradient                   ...        0 min,  0.013 sec
 * total energy  :  -127.1746688 Eh     change       -0.2463611E-03 Eh
   gradient norm :     0.0092466 Eh/α   predicted    -0.2607698E-03 (   5.85%)
   displ. norm   :     0.5054134 α      lambda       -0.5623151E-03
   maximum displ.:     0.2799336 α      in ANC's #8, #22, #15, ...

........................................................................
.............................. CYCLE   66 ..............................
........................................................................
   1   -127.9240839 -0.127924E+03  0.464E-02   10.07       0.0  T
   2   -127.9240870 -0.310785E-05  0.283E-02   10.07       1.0  T
   3   -127.9240881 -0.111645E-05  0.304E-03   10.07       3.8  T
   4   -127.9240882 -0.964775E-07  0.880E-04   10.07      13.1  T
   5   -127.9240882 -0.289876E-08  0.133E-04   10.07      86.8  T
     SCC iter.                  ...        0 min,  0.023 sec
     gradient                   ...        0 min,  0.013 sec
 * total energy  :  -127.1750796 Eh     change       -0.4107518E-03 Eh
   gradient norm :     0.0076766 Eh/α   predicted    -0.3529797E-03 ( -14.06%)
   displ. norm   :     0.5534278 α      lambda       -0.5947188E-03
   maximum displ.:     0.3505735 α      in ANC's #8, #22, #17, ...
 * RMSD in coord.:     0.8125383 α      energy gain  -0.3675236E-02 Eh

generating ANC from model Hessian ...
Using Lindh-Hessian (1995)
 Shifting diagonal of input Hessian by   1.009016649347599E-002
 Lowest  eigenvalues of input Hessian
    0.010000    0.010034    0.010042    0.000000    0.000000    0.000000
    0.000000    0.000000    0.000000    0.010108    0.010140    0.010178
    0.010204    0.010258    0.010311    0.010359    0.010379    0.010398
 Highest eigenvalues
    1.400262    1.401600    1.404159    1.406604    1.407807    1.417667
 

........................................................................
.............................. CYCLE   67 ..............................
........................................................................
   1   -127.9217849 -0.127922E+03  0.491E-02   10.04       0.0  T
   2   -127.9217886 -0.361590E-05  0.298E-02   10.04       1.0  T
   3   -127.9217897 -0.115148E-05  0.322E-03   10.04       3.6  T
   4   -127.9217898 -0.118136E-06  0.899E-04   10.04      12.8  T
   5   -127.9217898 -0.297322E-08  0.137E-04   10.04      84.5  T
     SCC iter.                  ...        0 min,  0.023 sec
     gradient                   ...        0 min,  0.013 sec
 * total energy  :  -127.1753894 Eh     change       -0.3098457E-03 Eh
   gradient norm :     0.0113096 Eh/α   predicted     0.0000000E+00 (-100.00%)
   displ. norm   :     0.1238542 α      lambda       -0.4105737E-03
   maximum displ.:     0.0407139 α      in ANC's #47, #18, #2, ...

........................................................................
[...]
    64   8 o       66   1 h                                       0.9966173
    67   8 o       68   1 h                                       0.9660127
    67   8 o       69   1 h                                       0.9827728
    70   8 o       71   1 h                                       0.9790886
    70   8 o       72   1 h                                       0.9693171
    73   8 o       74   1 h                                       0.9701295
    73   8 o       75   1 h                                       0.9683450

 * 1 distinct bonds (by element types)

   Z      Z             #   av. dist./Å        max./Å        min./Å
   1 H    8 O          49     0.9746954     1.0005419     0.9566405

           -------------------------------------------------
          |               Frequency Printout                |
           -------------------------------------------------
 projected vibrational frequencies (cm⁻¹)
eigval :       -0.00    -0.00    -0.00     0.00     0.00     0.00
eigval :       23.66    27.14    30.82    35.32    36.98    37.87
eigval :       44.61    47.44    49.04    51.75    52.64    56.79
eigval :       57.64    60.57    63.49    63.99    66.90    68.60
eigval :       70.44    72.32    74.67    79.93    83.58    86.22
eigval :       90.60    91.48   100.43   121.40   126.73   132.22
eigval :      134.43   139.83   156.49   159.05   166.93   167.39
eigval :      171.31   177.86   183.22   188.47   192.83   196.38
eigval :      202.36   214.25   215.84   223.59   229.62   231.45
eigval :      240.12   243.11   246.55   251.25   255.61   256.59
eigval :      261.42   267.45   268.42   271.28   276.59   282.51
eigval :      285.77   293.67   294.71   297.86   311.15   313.24
eigval :      315.11   331.88   343.78   353.50   365.18   365.33
eigval :      370.39   373.82   375.89   395.46   408.36   421.80
eigval :      430.39   434.53   452.66   456.04   458.97   466.58
eigval :      467.86   475.91   477.49   484.31   487.01   488.20
eigval :      500.03   507.60   514.54   517.53   525.18   529.21
eigval :      535.19   541.96   551.91   553.31   560.47   576.43
eigval :      580.57   583.45   593.59   601.53   603.06   611.34
eigval :      616.95   621.70   627.10   629.81   635.50   639.27
eigval :      644.01   649.27   655.37   690.82   692.13   699.81
eigval :      714.11   725.49   732.99   741.29   748.95   757.32
eigval :      765.73   766.80   770.65   782.04   788.17   813.63
eigval :      818.34   834.42   871.76   874.85   891.68   895.52
eigval :      916.61   924.61   934.30   942.35   957.41   998.79
eigval :     1471.10  1494.56  1500.08  1508.95  1513.27  1517.95
eigval :     1522.16  1524.46  1525.62  1527.02  1527.87  1528.92
eigval :     1532.50  1533.48  1540.06  1543.05  1545.77  1547.79
eigval :     1552.52  1555.18  1556.99  1559.99  1561.73  1566.80
eigval :     1575.79  2770.37  2869.66  2874.16  2918.68  2967.46
eigval :     2992.63  3000.34  3077.21  3114.05  3133.66  3192.52
eigval :     3203.79  3218.26  3231.23  3242.64  3253.24  3266.69
eigval :     3270.53  3292.53  3295.96  3300.66  3310.56  3311.56
eigval :     3344.73  3358.29  3365.21  3397.18  3400.44  3403.24
eigval :     3411.89  3421.69  3434.62  3438.99  3439.39  3449.32
eigval :     3454.35  3462.07  3481.34  3483.61  3522.17  3533.83
eigval :     3543.12  3671.55  3675.13  3676.88  3679.10  3681.35
eigval :     3684.06  3687.75  3688.31
 reduced masses (amu)
   1: 14.29   2: 14.31   3: 14.32   4: 14.32   5: 14.30   6: 14.31   7: 14.40   8: 14.34
   9: 14.25  10: 14.35  11: 14.29  12: 14.32  13: 14.36  14: 14.27  15: 14.49  16: 14.44
  17: 14.35  18: 14.59  19: 14.36  20: 14.55  21: 14.47  22: 14.61  23: 14.43  24: 14.63
  25: 14.46  26: 14.50  27: 14.36  28: 14.53  29: 14.52  30: 14.52  31: 14.34  32: 14.44
  33: 14.52  34: 14.18  35: 13.76  36: 13.73  37: 13.60  38: 14.02  39: 13.11  40: 12.37
  41: 11.01  42:  9.88  43:  9.72  44: 10.38  45: 12.97  46: 12.32  47: 11.07  48: 12.48
  49: 11.90  50: 13.19  51: 12.89  52: 12.33  53: 12.62  54: 13.38  55: 12.87  56: 12.90
  57: 12.05  58: 12.70  59:  8.75  60:  9.13  61:  9.74  62: 10.80  63: 11.87  64: 10.79
  65: 10.04  66: 13.49  67: 13.07  68: 11.88  69: 13.07  70: 12.21  71: 11.23  72: 13.03
  73: 10.77  74: 13.26  75: 13.85  76: 13.63  77: 13.43  78: 12.70  79: 12.72  80: 13.46
  81:  6.64  82: 13.10  83:  2.98  84: 11.39  85:  2.07  86:  1.79  87:  1.79  88:  1.65
  89:  1.93  90:  1.64  91:  1.88  92:  1.82  93:  1.65  94:  2.28  95:  1.80  96:  1.92
  97:  1.81  98:  2.18  99:  1.89 100:  1.77 101:  2.14 102:  1.84 103:  1.85 104:  1.72
 105:  1.58 106:  1.72 107:  1.67 108:  1.77 109:  1.83 110:  1.72 111:  1.91 112:  1.72
 113:  1.77 114:  1.86 115:  1.46 116:  1.82 117:  1.81 118:  1.87 119:  1.93 120:  1.83
 121:  1.96 122:  1.99 123:  1.64 124:  1.72 125:  1.80 126:  1.89 127:  1.79 128:  1.73
 129:  1.77 130:  1.89 131:  2.00 132:  1.89 133:  2.24 134:  1.96 135:  1.84 136:  1.83
 137:  2.14 138:  2.10 139:  1.90 140:  2.21 141:  1.93 142:  1.69 143:  2.05 144:  1.89
 145:  2.02 146:  1.78 147:  1.86 148:  1.98 149:  2.04 150:  1.96 151:  2.02 152:  2.00
 153:  1.99 154:  2.00 155:  2.06 156:  1.97 157:  1.99 158:  2.05 159:  2.07 160:  2.10
 161:  2.05 162:  2.06 163:  2.04 164:  2.04 165:  1.97 166:  2.02 167:  2.06 168:  2.05
 169:  2.09 170:  2.02 171:  2.09 172:  2.02 173:  2.14 174:  2.06 175:  2.12 176:  1.89
 177:  1.89 178:  1.90 179:  1.88 180:  1.89 181:  1.88 182:  1.88 183:  2.11 184:  2.09
 185:  1.97 186:  1.92 187:  1.95 188:  2.02 189:  1.94 190:  1.87 191:  1.63 192:  1.88
 193:  1.79 194:  2.10 195:  2.01 196:  2.04 197:  1.98 198:  2.00 199:  2.08 200:  1.68
 201:  1.73 202:  1.78 203:  1.87 204:  1.88 205:  1.69 206:  2.02 207:  1.69 208:  1.64
 209:  1.67 210:  1.71 211:  1.73 212:  1.77 213:  1.75 214:  1.65 215:  1.78 216:  1.76
 217:  1.78 218:  1.84 219:  1.83 220:  1.84 221:  1.84 222:  1.84 223:  1.84 224:  1.84
 225:  1.84
 IR intensities (km·mol⁻¹)
   1:  0.04   2:  0.04   3:  0.17   4:  0.10   5:  0.11   6:  0.06   7:  0.34   8:  0.50
   9:  2.70  10:  1.79  11:  0.08  12:  0.17  13:  1.97  14:  1.50  15:  0.69  16:  1.06
  17:  0.10  18:  0.59  19:  1.44  20:  0.73  21:  0.30  22:  1.10  23:  0.40  24:  3.96
  25:  2.85  26:  1.94  27:  1.03  28:  0.68  29:  0.11  30:  0.83  31:  0.69  32:  6.13
  33:  1.05  34:  5.96  35:  0.47  36: 11.28  37:  2.71  38:  8.15  39:  2.03  40:  7.21
  41: 11.20  42: 14.40  43:  0.57  44: 15.72  45:  8.21  46:  7.28  47:  2.95  48:  3.82
  49:  3.69  50: 10.33  51:  5.58  52: 13.17  53: 17.08  54: 12.04  55: 13.84  56: 10.28
  57: 14.59  58: 30.46  59: 26.19  60: 90.19  61: 10.71  62: 13.87  63: 42.91  64: 44.91
  65: 54.40  66: 22.16  67: 44.54  68: 83.53  69: 40.55  70: 17.45  71:131.20  72: 36.08
  73: 65.75  74: 20.64  75: 30.70  76: 65.95  77: 41.39  78: 26.32  79: 57.80  80: 25.97
  81: 56.33  82: 11.00  83: 11.10  84: 37.02  85: 23.52  86: 17.38  87: 42.80  88: 21.72
  89:  6.77  90: 21.92  91:  2.59  92: 14.21  93: 20.05  94: 18.64  95: 69.93  96:  3.94
  97: 45.99  98: 17.23  99: 75.97 100: 14.36 101: 48.19 102: 52.92 103:  1.70 104:137.93
 105: 20.79 106:204.00 107: 39.30 108: 98.63 109: 70.85 110:105.17 111: 73.12 112:266.93
 113: 34.43 114: 69.21 115:101.01 116: 98.84 117: 42.91 118:101.76 119: 76.60 120:200.10
 121:115.25 122:191.71 123: 28.97 124:346.80 125:207.62 126:380.42 127:502.70 128:231.04
 129: 57.27 130:311.83 131:105.20 132:245.49 133:355.67 134:724.02 135: 15.47 136:131.33
 137: 71.97 138:444.36 139:****** 140:348.88 141:183.67 142:318.75 143:386.75 144: 46.03
 145:261.20 146:156.14 147:367.26 148:182.70 149:179.31 150:168.98 151: 88.76 152:201.82
 153: 41.99 154: 69.80 155:117.71 156:214.87 157:128.06 158:311.96 159: 63.04 160:147.67
 161:139.33 162: 96.19 163:132.96 164: 74.66 165: 87.09 166:480.12 167:244.33 168:408.38
 169:268.24 170:570.72 171:137.55 172:322.78 173: 73.18 174: 64.92 175:202.94 176:******
 177:****** 178:****** 179:848.47 180:****** 181:486.11 182:****** 183:641.53 184:561.66
 185:796.64 186:518.82 187:536.72 188:389.97 189:204.65 190:****** 191:413.75 192:******
 193:****** 194:386.97 195:384.81 196:****** 197:****** 198:313.13 199:686.29 200:493.20
 201:102.80 202:167.85 203:685.92 204:430.90 205:288.71 206:386.10 207: 37.61 208: 87.08
 209:365.03 210:333.85 211:486.89 212:339.55 213:218.14 214:296.52 215:138.90 216:113.49
 217:128.53 218: 19.56 219: 12.72 220: 14.48 221: 10.67 222: 14.46 223:  8.69 224:  9.74
 225:  8.85
 Raman intensities (amu)
   1:  0.00   2:  0.00   3:  0.00   4:  0.00   5:  0.00   6:  0.00   7:  0.00   8:  0.00
   9:  0.00  10:  0.00  11:  0.00  12:  0.00  13:  0.00  14:  0.00  15:  0.00  16:  0.00
  17:  0.00  18:  0.00  19:  0.00  20:  0.00  21:  0.00  22:  0.00  23:  0.00  24:  0.00
  25:  0.00  26:  0.00  27:  0.00  28:  0.00  29:  0.00  30:  0.00  31:  0.00  32:  0.00
  33:  0.00  34:  0.00  35:  0.00  36:  0.00  37:  0.00  38:  0.00  39:  0.00  40:  0.00
  41:  0.00  42:  0.00  43:  0.00  44:  0.00  45:  0.00  46:  0.00  47:  0.00  48:  0.00
  49:  0.00  50:  0.00  51:  0.00  52:  0.00  53:  0.00  54:  0.00  55:  0.00  56:  0.00
  57:  0.00  58:  0.00  59:  0.00  60:  0.00  61:  0.00  62:  0.00  63:  0.00  64:  0.00
  65:  0.00  66:  0.00  67:  0.00  68:  0.00  69:  0.00  70:  0.00  71:  0.00  72:  0.00
  73:  0.00  74:  0.00  75:  0.00  76:  0.00  77:  0.00  78:  0.00  79:  0.00  80:  0.00
  81:  0.00  82:  0.00  83:  0.00  84:  0.00  85:  0.00  86:  0.00  87:  0.00  88:  0.00
  89:  0.00  90:  0.00  91:  0.00  92:  0.00  93:  0.00  94:  0.00  95:  0.00  96:  0.00
  97:  0.00  98:  0.00  99:  0.00 100:  0.00 101:  0.00 102:  0.00 103:  0.00 104:  0.00
 105:  0.00 106:  0.00 107:  0.00 108:  0.00 109:  0.00 110:  0.00 111:  0.00 112:  0.00
 113:  0.00 114:  0.00 115:  0.00 116:  0.00 117:  0.00 118:  0.00 119:  0.00 120:  0.00
 121:  0.00 122:  0.00 123:  0.00 124:  0.00 125:  0.00 126:  0.00 127:  0.00 128:  0.00
 129:  0.00 130:  0.00 131:  0.00 132:  0.00 133:  0.00 134:  0.00 135:  0.00 136:  0.00
 137:  0.00 138:  0.00 139:  0.00 140:  0.00 141:  0.00 142:  0.00 143:  0.00 144:  0.00
 145:  0.00 146:  0.00 147:  0.00 148:  0.00 149:  0.00 150:  0.00 151:  0.00 152:  0.00
 153:  0.00 154:  0.00 155:  0.00 156:  0.00 157:  0.00 158:  0.00 159:  0.00 160:  0.00
 161:  0.00 162:  0.00 163:  0.00 164:  0.00 165:  0.00 166:  0.00 167:  0.00 168:  0.00
 169:  0.00 170:  0.00 171:  0.00 172:  0.00 173:  0.00 174:  0.00 175:  0.00 176:  0.00
 177:  0.00 178:  0.00 179:  0.00 180:  0.00 181:  0.00 182:  0.00 183:  0.00 184:  0.00
 185:  0.00 186:  0.00 187:  0.00 188:  0.00 189:  0.00 190:  0.00 191:  0.00 192:  0.00
 193:  0.00 194:  0.00 195:  0.00 196:  0.00 197:  0.00 198:  0.00 199:  0.00 200:  0.00
 201:  0.00 202:  0.00 203:  0.00 204:  0.00 205:  0.00 206:  0.00 207:  0.00 208:  0.00
 209:  0.00 210:  0.00 211:  0.00 212:  0.00 213:  0.00 214:  0.00 215:  0.00 216:  0.00
 217:  0.00 218:  0.00 219:  0.00 220:  0.00 221:  0.00 222:  0.00 223:  0.00 224:  0.00
 225:  0.00
 output can be read by thermo (or use thermo option).
 writing <g98.out> molden fake output.
 recommended (thermochemical) frequency scaling factor: 1.0
           -------------------------------------------------
          |             Thermodynamic Functions             |
           -------------------------------------------------

Molecule has no symmetry elements
It seems to be the C1 point group
c1  symmetry found (for desy threshold:  0.10E+00) used in thermo

          ...................................................
          :                      SETUP                      :
          :.................................................:
          :  # frequencies                         219      :
          :  # imaginary freq.                       0      :
          :  linear?                             false      :
          :  only rotor calc.                    false      :
          :  symmetry                               c1      :
          :  rotational number                       1      :
          :  scaling factor                  1.0000000      :
          :  rotor cutoff                   50.0000000 cm⁻¹ :
          :  imag. cutoff                  -20.0000000 cm⁻¹ :
          :.................................................:

    mode    ω/cm⁻¹     T·S(HO)/kcal·mol⁻¹    T·S(FR)/kcal·mol⁻¹   T·S(vib)
   ------------------------------------------------------------------------
       1     23.66    -1.87844 (  4.78%)    -1.27813 ( 95.22%)    -1.30681
       2     27.14    -1.79738 (  7.98%)    -1.23756 ( 92.02%)    -1.28225
       3     30.82    -1.72204 ( 12.62%)    -1.19983 ( 87.38%)    -1.26573
       4     35.32    -1.64157 ( 19.93%)    -1.15951 ( 80.07%)    -1.25559
       5     36.98    -1.61440 ( 23.03%)    -1.14590 ( 76.97%)    -1.25378
       6     37.87    -1.60038 ( 24.75%)    -1.13887 ( 75.25%)    -1.25310
       7     44.61    -1.50359 ( 38.79%)    -1.09032 ( 61.21%)    -1.25062
       8     47.44    -1.46726 ( 44.77%)    -1.07208 ( 55.23%)    -1.24900
       9     49.04    -1.44772 ( 48.06%)    -1.06226 ( 51.94%)    -1.24753
      10     51.75    -1.41601 ( 53.44%)    -1.04634 ( 46.56%)    -1.24388
      11     52.64    -1.40596 ( 55.13%)    -1.04128 ( 44.87%)    -1.24233
      12     56.79    -1.36122 ( 62.47%)    -1.01878 ( 37.53%)    -1.23272
      13     57.64    -1.35257 ( 63.84%)    -1.01443 ( 36.16%)    -1.23030
      14     60.57    -1.32339 ( 68.28%)    -0.99974 ( 31.72%)    -1.22074
      15     63.49    -1.29570 ( 72.22%)    -0.98579 ( 27.78%)    -1.20959
      16     63.99    -1.29104 ( 72.85%)    -0.98345 ( 27.15%)    -1.20752
      17     66.90    -1.26493 ( 76.22%)    -0.97028 ( 23.78%)    -1.19485
      18     68.60    -1.25017 ( 77.99%)    -0.96284 ( 22.01%)    -1.18693
      19     70.44    -1.23462 ( 79.76%)    -0.95499 ( 20.24%)    -1.17801
      20     72.32    -1.21921 ( 81.40%)    -0.94721 ( 18.60%)    -1.16862
      21     74.67    -1.20045 ( 83.26%)    -0.93773 ( 16.74%)    -1.15647
      22     79.93    -1.16058 ( 86.72%)    -0.91757 ( 13.28%)    -1.12831
      23     83.58    -1.13446 ( 88.65%)    -0.90434 ( 11.35%)    -1.10833
      24     86.22    -1.11628 ( 89.84%)    -0.89512 ( 10.16%)    -1.09381
      25     90.60    -1.08740 ( 91.51%)    -0.88046 (  8.49%)    -1.06983
      26     91.48    -1.08174 ( 91.81%)    -0.87758 (  8.19%)    -1.06501
      27    100.43    -1.02740 ( 94.21%)    -0.84993 (  5.79%)    -1.01713
      28    121.40    -0.91770 ( 97.20%)    -0.79376 (  2.80%)    -0.91423
      29    126.73    -0.89297 ( 97.63%)    -0.78102 (  2.37%)    -0.89033
      30    132.22    -0.86866 ( 98.00%)    -0.76847 (  2.00%)    -0.86665
      31    134.43    -0.85917 ( 98.12%)    -0.76355 (  1.88%)    -0.85737
      32    139.83    -0.83667 ( 98.39%)    -0.75189 (  1.61%)    -0.83530
      33    156.49    -0.77273 ( 98.97%)    -0.71854 (  1.03%)    -0.77217
      34    159.05    -0.76357 ( 99.03%)    -0.71373 (  0.97%)    -0.76309
      35    166.93    -0.73635 ( 99.20%)    -0.69940 (  0.80%)    -0.73605
      36    167.39    -0.73483 ( 99.21%)    -0.69860 (  0.79%)    -0.73454
      37    171.31    -0.72184 ( 99.28%)    -0.69174 (  0.72%)    -0.72163
      38    177.86    -0.70089 ( 99.38%)    -0.68063 (  0.62%)    -0.70076
      39    183.22    -0.68435 ( 99.45%)    -0.67182 (  0.55%)    -0.68428
      40    188.47    -0.66871 ( 99.51%)    -0.66346 (  0.49%)    -0.66868
      41    192.83    -0.65607 ( 99.55%)    -0.65669 (  0.45%)    -0.65608
      42    196.38    -0.64602 ( 99.58%)    -0.65128 (  0.42%)    -0.64604
      43    202.36    -0.62956 ( 99.63%)    -0.64240 (  0.37%)    -0.62961
      44    214.25    -0.59843 ( 99.70%)    -0.62547 (  0.30%)    -0.59851
      45    215.84    -0.59444 ( 99.71%)    -0.62329 (  0.29%)    -0.59452
      46    223.59    -0.57538 ( 99.75%)    -0.61284 (  0.25%)    -0.57547
      47    229.62    -0.56109 ( 99.78%)    -0.60495 (  0.22%)    -0.56119
      48    231.45    -0.55685 ( 99.78%)    -0.60261 (  0.22%)    -0.55695
      49    240.12    -0.53726 ( 99.81%)    -0.59171 (  0.19%)    -0.53736
      50    243.11    -0.53071 ( 99.82%)    -0.58805 (  0.18%)    -0.53082
      51    246.55    -0.52329 ( 99.83%)    -0.58388 (  0.17%)    -0.52339
      52    251.25    -0.51335 ( 99.84%)    -0.57829 (  0.16%)    -0.51345
      53    255.61    -0.50434 ( 99.85%)    -0.57319 (  0.15%)    -0.50444
      54    256.59    -0.50235 ( 99.86%)    -0.57206 (  0.14%)    -0.50245
      55    261.42    -0.49262 ( 99.87%)    -0.56653 (  0.13%)    -0.49272
      56    267.45    -0.48080 ( 99.88%)    -0.55977 (  0.12%)    -0.48089
      57    268.42    -0.47893 ( 99.88%)    -0.55870 (  0.12%)    -0.47902
      58    271.28    -0.47347 ( 99.88%)    -0.55556 (  0.12%)    -0.47356
      59    276.59    -0.46351 ( 99.89%)    -0.54982 (  0.11%)    -0.46361
      60    282.51    -0.45272 ( 99.90%)    -0.54355 (  0.10%)    -0.45281
      61    285.77    -0.44689 ( 99.91%)    -0.54015 (  0.09%)    -0.44698
      62    293.67    -0.43312 ( 99.92%)    -0.53207 (  0.08%)    -0.43321
      63    294.71    -0.43135 ( 99.92%)    -0.53102 (  0.08%)    -0.43143
      64    297.86    -0.42602 ( 99.92%)    -0.52787 (  0.08%)    -0.42610
   ------------------------------------------------------------------------

   temp. (K)  partition function   enthalpy   heat capacity  entropy
                                   cal/mol     cal/K/mol   cal/K/mol   J/K/mol
 298.15  VIB  0.144E+28            35605.372    194.687    228.308
         ROT  0.247E+08              888.752      2.981     36.809
         INT  0.356E+35            36494.124    197.668    265.117
         TR   0.925E+28             1481.254      4.968     44.184
         TOT                       37975.3781   202.6363   309.3008  1294.1147

       T/K    H(0)-H(T)+PV         H(T)/Eh          T*S/Eh         G(T)/Eh
   ------------------------------------------------------------------------
    298.15    0.605176E-01    0.660273E+00    0.146959E+00    0.513315E+00
   ------------------------------------------------------------------------

         :::::::::::::::::::::::::::::::::::::::::::::::::::::
         ::                  THERMODYNAMIC                  ::
         :::::::::::::::::::::::::::::::::::::::::::::::::::::
         :: total free energy        -126.668800711789 Eh   ::
         ::.................................................::
         :: total energy             -127.182115319065 Eh   ::
         :: zero point energy           0.599755799304 Eh   ::
         :: G(RRHO) w/o ZPVE           -0.086441192028 Eh   ::
         :: G(RRHO) contrib.            0.513314607275 Eh   ::
         :::::::::::::::::::::::::::::::::::::::::::::::::::::

optimized geometry written to: xtbopt.coord


           -------------------------------------------------
          | TOTAL ENERGY             -127.182115319065 Eh   |
          | TOTAL ENTHALPY           -126.521841902585 Eh   |
          | TOTAL FREE ENERGY        -126.668800711789 Eh   |
          | GRADIENT NORM               0.000751764248 Eh/α |
          | HOMO-LUMO GAP               9.835585516847 eV   |
           -------------------------------------------------

------------------------------------------------------------------------
 * finished run on 2022/10/12 at 03:16:20.253     
------------------------------------------------------------------------
 total:
 * wall-time:     0 d,  0 h,  0 min, 11.264 sec
 *  cpu-time:     0 d,  0 h,  1 min, 52.110 sec
 * ratio c/w:     9.953 speedup
 SCF:
 * wall-time:     0 d,  0 h,  0 min,  0.071 sec
 *  cpu-time:     0 d,  0 h,  0 min,  0.683 sec
 * ratio c/w:     9.652 speedup
 ANC optimizer:
 * wall-time:     0 d,  0 h,  0 min,  6.003 sec
 *  cpu-time:     0 d,  0 h,  0 min, 59.877 sec
 * ratio c/w:     9.975 speedup
 analytical hessian:
 * wall-time:     0 d,  0 h,  0 min,  5.057 sec
 *  cpu-time:     0 d,  0 h,  0 min, 50.341 sec
 * ratio c/w:     9.955 speedup

