75
 energy: -127.137831199518 gnorm: 0.033930469573 xtb: 6.5.1 (579679a)
o            1.53009946114163       -3.53611267743000       -1.75586135729613
h            0.56023591292291       -3.45867737921429       -1.71532185405759
h            1.84131436296828       -3.39141883885436       -0.84052162041895
o           -3.92908008447167        2.53460649164653        1.56121515465506
h           -3.47136619103659        2.12204637052284        2.31390419622275
h           -3.24978578239452        2.97690350171187        1.04012731409997
o           -1.09817174391491       -2.75682157473024       -1.44906489095980
h           -0.58245370876167       -2.15545608822290       -0.87284847991944
h           -1.50197102305134       -2.16078818612837       -2.09692406865355
o           -1.89936778878205       -0.54529713770876       -2.94450342311779
h           -2.41194540832655       -0.58618500161524       -3.75289361871760
h           -2.25032485562167        0.22851051119946       -2.44438924031692
o           -2.82854199177598        1.74369856892455       -1.92446966585354
h           -2.51273566077557        2.21698550381446       -1.14250362900161
h           -2.40284717947106        2.20673497276574       -2.67961500709320
o            2.37675603649133       -1.69829886143666       -3.35756373939499
h            2.03838881398419       -2.40028433400848       -2.71528591808382
h            2.48614641834284       -2.14992103523680       -4.19542791216077
o           -1.35861322095162       -3.33925648789369        3.04564187653436
h           -1.77470743584794       -3.54437235496350        2.16762533049425
h           -1.49573027663028       -4.11280447012609        3.59354051030170
o            3.95641743053518        0.94118056768000        1.70776727175860
h            3.30724172996407        0.67190695696236        2.42659790926743
h            4.72030184876427        1.28259203530502        2.17474506383376
o            0.09014580663651        1.95962882129165        3.09967372022150
h            0.21819163185661        1.98198662631723        2.13870620597721
h           -0.82931284695859        1.69101517071255        3.26822930388312
o           -1.55793201505976        3.40586097581401        0.07806723605709
h           -1.06606211449378        3.47134189853918        0.90060360884455
h           -0.96947194645519        3.75845658870148       -0.61009319139755
o           -4.51430828787555       -1.64910102660137        1.08315520820781
h           -4.58648832287898       -0.79658523819495        0.58044830784795
h           -5.41284585981183       -1.96204959616660        1.19174362513369
o            4.56939705166502       -1.49843705167951        0.51178698211798
h            4.63953177965774       -1.27599469321689       -0.42943946735774
h            4.38572280370556       -0.66111261826416        0.97383378915060
o           -2.58972125043302       -3.64684418055669        0.71992928750681
h           -3.28255093195472       -2.96727384440497        0.76681163405732
h           -2.07817169199309       -3.45268142567035       -0.08616092920645
o            2.56798503884985       -3.21367380324479        0.77990561334279
h            3.30789073380384       -2.56034213175880        0.69361161584897
h            2.97618436347841       -4.03546605670105        1.05627752150165
o            0.33773721646579        4.23587073050851       -1.81273823001946
h            1.08599253214494        3.66879916191958       -2.16740320081443
h            0.53207660523556        5.13272932700032       -2.08560887090324
o           -3.18592542101901       -1.27803646612765        3.49114880380145
h           -3.69379921310027       -1.40554035979816        2.66869474970609
h           -2.46460103684150       -1.92955173158194        3.45254809288274
o            4.04247577215104        1.73466965876254       -1.06674859333010
h            4.30076951318721        0.90399646502962       -1.49526532267343
h            3.99051758207166        1.53426953505516       -0.12306504328224
o            1.35759541064623       -2.28368864252633        3.14121476076713
h            0.44551451276629       -2.59889578028215        3.19210665724569
h            1.69465042517535       -2.57926592030313        2.27858242249990
o            2.17128383535478        2.69976961652352       -2.82388223900849
h            2.85445308397239        2.40873996052431       -2.19008931341004
h            1.70654864857136        1.89597877009645       -3.11066128410204
o            2.24956304509197        0.28204198753301        3.54571956453839
h            1.46880010472920        0.86638169021971        3.54264657982365
h            1.92512025959301       -0.63856771005554        3.48670167911417
o           -1.15227412739524        2.80433637312201       -3.71886816117417
h           -0.51609962491781        2.11120964772836       -3.93509280811345
h           -0.68455851018879        3.41115831612252       -3.12185172016391
o           -2.55001560191686        1.27819534241299        3.64268422104267
h           -2.78997601435444        1.58140318618193        4.51912599292888
h           -2.76346304411381        0.30788292533547        3.62204079045781
o           -4.83355972915632        0.65420167190487       -0.17234601951032
h           -4.30237113913849        0.91797827443245       -0.93369591797457
h           -4.65922080363124        1.34331396587104        0.50229038549893
o            0.61487465525375        0.46739868733593       -3.58290007188895
h           -0.22001987288741        0.06113942992782       -3.28745264309969
h            1.26826189733413       -0.24825845406737       -3.53715121873365
o            4.59111391154980       -0.75515706373887       -2.17971307527239
h            5.31596654210023       -0.89688271929003       -2.78905304674010
h            3.77355926320026       -1.08159838765235       -2.62024953410090
75
 energy: -127.141491216753 gnorm: 0.020179869813 xtb: 6.5.1 (579679a)
o            1.54638529168431       -3.54523279589509       -1.76366132966935
h            0.57522201543518       -3.50703568151217       -1.72440227377123
h            1.85876689757403       -3.42698132282261       -0.84397231631315
o           -3.92407630163437        2.52937773616132        1.55470087324436
h           -3.47100408692023        2.11087275495317        2.30713343951735
h           -3.24299296298983        2.97946014001612        1.04208090152130
o           -1.06157316816701       -2.70327046405957       -1.41764567708072
h           -0.64236442759609       -2.07132330580973       -0.80736183419599
h           -1.49746658874431       -2.13828661988106       -2.07847464687888
o           -1.89854955993668       -0.55909280180419       -2.92835323551127
h           -2.40057519519477       -0.59639982492724       -3.74413061015132
h           -2.25071202172764        0.22150270850564       -2.43846212529796
o           -2.81026160262008        1.72835203823222       -1.91196133770702
h           -2.49358577218882        2.20466083289157       -1.13231160724009
h           -2.39724999595698        2.20089626691615       -2.66964588549984
o            2.36856116497821       -1.69328306367260       -3.36808729292245
h            2.06042752186136       -2.40044783882114       -2.72075649309917
h            2.49315447890365       -2.14769924480059       -4.20238487498493
o           -1.34499644962636       -3.32430020031967        3.04128145768177
h           -1.75776619546332       -3.51781841847950        2.16113375917541
h           -1.49552733326481       -4.09981535241280        3.58339135487693
o            3.97004793936033        0.90883491373472        1.68979437382899
h            3.29622537834238        0.67296004691124        2.39556783810266
h            4.70938599695699        1.28756673748757        2.16953461456120
o            0.08600349721352        1.96133611918694        3.07799832769115
h            0.19510591004658        1.94060385520560        2.12177976693245
h           -0.82614844157010        1.68104373152955        3.27543966862044
o           -1.52752954429270        3.35833715796346        0.07728607640353
h           -1.06684176822427        3.50137310060309        0.91147501313453
h           -0.95723740060702        3.75973432486301       -0.60293555697493
o           -4.50381489672111       -1.65268108694184        1.07356819069934
h           -4.57731592024513       -0.79507798177550        0.58037115434577
h           -5.40419362251895       -1.95693446609993        1.19516212214663
o            4.55555026511627       -1.50446820941235        0.51007951857229
h            4.63991138162913       -1.27200856003130       -0.42765657464961
h            4.37092310808945       -0.66914947628699        0.97778890305115
o           -2.59250159121782       -3.65009727605759        0.72153395533462
h           -3.29149996774978       -2.97670891204359        0.77214316681317
h           -2.09786636236570       -3.46280255455910       -0.09368324033150
o            2.55604971470497       -3.20266476009254        0.76347745481198
h            3.30083938929809       -2.55012850717730        0.69152433477756
h            2.96009764890937       -4.02137234078023        1.05660303684455
o            0.30355835989984        4.23113288618665       -1.83436174006688
h            1.07364475977837        3.65972139072763       -2.13246334701303
h            0.53914853985245        5.12991808028733       -2.07136384101247
o           -3.18251596946526       -1.27351060548701        3.48764589261243
h           -3.68835305221000       -1.39480558648996        2.66376847039812
h           -2.46048510299439       -1.92413269873362        3.44616877992421
o            4.02481595286652        1.73095650809884       -1.06219702258944
h            4.30136934695661        0.89704126716364       -1.47358077612739
h            3.95478340672842        1.54639318393740       -0.11497555002956
o            1.33649559309308       -2.26869343104636        3.12803397551182
h            0.42616024477986       -2.58991214564263        3.17281289350136
h            1.69782785116604       -2.59123239830613        2.28514029167434
o            2.16383898248513        2.70104586342295       -2.80875035641510
h            2.85620856957804        2.41538524795479       -2.18193268096189
h            1.70663405773375        1.89544203105390       -3.09897810005726
o            2.25484923523734        0.28445666124216        3.55235848435639
h            1.47766057005010        0.86999185223160        3.53983227408014
h            1.92631611606286       -0.63249714941748        3.48357543960501
o           -1.16053717254412        2.79876953519438       -3.72108648282504
h           -0.51638682274202        2.11317809759772       -3.93584445345817
h           -0.69565992816976        3.41375763503251       -3.12936018677194
o           -2.53604336911328        1.28015925386647        3.62581141269201
h           -2.78781581508201        1.57382430600646        4.50276105830583
h           -2.75323837899137        0.31102953981588        3.59143668033841
o           -4.82203940480181        0.65019891525934       -0.17146013594957
h           -4.30090397481030        0.92280405877466       -0.93670392697357
h           -4.65873755232094        1.34434575771137        0.50133035139766
o            0.61825967555990        0.46997873603050       -3.56015224526901
h           -0.22445905791617        0.05937650696801       -3.29593564590599
h            1.26842584642233       -0.25052308974488       -3.53936027491771
o            4.59238176633253       -0.76202416525779       -2.17914739955489
h            5.31373456556825       -0.89541989150451       -2.79455122005462
h            3.77049002141973       -1.07376659561870       -2.62070434899902
75
 energy: -127.143741072929 gnorm: 0.014953703614 xtb: 6.5.1 (579679a)
o            1.54464987196828       -3.55478621571337       -1.76483615040754
h            0.57849284904020       -3.49946498132439       -1.70001155002146
h            1.89127720614455       -3.44512580932134       -0.85492551722329
o           -3.91798970872923        2.52721752966807        1.54940961584829
h           -3.46453575565335        2.09644801065073        2.29515383100505
h           -3.23491838386354        2.97127184558987        1.03454053788096
o           -1.05221584025940       -2.64137615469648       -1.36500666878104
h           -0.62248116102424       -2.02970434135718       -0.77265334492442
h           -1.47127726038972       -2.08346552060372       -2.04486140557429
o           -1.89992292228950       -0.56985982456229       -2.91209925000401
h           -2.39381486811878       -0.60359356443055       -3.73345362355978
h           -2.25011662515901        0.21859525419167       -2.43014863376685
o           -2.78993152819856        1.71282834135526       -1.89175244262923
h           -2.44429050663424        2.17328376520814       -1.11399278482683
h           -2.38031628989618        2.18534760493729       -2.65287416891693
o            2.36824074147135       -1.69592724436287       -3.37811818161969
h            2.05741593546241       -2.40018054334976       -2.73520151121619
h            2.50128611537535       -2.14960325428958       -4.21153630734544
o           -1.33069836881489       -3.29940283694136        3.03170017771380
h           -1.74067557102510       -3.48661343508923        2.15151709480031
h           -1.48927248625380       -4.07612944481795        3.57014837334089
o            3.97517415219709        0.88027223788804        1.66677893992493
h            3.28461535020685        0.66445137498707        2.35851735110842
h            4.69555567765239        1.28264031973753        2.15787370547738
o            0.07935308347556        1.95713155031756        3.03652428036425
h            0.15622135142215        1.87683384967076        2.08287960395123
h           -0.82461471995597        1.67181917186130        3.27750444649801
o           -1.50113723299210        3.33344543243564        0.09170573486976
h           -1.04607762549267        3.52436086724276        0.92068621473224
h           -0.93828077079915        3.71593112844199       -0.60540226559583
o           -4.49028083004870       -1.65272556773800        1.06342598142141
h           -4.56620979111135       -0.79482199660425        0.57081624882399
h           -5.39175203962303       -1.95022582513557        1.19709428962227
o            4.53604242511104       -1.51561318686275        0.51144382928182
h            4.63381171865767       -1.27833095498703       -0.42386542060266
h            4.34928263489156       -0.67812777524170        0.97972212694677
o           -2.60459343244997       -3.65760638318377        0.72695441890798
h           -3.30186209508988       -2.98200954959229        0.77889060269386
h           -2.11311807679386       -3.47516908795272       -0.08727529773462
o            2.53848550589821       -3.19318447511922        0.75147255609098
h            3.28178699582522       -2.53360414548885        0.67759516309901
h            2.95081392299060       -4.00455758138364        1.05463773127288
o            0.27018795019410        4.22856695370002       -1.84354227220957
h            1.04910201080085        3.65724344110017       -2.11492236566685
h            0.53255437542827        5.12852525426578       -2.05225397321002
o           -3.17615428645134       -1.26539918624462        3.47864135283319
h           -3.67847606293640       -1.38368703421051        2.65299355235927
h           -2.45131538424616       -1.91302689928714        3.43723654239164
o            4.00395894667121        1.72782267265695       -1.05101162572810
h            4.29106418244779        0.89191279073163       -1.45092040573901
h            3.90617244445199        1.55032661425170       -0.10309630436846
o            1.30886047995087       -2.25105534429536        3.10862394592582
h            0.39714575423997       -2.57173153888117        3.14045423331619
h            1.69282120176689       -2.58624887018571        2.28112820034686
o            2.14979013070867        2.69716322719066       -2.78272080901294
h            2.84646121156408        2.41665375183196       -2.15744540222276
h            1.69754637861151        1.89072376765274       -3.07521319515652
o            2.26043284641505        0.28839170330204        3.55755592169676
h            1.48780593909693        0.87631160859944        3.53420694323064
h            1.92534099002530       -0.62405312182551        3.47881058941080
o           -1.17057912621936        2.79583253752735       -3.72331042304678
h           -0.51829068806378        2.11631182007636       -3.93148632981274
h           -0.71086683948712        3.41495297727085       -3.12940324257011
o           -2.51905850138985        1.28048276026271        3.60148714470791
h           -2.78291488527933        1.56361911167248        4.47891606867381
h           -2.73931492663030        0.31240273349083        3.55320226484595
o           -4.80984965634215        0.64748585267526       -0.17234518889502
h           -4.28925142232499        0.92290198152374       -0.93700326568873
h           -4.64853915771744        1.34023949677100        0.50292847497177
o            0.61964335943736        0.46550281155963       -3.54952668961536
h           -0.22457236549324        0.06084447464291       -3.28693012585671
h            1.27298009749915       -0.25181115903761       -3.52081950029717
o            4.59617871349389       -0.76673285550633       -2.17610661644758
h            5.31004849097384       -0.89200025325541       -2.80211674530486
h            3.76740043464547       -1.06491970806379       -2.61226042492982
75
 energy: -127.145444539909 gnorm: 0.013161946289 xtb: 6.5.1 (579679a)
o            1.55103400356358       -3.56678441538838       -1.76667034161102
h            0.58917588141768       -3.49089149176180       -1.68656243994750
h            1.91661498379863       -3.45160127919509       -0.86435223980046
o           -3.90744100842589        2.52523803943023        1.54282887604979
h           -3.45040027881232        2.08874019116326        2.28342820952428
h           -3.22328533578342        2.96012307110226        1.02182613533213
o           -1.02220557463694       -2.58373784928481       -1.31597019776670
h           -0.64039292500316       -1.97265828932577       -0.68517171611910
h           -1.44489991037694       -2.02618104579538       -1.99480558375437
o           -1.89440654218283       -0.57542438917120       -2.90625053119447
h           -2.39608341335311       -0.61683705343874       -3.72187930708768
h           -2.25186686101655        0.20853449829686       -2.41918306779251
o           -2.76244327028278        1.69439110730941       -1.87001709278505
h           -2.39461171207413        2.13670719665488       -1.09054080468599
h           -2.36312420050466        2.17764812965171       -2.63136731099170
o            2.37167983950016       -1.69962767140034       -3.38506581894314
h            2.05349894864623       -2.40168257326712       -2.74828797433194
h            2.50747212393297       -2.14985543977172       -4.21977510685775
o           -1.32389371898175       -3.27174625060539        3.01469154369240
h           -1.73648353827716       -3.46644237960040        2.13861441974931
h           -1.47578634381174       -4.04643854742020        3.55731545992157
o            3.96346247511068        0.86851350127560        1.64939161571738
h            3.27785013889232        0.65595780680083        2.33979434979011
h            4.68672020874160        1.26434455806292        2.13558246191887
o            0.07214704787786        1.94412708226604        2.98106008202205
h            0.11604822148639        1.80486479763462        2.02841072321444
h           -0.82748046524977        1.67346668083840        3.26260670232474
o           -1.46729300811287        3.30220371343840        0.11149328671660
h           -1.02035698344095        3.52667250654191        0.93491070675853
h           -0.91286007044508        3.67998201178272       -0.59648654979787
o           -4.47765199479408       -1.64876956350961        1.05738497716934
h           -4.55414548294535       -0.79490189461140        0.55627157181082
h           -5.37911302400269       -1.94399051364499        1.19482731073800
o            4.51698952434475       -1.52753695868895        0.51082735625547
h            4.62531464772579       -1.29249424996245       -0.42356039648168
h            4.33412092115458       -0.68424519040035        0.97532270852497
o           -2.61297896720238       -3.66466824903468        0.72603894474461
h           -3.30902338325187       -2.98705982512795        0.77972681969481
h           -2.11365696864874       -3.47469039240604       -0.07998706169377
o            2.52192479576388       -3.18642386871202        0.74257344333551
h            3.26584979856986       -2.52262168801299        0.66501102383158
h            2.93903544171465       -3.99235670310519        1.05346366687125
o            0.24570327992411        4.22792385026491       -1.83850662293695
h            1.02104398014384        3.66018645600353       -2.11334698585987
h            0.50815225477605        5.12679799106323       -2.03861737750084
o           -3.16829367066118       -1.25551547044262        3.46478619671857
h           -3.66829055991579       -1.37716641389825        2.63843498660050
h           -2.43974838748507       -1.89940818847743        3.42687084362446
o            3.97777028648802        1.72182809798489       -1.03564913534516
h            4.27646276048193        0.89024768357887       -1.43426656243736
h            3.87238268641408        1.54279208097950       -0.08919296717313
o            1.28337665846057       -2.22813731520132        3.08214215326482
h            0.37178517571127       -2.55215463999454        3.11002108551013
h            1.67691409884856       -2.56915886701842        2.26344825589373
o            2.13177169009975        2.69339485537417       -2.75127189570795
h            2.82892228396219        2.41297596223919       -2.12572292016609
h            1.68440452081949        1.88753733903757       -3.05162710392157
o            2.26040462088287        0.29396509741232        3.55629255067237
h            1.49120600932289        0.88473809507405        3.52486779353078
h            1.91946310996133       -0.61548348449185        3.47408503414604
o           -1.18260690424790        2.79006892312875       -3.72050627947431
h           -0.52119374180225        2.11876204216234       -3.92738514153295
h           -0.72547264025409        3.41847996681742       -3.13184537244689
o           -2.50455490987779        1.27745262618174        3.57976346469353
h           -2.77608181123853        1.55725538634825        4.45564227536763
h           -2.72821021389642        0.31000785789585        3.52630388511248
o           -4.79852301404355        0.64684745717726       -0.17499216786625
h           -4.27060435554669        0.91875237911921       -0.93584449683932
h           -4.63443440379460        1.33698861638368        0.50281728709323
o            0.62248111147147        0.46161731127520       -3.52976256276031
h           -0.22277107659839        0.05808052969169       -3.27302005840897
h            1.27485746420573       -0.25745725745478       -3.51310508104674
o            4.59804847810925       -0.76623025332161       -2.17327956458722
h            5.30851116917883       -0.88335197761222       -2.80463170355398
h            3.76850431243564       -1.06026290089683       -2.60764200686493
75
 energy: -127.147170485818 gnorm: 0.012586444627 xtb: 6.5.1 (579679a)
o            1.54901811996014       -3.57379181515288       -1.76878746036647
h            0.59264489179816       -3.45238473230726       -1.66992500354319
h            1.93203052079576       -3.45551967307901       -0.87360470484732
o           -3.88932253730495        2.52168422753106        1.52995422534780
h           -3.43166961048034        2.08519141119640        2.27047670462929
h           -3.20107614221149        2.94716378844504        1.00602770159128
o           -0.99189266878379       -2.52485032331166       -1.24972095732553
h           -0.63801500517113       -1.92917770529736       -0.58213321233928
h           -1.40001115782906       -1.95429244076639       -1.92607169135590
o           -1.88857594012613       -0.58255335311801       -2.90138397501281
h           -2.40643347141139       -0.63355672997328       -3.70589583176554
h           -2.24059850802460        0.20206520808681       -2.40745961055963
o           -2.72883072900237        1.67081393965359       -1.84140652396855
h           -2.33967462809695        2.09588175336814       -1.06206558967432
h           -2.34281918749766        2.16436621770967       -2.60452743702821
o            2.37592115920847       -1.70453575879580       -3.39191298632853
h            2.05874864415942       -2.40533457721540       -2.75566254804605
h            2.51079169169256       -2.15285873312828       -4.22761554853973
o           -1.32555200513993       -3.24137017165006        2.99138727956877
h           -1.74368753753203       -3.45558930780973        2.12160869310671
h           -1.45554160127385       -4.01240098367881        3.54457810937604
o            3.94747522547030        0.85315666078538        1.63611557629321
h            3.26998850179965        0.65218932611299        2.33403191325157
h            4.67900531778218        1.24846253678027        2.10795061760961
o            0.06026671296734        1.91293520854620        2.90771911564343
h            0.08229320572242        1.74859325254150        1.96396586480022
h           -0.84072614611599        1.67571160667898        3.20606010692629
o           -1.41652991605748        3.24816545369347        0.13836248091450
h           -0.98790867269030        3.50739056866279        0.95952500967303
h           -0.87768993502092        3.65363188739442       -0.56984162524392
o           -4.46349144354020       -1.64449836673486        1.04855119920055
h           -4.53666137762552       -0.78985638365608        0.54486337775743
h           -5.36600435436736       -1.93370408237487        1.18991428998458
o            4.50395159684468       -1.54205351816823        0.50546235147297
h            4.61442444221650       -1.31109590226966       -0.42889778611321
h            4.31781871227916       -0.69514515247239        0.96535897069521
o           -2.62239380040995       -3.67358648539603        0.72302735906925
h           -3.31649642003991       -2.99307208255318        0.77581663362738
h           -2.10324629355634       -3.46755912075158       -0.06718089559067
o            2.50677150562485       -3.18102346792968        0.73367805319991
h            3.25685795403828       -2.51926415508919        0.65487081170238
h            2.92010212251649       -3.98476680346626        1.05355626720340
o            0.20915460709532        4.22925488275064       -1.84027258320638
h            0.98578477207909        3.65417118308042       -2.09691642881716
h            0.48928678111937        5.12780980218648       -2.01950344805104
o           -3.16153903604467       -1.24437153495588        3.44635102042998
h           -3.65906231237334       -1.37008999698222        2.61844638050750
h           -2.42593616413217       -1.88101322218911        3.41009027302728
o            3.94916640309219        1.71534474947981       -1.01664320632228
h            4.25389225597531        0.89030293144667       -1.42093458008728
h            3.83782477224229        1.52653403732998       -0.07332239972982
o            1.25767296244403       -2.19383386461346        3.04438000758204
h            0.34771407020710       -2.52474060308945        3.07503921270569
h            1.65449455501083       -2.54385612974197        2.23294113236649
o            2.10545821504597        2.69194103185128       -2.71305332363920
h            2.80325780664548        2.41003063861564       -2.08756322012978
h            1.66338349077396        1.88514936265489       -3.01975732906226
o            2.25466634534579        0.30351348167864        3.55244876514549
h            1.48769362331094        0.89645963225654        3.50302124895730
h            1.90915549523173       -0.60387031521595        3.46500443943964
o           -1.20154544277077        2.78041728400288       -3.71991146622249
h           -0.52964373282152        2.11709812390946       -3.92086926360456
h           -0.75098809726821        3.42222880732594       -3.13942777422486
o           -2.49485414382435        1.27281280906728        3.55880653545543
h           -2.76718872874436        1.55306309038608        4.43327465728772
h           -2.71944546516710        0.30431403130945        3.50580640038738
o           -4.78431234374737        0.64641304641469       -0.17955614600125
h           -4.24477969660225        0.91244339313902       -0.93475078197991
h           -4.61919762530546        1.33674126278856        0.49883432604477
o            0.62438139116510        0.45727749307709       -3.50683115625528
h           -0.22108213034839        0.05100674667958       -3.25638043532872
h            1.27624559922687       -0.26251787317792       -3.50204318344675
o            4.59752380556084       -0.76293339132289       -2.17078837767236
h            5.30706345700723       -0.86868579282679       -2.80494296455505
h            3.77092755795413       -1.05775536237630       -2.60701699612299
75
 energy: -127.148780384952 gnorm: 0.021658972048 xtb: 6.5.1 (579679a)
o            1.53623772275296       -3.56972299540494       -1.77216926665753
h            0.58576241526274       -3.39560965420069       -1.65515727862456
h            1.92943898387651       -3.45712391510156       -0.88088857716219
o           -3.86694490445930        2.52112763316003        1.51331230514597