      -----------------------------------------------------------      
     |                   =====================                   |     
     |                           x T B                           |     
     |                   =====================                   |     
     |                         S. Grimme                         |     
     |          Mulliken Center for Theoretical Chemistry        |     
     |                    University of Bonn                     |     
      -----------------------------------------------------------      

   * xtb version 6.5.1 (579679a) compiled by 'ehlert@majestix' on 2022-07-11

   xtb is free software: you can redistribute it and/or modify it under
   the terms of the GNU Lesser General Public License as published by
   the Free Software Foundation, either version 3 of the License, or
   (at your option) any later version.
   
   xtb is distributed in the hope that it will be useful,
   but WITHOUT ANY WARRANTY; without even the implied warranty of
   MERCHANTABILITY or FITNESS FOR A PARTICULAR PURPOSE.  See the
   GNU Lesser General Public License for more details.
   
   Cite this work as:
   * C. Bannwarth, E. Caldeweyher, S. Ehlert, A. Hansen, P. Pracht,
     J. Seibert, S. Spicher, S. Grimme, WIREs Comput. Mol. Sci., 2020, 11,
     e01493. DOI: 10.1002/wcms.1493
   
   for GFN2-xTB:
   * C. Bannwarth, S. Ehlert and S. Grimme., J. Chem. Theory Comput., 2019,
     15, 1652-1671. DOI: 10.1021/acs.jctc.8b01176
   for GFN1-xTB:
   * S. Grimme, C. Bannwarth, P. Shushkov, J. Chem. Theory Comput., 2017,
     13, 1989-2009. DOI: 10.1021/acs.jctc.7b00118
   for GFN0-xTB:
   * P. Pracht, E. Caldeweyher, S. Ehlert, S. Grimme, ChemRxiv, 2019, preprint.
     DOI: 10.26434/chemrxiv.8326202.v1
   for GFN-FF:
   * S. Spicher and S. Grimme, Angew. Chem. Int. Ed., 2020, 59, 15665-15673.
     DOI: 10.1002/anie.202004239
   
   for ALPB and GBSA implicit solvation:
   * S. Ehlert, M. Stahn, S. Spicher, S. Grimme, J. Chem. Theory Comput.,
     2021, 17, 4250-4261. DOI: 10.1021/acs.jctc.1c00471
   
   for DFT-D4:
   * E. Caldeweyher, C. Bannwarth and S. Grimme, J. Chem. Phys., 2017,
     147, 034112. DOI: 10.1063/1.4993215
   * E. Caldeweyher, S. Ehlert, A. Hansen, H. Neugebauer, S. Spicher,
     C. Bannwarth and S. Grimme, J. Chem. Phys., 2019, 150, 154122.
     DOI: 10.1063/1.5090222
   * E. Caldeweyher, J.-M. Mewes, S. Ehlert and S. Grimme, Phys. Chem. Chem. Phys.
     2020, 22, 8499-8512. DOI: 10.1039/D0CP00502A
   
   for sTDA-xTB:
   * S. Grimme and C. Bannwarth, J. Chem. Phys., 2016, 145, 054103.
     DOI: 10.1063/1.4959605
   
   in the mass-spec context:
   * V. Asgeirsson, C. Bauer and S. Grimme, Chem. Sci., 2017, 8, 4879.
     DOI: 10.1039/c7sc00601b
   * J. Koopman and S. Grimme, ACS Omega 2019, 4, 12, 15120-15133.
     DOI: 10.1021/acsomega.9b02011
   
   for metadynamics refer to:
   * S. Grimme, J. Chem. Theory Comput., 2019, 155, 2847-2862
     DOI: 10.1021/acs.jctc.9b00143
   
   for SPH calculations refer to:
   * S. Spicher and S. Grimme, J. Chem. Theory Comput., 2021, 17, 1701-1714
     DOI: 10.1021/acs.jctc.0c01306
   
   with help from (in alphabetical order)
   P. Atkinson, C. Bannwarth, F. Bohle, G. Brandenburg, E. Caldeweyher
   M. Checinski, S. Dohm, S. Ehlert, S. Ehrlich, I. Gerasimov, C. Hölzer
   A. Katbashev, J. Koopman, C. Lavigne, S. Lehtola, F. März, M. Müller,
   F. Musil, H. Neugebauer, J. Pisarek, C. Plett, P. Pracht, F. Pultar,
   J. Seibert, P. Shushkov, S. Spicher, M. Stahn, M. Steiner, T. Strunk,
   J. Stückrath, T. Rose, and J. Unsleber
   
 * started run on 2022/11/24 at 09:07:52.365     

           -------------------------------------------------
          |                Calculation Setup                |
           -------------------------------------------------

          program call               : xtb solvent_cluster.coord --gfn2 --input xcontrol --opt 1
          hostname                   : cn0341
          coordinate file            : solvent_cluster.coord
          omp threads                :                     2

   ID    Z sym.   atoms
    1    8 o      1, 4, 7, 10, 13, 16, 19, 22, 25, 28, 31, 34, 37, 40, 43,
                  46, 49, 52, 55, 58, 61, 64, 67, 70, 73, 76, 79, 82, 85, 88,
                  91, 94, 97, 100, 103, 106, 109, 112, 115, 118, 121, 124,
                  127, 130, 133, 136, 139, 142, 145, 148, 151, 154, 157, 160,
                  163, 166, 169, 172, 175, 178, 181, 184, 187, 190, 193, 196,
                  199, 202, 205, 208, 211, 214, 217, 220, 223, 226, 229, 232,
                  235, 238, 241, 244, 247, 250, 253, 256, 259, 262, 265, 268,
                  271, 274, 277, 280, 283, 286, 289, 292, 295, 298, 301, 304,
                  307, 310, 313, 316, 319, 322, 325, 328, 331, 334, 337, 340,
                  343, 346, 349, 352, 355, 358, 361, 364, 367, 370, 373, 376,
                  379, 382, 385, 388, 391, 394, 397, 400, 403, 406, 409, 412,
                  415, 418, 421, 424, 427, 430, 433, 436, 439, 442, 445, 448,
                  451, 454, 457, 460, 463, 466, 469, 472, 475, 478, 481, 484,
                  487, 490, 493, 496, 499, 502, 505, 508, 511, 514, 517, 520,
                  523, 526, 529, 532, 535, 538, 541, 544, 547, 550, 553, 556,
                  559, 562, 565, 568, 571, 574, 577, 580, 583, 586, 589, 592,
                  595, 598, 601, 604, 607, 610, 613, 616, 619, 622, 625, 628,
                  631, 634, 637, 640, 643, 646, 649, 652, 655, 658, 661, 664,
                  667, 670, 673, 676, 679, 682, 685, 688, 691, 694, 697, 700,
                  703, 706, 709, 712, 715, 718, 721, 724, 727, 730, 733, 736,
                  739, 742, 745, 748, 751, 754
    2    1 h      2, 3, 5, 6, 8, 9, 11, 12, 14, 15, 17, 18, 20, 21, 23, 24,
                  26, 27, 29, 30, 32, 33, 35, 36, 38, 39, 41, 42, 44, 45, 47,
                  48, 50, 51, 53, 54, 56, 57, 59, 60, 62, 63, 65, 66, 68, 69,
                  71, 72, 74, 75, 77, 78, 80, 81, 83, 84, 86, 87, 89, 90, 92,
                  93, 95, 96, 98, 99, 101, 102, 104, 105, 107, 108, 110, 111,
                  113, 114, 116, 117, 119, 120, 122, 123, 125, 126, 128, 129,
                  131, 132, 134, 135, 137, 138, 140, 141, 143, 144, 146, 147,
                  149, 150, 152, 153, 155, 156, 158, 159, 161, 162, 164, 165,
                  167, 168, 170, 171, 173, 174, 176, 177, 179, 180, 182, 183,
                  185, 186, 188, 189, 191, 192, 194, 195, 197, 198, 200, 201,
                  203, 204, 206, 207, 209, 210, 212, 213, 215, 216, 218, 219,
                  221, 222, 224, 225, 227, 228, 230, 231, 233, 234, 236, 237,
                  239, 240, 242, 243, 245, 246, 248, 249, 251, 252, 254, 255,
                  257, 258, 260, 261, 263, 264, 266, 267, 269, 270, 272, 273,
                  275, 276, 278, 279, 281, 282, 284, 285, 287, 288, 290, 291,
                  293, 294, 296, 297, 299, 300, 302, 303, 305, 306, 308, 309,
                  311, 312, 314, 315, 317, 318, 320, 321, 323, 324, 326, 327,
                  329, 330, 332, 333, 335, 336, 338, 339, 341, 342, 344, 345,
                  347, 348, 350, 351, 353, 354, 356, 357, 359, 360, 362, 363,
                  365, 366, 368, 369, 371, 372, 374, 375, 377, 378, 380, 381,
                  383, 384, 386, 387, 389, 390, 392, 393, 395, 396, 398, 399,
                  401, 402, 404, 405, 407, 408, 410, 411, 413, 414, 416, 417,
                  419, 420, 422, 423, 425, 426, 428, 429, 431, 432, 434, 435,
                  437, 438, 440, 441, 443, 444, 446, 447, 449, 450, 452, 453,
                  455, 456, 458, 459, 461, 462, 464, 465, 467, 468, 470, 471,
                  473, 474, 476, 477, 479, 480, 482, 483, 485, 486, 488, 489,
                  491, 492, 494, 495, 497, 498, 500, 501, 503, 504, 506, 507,
                  509, 510, 512, 513, 515, 516, 518, 519, 521, 522, 524, 525,
                  527, 528, 530, 531, 533, 534, 536, 537, 539, 540, 542, 543,
                  545, 546, 548, 549, 551, 552, 554, 555, 557, 558, 560, 561,
                  563, 564, 566, 567, 569, 570, 572, 573, 575, 576, 578, 579,
                  581, 582, 584, 585, 587, 588, 590, 591, 593, 594, 596, 597,
                  599, 600, 602, 603, 605, 606, 608, 609, 611, 612, 614, 615,
                  617, 618, 620, 621, 623, 624, 626, 627, 629, 630, 632, 633,
                  635, 636, 638, 639, 641, 642, 644, 645, 647, 648, 650, 651,
                  653, 654, 656, 657, 659, 660, 662, 663, 665, 666, 668, 669,
                  671, 672, 674, 675, 677, 678, 680, 681, 683, 684, 686, 687,
                  689, 690, 692, 693, 695, 696, 698, 699, 701, 702, 704, 705,
                  707, 708, 710, 711, 713, 714, 716, 717, 719, 720, 722, 723,
                  725, 726, 728, 729, 731, 732, 734, 735, 737, 738, 740, 741,
                  743, 744, 746, 747, 749, 750, 752, 753, 755, 756

molecular fragmentation (1/2 indicates fragments):
111222222222222222222222222222222222222222222222222222222222222222222222
222222222222222222222222222222222222222222222222222222222222222222222222
222222222222222222222222222222222222222222222222222222222222222222222222
222222222222222222222222222222222222222222222222222222222222222222222222
222222222222222222222222222222222222222222222222222222222222222222222222
222222222222222222222222222222222222222222222222222222222222222222222222
222222222222222222222222222222222222222222222222222222222222222222222222
222222222222222222222222222222222222222222222222222222222222222222222222
222222222222222222222222222222222222222222222222222222222222222222222222
222222222222222222222222222222222222222222222222222222222222222222222222
222222222222222222222222222222222222
# atoms in fragment 1/2:     3   753
 fragment masses (1/2) :       18.02     4521.84
CMA distance (Bohr)    :  18.929
constraining FC (au)   :  0.0500

           -------------------------------------------------
          |                 G F N 2 - x T B                 |
           -------------------------------------------------

        Reference                      10.1021/acs.jctc.8b01176
      * Hamiltonian:
        H0-scaling (s, p, d)           1.850000    2.230000    2.230000
        zeta-weighting                 0.500000
      * Dispersion:
        s8                             2.700000
        a1                             0.520000
        a2                             5.000000
        s9                             5.000000
      * Repulsion:
        kExp                           1.500000    1.000000
        rExp                           1.000000
      * Coulomb:
        alpha                          2.000000
        third order                    shell-resolved
        anisotropic                    true
        a3                             3.000000
        a5                             4.000000
        cn-shift                       1.200000
        cn-exp                         4.000000
        max-rad                        5.000000


          ...................................................
          :                      SETUP                      :
          :.................................................:
          :  # basis functions                1512          :
          :  # atomic orbitals                1512          :
          :  # shells                         1008          :
          :  # electrons                      2016          :
          :  max. iterations                   250          :
          :  Hamiltonian                  GFN2-xTB          :
          :  restarted?                      false          :
          :  GBSA solvation                  false          :
          :  PC potential                    false          :
          :  electronic temp.          300.0000000     K    :
          :  accuracy                    1.0000000          :
          :  -> integral cutoff          0.2500000E+02      :
          :  -> integral neglect         0.1000000E-07      :
          :  -> SCF convergence          0.1000000E-05 Eh   :
          :  -> wf. convergence          0.1000000E-03 e    :
          :  Broyden damping             0.4000000          :
          ...................................................

 iter      E             dE          RMSdq      gap      omega  full diag
   1  -1291.0504588 -0.129105E+04  0.407E+00    8.45       0.0  T
   2  -1291.1219791 -0.715203E-01  0.242E+00    8.23       1.0  T
   3  -1291.1527698 -0.307907E-01  0.208E-01    7.81       1.0  T
   4  -1291.1577995 -0.502976E-02  0.451E-02    7.98       1.0  T
   5  -1291.1578678 -0.682792E-04  0.305E-02    7.97       1.0  T
   6  -1291.1579058 -0.380158E-04  0.411E-03    7.98       1.0  T
   7  -1291.1579080 -0.213861E-05  0.772E-04    7.98       4.7  T
   8  -1291.1579080 -0.349819E-07  0.395E-04    7.98       9.2  T
   9  -1291.1579080 -0.152154E-07  0.678E-05    7.98      53.7  T

   *** convergence criteria satisfied after 9 iterations ***

         #    Occupation            Energy/Eh            Energy/eV
      -------------------------------------------------------------
         1        2.0000           -0.6893382             -18.7578
       ...           ...                  ...                  ...
      1002        2.0000           -0.4103505             -11.1662
      1003        2.0000           -0.4103232             -11.1655
      1004        2.0000           -0.4103058             -11.1650
      1005        2.0000           -0.4099223             -11.1546
      1006        2.0000           -0.4099116             -11.1543
      1007        2.0000           -0.4059084             -11.0453
      1008        2.0000           -0.4047266             -11.0132 (HOMO)
      1009                         -0.1114697              -3.0332 (LUMO)
      1010                         -0.0957937              -2.6067
      1011                         -0.0897993              -2.4436
      1012                         -0.0848565              -2.3091
      1013                         -0.0760415              -2.0692
       ...                                ...                  ...
      1512                          0.4215924              11.4721
      -------------------------------------------------------------
                  HL-Gap            0.2932568 Eh            7.9799 eV
             Fermi-level           -0.2580981 Eh           -7.0232 eV

 SCC (total)                   0 d,  0 h,  0 min, 22.618 sec
 SCC setup                      ...        0 min,  0.043 sec (  0.188%)
 Dispersion                     ...        0 min,  0.117 sec (  0.519%)
 classical contributions        ...        0 min,  0.023 sec (  0.103%)
 integral evaluation            ...        0 min,  0.615 sec (  2.718%)
 iterations                     ...        0 min,  9.033 sec ( 39.937%)
 molecular gradient             ...        0 min, 12.717 sec ( 56.227%)
 printout                       ...        0 min,  0.070 sec (  0.308%)

         :::::::::::::::::::::::::::::::::::::::::::::::::::::
         ::                     SUMMARY                     ::
         :::::::::::::::::::::::::::::::::::::::::::::::::::::
         :: total energy           -1283.365076634228 Eh    ::
         :: gradient norm              0.033579100565 Eh/a0 ::
         :: HOMO-LUMO gap              7.979924103968 eV    ::
         ::.................................................::
         :: SCC energy             -1291.157908015808 Eh    ::
         :: -> isotropic ES            7.152205692553 Eh    ::
         :: -> anisotropic ES         -1.623323559977 Eh    ::
         :: -> anisotropic XC         -0.126228274837 Eh    ::
         :: -> dispersion             -0.799677833929 Eh    ::
         :: repulsion energy           7.633625341824 Eh    ::
         :: add. restraining           0.000000000000 Eh    ::
         :: total charge               0.000000000000 e     ::
         :::::::::::::::::::::::::::::::::::::::::::::::::::::

      ----------------------------------------------------------- 
     |                       L-ANC optimizer                     |
      ----------------------------------------------------------- 
          low memory version by Sebastian Ehlert

          ...................................................
          :                      SETUP                      :
          :.................................................:
          :   energy convergence        0.1000000E-05 Eh    :
          :   grad. convergence         0.8000000E-03 Eh/a0 :
          :   optimization log               true           :
          :   writing optlog all                1     steps :
          :   Hessian reset                    20     steps :
          :   maximium step len.        1.0000000     a0    :
          :   LBFGS images                     20           :
          ...................................................
 * calculating model hessian...
Using Lindh-Hessian (1995)
 Shifting diagonal of input Hessian by   1.000021592695987E-002
 Lowest  eigenvalues of input Hessian
    0.010000    0.010000   -0.000000   -0.000000   -0.000000   -0.000000
   -0.000000   -0.000000   -0.000000   -0.000000   -0.000000   -0.000000
   -0.000000   -0.000000   -0.000000   -0.000000   -0.000000   -0.000000
 Highest eigenvalues
    0.308345    0.326551    1.217844    1.237536    1.417519    1.454952
 

........................................................................
.............................. CYCLE    1 ..............................
........................................................................
   1  -1291.1547516 -0.129115E+04  0.281E-02    8.00       0.0  T
   2  -1291.1547621 -0.104630E-04  0.174E-02    8.00       1.0  T
   3  -1291.1547668 -0.475853E-05  0.159E-03    8.00       2.3  T
   4  -1291.1547671 -0.243321E-06  0.519E-04    8.00       7.0  T
   5  -1291.1547671 -0.868067E-08  0.716E-05    8.00      50.8  T
     SCC iter.                  ...        0 min,  3.790 sec
     gradient                   ...        0 min, 12.516 sec
 * total energy  : -1283.3672829 Eh     change       -0.2206285E-02 Eh
   gradient norm :     0.0213630 Eh/a0  converged?    E=F G=F D=F
   step length   :     0.4270239 a0

........................................................................
.............................. CYCLE    2 ..............................
........................................................................
   1  -1291.1559114 -0.129116E+04  0.155E-02    8.01       0.0  T
   2  -1291.1559215 -0.100889E-04  0.921E-03    8.01       1.0  T
   3  -1291.1559233 -0.178584E-05  0.177E-03    8.01       2.1  T
   4  -1291.1559236 -0.288869E-06  0.306E-04    8.01      11.9  T
   5  -1291.1559236 -0.334103E-08  0.564E-05    8.01      64.5  T
     SCC iter.                  ...        0 min,  3.578 sec
     gradient                   ...        0 min, 12.823 sec
 * total energy  : -1283.3681334 Eh     change       -0.8504406E-03 Eh
   gradient norm :     0.0103044 Eh/a0  converged?    E=F G=F D=F
   step length   :     0.3043678 a0

........................................................................
.............................. CYCLE    3 ..............................
........................................................................
   1  -1291.1568153 -0.129116E+04  0.111E-02    8.02       0.0  T
   2  -1291.1568177 -0.248495E-05  0.674E-03    8.02       1.0  T
   3  -1291.1568182 -0.493632E-06  0.808E-04    8.02       4.5  T
   4  -1291.1568183 -0.870211E-07  0.171E-04    8.02      21.3  T
     SCC iter.                  ...        0 min,  2.856 sec
     gradient                   ...        0 min, 12.523 sec
 * total energy  : -1283.3686079 Eh     change       -0.4745484E-03 Eh
   gradient norm :     0.0087161 Eh/a0  converged?    E=F G=F D=F
   step length   :     0.2636800 a0

........................................................................
.............................. CYCLE    4 ..............................
........................................................................
   1  -1291.1577189 -0.129116E+04  0.821E-03    8.03       0.0  T
   2  -1291.1577203 -0.133392E-05  0.503E-03    8.03       1.0  T
   3  -1291.1577207 -0.422822E-06  0.614E-04    8.03       5.9  T
   4  -1291.1577207 -0.411471E-07  0.158E-04    8.03      23.0  T
     SCC iter.                  ...        0 min,  2.866 sec
     gradient                   ...        0 min, 12.840 sec
 * total energy  : -1283.3687487 Eh     change       -0.1407684E-03 Eh
   gradient norm :     0.0037949 Eh/a0  converged?    E=F G=F D=F
   step length   :     0.1534987 a0

........................................................................
.............................. CYCLE    5 ..............................
........................................................................
   1  -1291.1582547 -0.129116E+04  0.451E-03    8.03       0.0  T
   2  -1291.1582549 -0.205938E-06  0.275E-03    8.03       1.3  T
   3  -1291.1582550 -0.853111E-07  0.240E-04    8.03      15.2  T
   4  -1291.1582550 -0.489149E-08  0.749E-05    8.03      48.6  T
     SCC iter.                  ...        0 min,  2.781 sec
     gradient                   ...        0 min, 12.777 sec
 * total energy  : -1283.3687840 Eh     change       -0.3529290E-04 Eh
   gradient norm :     0.0057659 Eh/a0  converged?    E=F G=F D=F
   step length   :     0.0675667 a0

........................................................................
.............................. CYCLE    6 ..............................
........................................................................
   1  -1291.1576361 -0.129116E+04  0.275E-03    8.03       0.0  T
   2  -1291.1576362 -0.736975E-07  0.167E-03    8.03       2.2  T
   3  -1291.1576362 -0.230489E-07  0.145E-04    8.03      25.1  T
   4  -1291.1576362 -0.234286E-08  0.398E-05    8.03      91.5  T
     SCC iter.                  ...        0 min,  2.723 sec
     gradient                   ...        0 min, 12.951 sec
 * total energy  : -1283.3688089 Eh     change       -0.2496668E-04 Eh
   gradient norm :     0.0056452 Eh/a0  converged?    E=F G=F D=F
   step length   :     0.0380609 a0

........................................................................
.............................. CYCLE    7 ..............................
........................................................................
   1  -1291.1579297 -0.129116E+04  0.343E-03    8.03       0.0  T
   2  -1291.1579299 -0.236301E-06  0.207E-03    8.03       1.8  T
   3  -1291.1579300 -0.627267E-07  0.252E-04    8.03      14.4  T
   4  -1291.1579300 -0.763907E-08  0.721E-05    8.03      50.5  T
     SCC iter.                  ...        0 min,  2.721 sec
     gradient                   ...        0 min, 13.037 sec
 * total energy  : -1283.3688471 Eh     change       -0.3815197E-04 Eh
   gradient norm :     0.0019831 Eh/a0  converged?    E=F G=F D=F
   step length   :     0.0655966 a0

........................................................................
.............................. CYCLE    8 ..............................
........................................................................
   1  -1291.1574533 -0.129116E+04  0.877E-03    8.03       0.0  T
   2  -1291.1574540 -0.715966E-06  0.535E-03    8.03       1.0  T
   3  -1291.1574542 -0.210347E-06  0.412E-04    8.03       8.8  T
   4  -1291.1574543 -0.243986E-07  0.110E-04    8.03      33.1  T
     SCC iter.                  ...        0 min,  2.666 sec
     gradient                   ...        0 min, 13.048 sec
 * total energy  : -1283.3688882 Eh     change       -0.4111462E-04 Eh
   gradient norm :     0.0062075 Eh/a0  converged?    E=F G=F D=F
   step length   :     0.1221983 a0

........................................................................
.............................. CYCLE    9 ..............................
........................................................................
   1  -1291.1580615 -0.129116E+04  0.286E-03    8.03       0.0  T
   2  -1291.1580616 -0.763619E-07  0.174E-03    8.03       2.1  T
   3  -1291.1580616 -0.267362E-07  0.145E-04    8.03      25.0  T
   4  -1291.1580616 -0.219188E-08  0.414E-05    8.03      87.8  T
     SCC iter.                  ...        0 min,  2.641 sec
     gradient                   ...        0 min, 13.123 sec
 * total energy  : -1283.3689259 Eh     change       -0.3765273E-04 Eh
   gradient norm :     0.0040395 Eh/a0  converged?    E=F G=F D=F
   step length   :     0.0455710 a0

........................................................................
.............................. CYCLE   10 ..............................
........................................................................
   1  -1291.1583417 -0.129116E+04  0.831E-03    8.03       0.0  T
   2  -1291.1583421 -0.375706E-06  0.508E-03    8.03       1.0  T
   3  -1291.1583422 -0.150310E-06  0.304E-04    8.03      12.0  T
   4  -1291.1583423 -0.936780E-08  0.930E-05    8.03      39.1  T
     SCC iter.                  ...        0 min,  2.606 sec
     gradient                   ...        0 min, 13.204 sec
 * total energy  : -1283.3689859 Eh     change       -0.5999487E-04 Eh
   gradient norm :     0.0034321 Eh/a0  converged?    E=F G=F D=F
   step length   :     0.1277828 a0

........................................................................
.............................. CYCLE   11 ..............................
........................................................................
   1  -1291.1583267 -0.129116E+04  0.732E-03    8.03       0.0  T
   2  -1291.1583270 -0.305117E-06  0.448E-03    8.03       1.0  T
   3  -1291.1583272 -0.127664E-06  0.273E-04    8.03      13.3  T
   4  -1291.1583272 -0.747491E-08  0.866E-05    8.03      42.0  T
     SCC iter.                  ...        0 min,  2.584 sec
     gradient                   ...        0 min, 13.278 sec
 * total energy  : -1283.3690371 Eh     change       -0.5129500E-04 Eh
   gradient norm :     0.0032987 Eh/a0  converged?    E=F G=F D=F
   step length   :     0.1270199 a0

........................................................................
.............................. CYCLE   12 ..............................
........................................................................
   1  -1291.1582367 -0.129116E+04  0.782E-03    8.03       0.0  T
   2  -1291.1582372 -0.514944E-06  0.477E-03    8.03       1.0  T
   3  -1291.1582374 -0.165544E-06  0.362E-04    8.03      10.1  T
   4  -1291.1582374 -0.171344E-07  0.102E-04    8.03      35.6  T
     SCC iter.                  ...        0 min,  2.535 sec
     gradient                   ...        0 min, 13.368 sec
 * total energy  : -1283.3690955 Eh     change       -0.5838819E-04 Eh
   gradient norm :     0.0023157 Eh/a0  converged?    E=F G=F D=F
   step length   :     0.1543412 a0

........................................................................
.............................. CYCLE   13 ..............................
........................................................................
   1  -1291.1578845 -0.129116E+04  0.665E-03    8.03       0.0  T
   2  -1291.1578849 -0.429428E-06  0.406E-03    8.03       1.0  T
   3  -1291.1578850 -0.119938E-06  0.333E-04    8.03      10.9  T
   4  -1291.1578851 -0.149073E-07  0.805E-05    8.03      45.2  T
     SCC iter.                  ...        0 min,  2.530 sec
     gradient                   ...        0 min, 13.430 sec
 * total energy  : -1283.3691339 Eh     change       -0.3841554E-04 Eh
   gradient norm :     0.0034667 Eh/a0  converged?    E=F G=F D=F
   step length   :     0.1261159 a0

........................................................................
.............................. CYCLE   14 ..............................
........................................................................
   1  -1291.1597253 -0.129116E+04  0.561E-03    8.03       0.0  T
   2  -1291.1597263 -0.977300E-06  0.334E-03    8.03       1.1  T
   3  -1291.1597265 -0.243469E-06  0.553E-04    8.04       6.6  T
   4  -1291.1597266 -0.300968E-07  0.141E-04    8.03      25.9  T
     SCC iter.                  ...        0 min,  2.512 sec
     gradient                   ...        0 min, 13.264 sec
 * total energy  : -1283.3690462 Eh     change        0.8777124E-04 Eh
   gradient norm :     0.0120707 Eh/a0  converged?    E=F G=F D=F
   step length   :     0.1246822 a0

........................................................................
.............................. CYCLE   15 ..............................
........................................................................
   1  -1291.1580035 -0.129116E+04  0.525E-03    8.03       0.0  T
   2  -1291.1580040 -0.550279E-06  0.315E-03    8.03       1.2  T
   3  -1291.1580042 -0.177424E-06  0.420E-04    8.03       8.7  T
   4  -1291.1580042 -0.178804E-07  0.127E-04    8.03      28.7  T
     SCC iter.                  ...        0 min,  2.514 sec
     gradient                   ...        0 min, 13.241 sec
 * total energy  : -1283.3691591 Eh     change       -0.1128821E-03 Eh
   gradient norm :     0.0024999 Eh/a0  converged?    E=F G=F D=F
   step length   :     0.0783098 a0

........................................................................
.............................. CYCLE   16 ..............................
........................................................................
   1  -1291.1583493 -0.129116E+04  0.157E-03    8.03       0.0  T
   2  -1291.1583494 -0.567882E-07  0.941E-04    8.03       3.9  T
   3  -1291.1583494 -0.101577E-07  0.131E-04    8.03      27.8  T
     SCC iter.                  ...        0 min,  1.866 sec
     gradient                   ...        0 min, 12.844 sec
 * total energy  : -1283.3691639 Eh     change       -0.4816526E-05 Eh
   gradient norm :     0.0010070 Eh/a0  converged?    E=F G=F D=F
   step length   :     0.0382550 a0

........................................................................
.............................. CYCLE   17 ..............................
........................................................................
   1  -1291.1584991 -0.129116E+04  0.204E-03    8.03       0.0  T
   2  -1291.1584992 -0.379828E-07  0.124E-03    8.03       2.9  T
   3  -1291.1584992 -0.116042E-07  0.933E-05    8.03      39.0  T
   4  -1291.1584992 -0.124396E-08  0.261E-05    8.03     139.6  T
     SCC iter.                  ...        0 min,  2.480 sec
     gradient                   ...        0 min, 12.620 sec
 * total energy  : -1283.3691700 Eh     change       -0.6151796E-05 Eh
   gradient norm :     0.0007452 Eh/a0  converged?    E=F G=T D=F
   step length   :     0.0296671 a0

........................................................................
.............................. CYCLE   18 ..............................
........................................................................
   1  -1291.1585043 -0.129116E+04  0.382E-03    8.03       0.0  T
   2  -1291.1585044 -0.821542E-07  0.233E-03    8.03       1.6  T
   3  -1291.1585044 -0.341233E-07  0.134E-04    8.03      27.1  T
   4  -1291.1585044 -0.183013E-08  0.420E-05    8.03      86.7  T
     SCC iter.                  ...        0 min,  2.488 sec
     gradient                   ...        0 min, 12.527 sec
 * total energy  : -1283.3691748 Eh     change       -0.4775157E-05 Eh
   gradient norm :     0.0011352 Eh/a0  converged?    E=F G=F D=F
   step length   :     0.0594760 a0

........................................................................
.............................. CYCLE   19 ..............................
........................................................................
   1  -1291.1586847 -0.129116E+04  0.973E-04    8.03       0.0  T
   2  -1291.1586847 -0.753289E-08  0.591E-04    8.03       6.1  T
   3  -1291.1586847 -0.328964E-08  0.462E-05    8.03      78.8  T
     SCC iter.                  ...        0 min,  1.860 sec
     gradient                   ...        0 min, 12.422 sec
 * total energy  : -1283.3691759 Eh     change       -0.1101516E-05 Eh
   gradient norm :     0.0004061 Eh/a0  converged?    E=F G=T D=F
   step length   :     0.0140852 a0

........................................................................
.............................. CYCLE   20 ..............................
........................................................................
   1  -1291.1585936 -0.129116E+04  0.943E-04    8.03       0.0  T
   2  -1291.1585936 -0.855835E-08  0.577E-04    8.03       6.3  T
   3  -1291.1585936 -0.333466E-08  0.467E-05    8.03      77.8  T
     SCC iter.                  ...        0 min,  1.875 sec
     gradient                   ...        0 min, 12.549 sec
 * total energy  : -1283.3691762 Eh     change       -0.2646407E-06 Eh
   gradient norm :     0.0003073 Eh/a0  converged?    E=T G=T D=F
   step length   :     0.0139645 a0

   *** GEOMETRY OPTIMIZATION CONVERGED AFTER 20 CYCLES ***

------------------------------------------------------------------------
 total energy gain   :        -0.0040995 Eh       -2.5725 kcal/mol
 total RMSD          :         0.0469326 a0        0.0248 Å
 total power (kW/mol):        -0.5381664 (step)   -0.0317 (real)
------------------------------------------------------------------------

 L-ANCopt (total)              0 d,  0 h,  5 min, 39.020 sec
 setup                          ...        0 min,  0.030 sec (  0.009%)
 model hessian                  ...        0 min,  7.915 sec (  2.335%)
 ANC generation                 ...        0 min,  2.586 sec (  0.763%)
 coordinate transformation      ...        0 min,  0.002 sec (  0.001%)
 Rational function              ...        0 min,  0.000 sec (  0.000%)
 singlepoint calculation        ...        5 min, 28.340 sec ( 96.850%)
 optimization log               ...        0 min,  0.140 sec (  0.041%)
 hessian update                 ...        0 min,  0.000 sec (  0.000%)

================
 final structure:
================
$coord
       -5.77431081052100      -15.90063710579700       -8.37314411639700      o
       -6.75075646693500      -14.65087635681900       -9.31770398448300      h
       -6.71804192115100      -16.21231029749800       -6.84103161122200      h
        2.46584807480200       -5.44763260178600       -2.36120715731400      o
        1.95617839077200       -7.11460466441800       -2.94988145087700      h
        2.14302426676500       -5.42888036817800       -0.53795901830700      h
        6.37292952138600       -0.22552636521100       -5.56859200525700      o
        6.63894195850400        1.32606057580800       -4.54915219259400      h
        4.55659409533200       -0.60906028010300       -5.55516879920400      h
        8.38730096244100        0.83922572674400        4.33695867467900      o
        9.80081672462600        1.40246914483800        5.38573239126000      h
        7.91306649495900        2.26650137725100        3.26417272390000      h
        1.74779778745600       -1.83958910687100       -5.93463237743800      o
       -0.05794366825200       -1.37174135657300       -5.86385225529200      h
        1.96222830247800       -3.25940699549300       -4.78564444171300      h
       -6.36526496565600      -10.43383179447300        2.11755389507900      o
       -4.98283589189000       -9.62286115960500        3.06418536541000      h
       -7.64749719234000      -10.91222083579300        3.34980994251300      h
        6.45955524449400       -5.34249481430900        3.35076653350500      o
        6.09792136948600       -6.81848148406800        2.32712737807400      h
        8.06518450018100       -4.64510257130100        2.80070042219900      h
       -2.39338847837100       -7.96200813409900        0.07593479205800      o
       -1.33323717576200       -9.05957400833900       -0.92364158656400      h
       -3.12425010250800       -6.77744132958400       -1.13646312541900      h
        5.27401101494800       -9.50496488360100        0.51110389399600      o
        5.64763131072600       -9.54203966058600       -1.29225497388200      h
        6.32582858719200      -10.73095587043900        1.39032847537700      h
        1.53552000288100        3.22955064131100        3.98040199044100      o
        2.51044931069000        2.44029882652200        5.35659381981000      h
        0.52487709694900        4.55829432976800        4.73515296670200      h
        2.40904270565200        5.08043944386400        9.73752012246300      o
        1.23833334240400        3.65855369805600        9.92691418788500      h
        1.83954589488600        6.07408340090000        8.31218322231000      h
       -2.81394053950800        0.62269311440200        5.57648121406400      o
       -1.32217107156100        1.24445856176800        4.70489087890900      h
       -2.91082911102400       -1.20572629878300        5.29032076548400      h
        1.68646554011000      -10.19636697597300      -11.59949214182000      o
        2.15065784459400       -9.12749100537700      -10.16540806080700      h
        0.64545905392800      -11.55116036637700      -10.93665955751800      h
       -2.00673047817700        6.19147004313800        6.10057820644100      o
       -2.87054362256600        6.42682990176100        4.49810280528700      h
       -2.01448312877200        7.76594859121500        7.07152042644500      h
        7.60887896108800        3.92031041658900       -3.32426543555600      o
        9.43620744360800        4.19064855999300       -3.41352698753500      h
        7.07399166736700        4.07633076655600       -1.55900628515300      h
       -2.26592551955100       -2.60908050546200      -11.98896811590100      o
       -2.17271800681700       -4.01300586744800      -13.16688061652500      h
       -0.58764533381500       -1.83329164276600      -11.94811300753900      h
       -3.02211442834900       -0.71639889174400       -6.31455043344100      o
       -2.76381386909900        0.18513314782300       -7.90271565505300      h
       -4.00861229562300        0.44698452386300       -5.28370047288100      h
      -14.87093158462600       -0.73862395674400       -6.91622133271600      o
      -15.29246046419300       -0.55492871859200       -8.70648979342000      h
      -15.85881493414900        0.50870846642200       -6.00630500921400      h
      -10.00672123137000        0.37466601966200       -6.32634084881100      o
      -11.74150204886000       -0.24917653736700       -6.51266421803500      h
       -9.32262601817000       -0.52917150653800       -4.86967316452700      h
       -3.91464233345900        6.08625697124600        1.30611334508200      o
       -5.39368083730600        5.11189275593600        0.91959955970100      h
       -3.07675715506000        6.41432182082000       -0.30110383125700      h
       -6.52706429826600        4.68644411874400       -9.38517457099300      o
       -6.60649728372700        6.04147449363200       -8.11381954791500      h
       -7.34093698281700        5.35997014762100      -10.90314946677800      h
        2.23670878979200       -0.78341528810200      -10.88312245938200      o
        2.01259989384300       -0.94959377014800       -9.06120690125600      h
        2.25034296749600        0.99291886711100      -11.33468690075600      h
       -8.26714877109400       -7.16430278787900       -1.58764432130000      o
       -7.37781606469600       -7.79114734276400       -0.12665694251500      h
       -8.05388157798000       -5.34316526658800       -1.71881634728600      h
       -8.20903133177000       -2.01292541520000       -2.10641250589600      o
       -9.29072968573900       -1.69593483249800       -0.64882842055600      h
       -6.55339647474600       -1.36484190703900       -1.60292414133600      h
       -3.81856907759000       -4.20771207024300        4.26800870846200      o
       -5.50914915656100       -4.78184369128000        4.70433433666400      h
       -2.74800630983300       -5.60104496704900        4.74346890510800      h
       -8.76793185236300        3.44625270348900       -0.29702259163600      o
       -9.22059064045900        5.21320613682500       -0.50709426742900      h
      -10.27755290486200        2.45151634558100       -0.69521370721800      h
        2.51544115444400       -4.08659179648000      -15.32826236391900      o
        3.89050920555400       -5.25879452454200      -15.50629368011800      h
        1.00210768032600       -5.11123167121700      -15.27430494859100      h
        7.20630233940900       -3.85443143286200       -2.27532763255900      o
        5.47097894796200       -4.47906703606300       -2.13270913134100      h
        7.14038837572100       -2.56306423673600       -3.58551982713700      h
      -13.13055067634600       -4.51857774406300       -2.08633332430000      o
      -14.40241247611400       -5.81131779793400       -2.40521920764300      h
      -12.20369890497600       -4.48985437847400       -3.67515029784200      h
        5.90020178890500        4.06425408170400        1.43194111610200      o
        4.20075619160200        3.63627000298500        2.01093781486400      h
        6.36237804908700        5.55866785772300        2.42608764651000      h
      -13.47574749640600       -5.19686284440900      -11.58621992411400      o
      -14.71121380593700       -6.51692526697000      -11.62943722714000      h
      -12.87942206227800       -5.14064170614600       -9.81027632215300      h
      -10.17072806775600       -2.13554084070100        7.11433851447100      o
       -9.43201419747300       -3.80282333163700        6.87352594497400      h
       -8.90512788796000       -1.20890576703900        8.08221190154700      h
        6.26734947832000        8.07054642540800      -11.36792047262200      o
        6.08502222015400        7.85219212632100       -9.53377687412300      h
        7.57991985691100        9.30051313523900      -11.55138602497800      h
        8.59278663278200       -8.39137348248900        7.42255116026700      o
        9.67552305932400       -9.79640710317000        7.88389160240900      h
        9.24123305959900       -7.81300097759300        5.79515459054300      h
       10.48314007332800       -2.73922627911100        1.50117095054300      o
       10.03065266617800       -1.22847782385800        2.47201882881400      h
        9.47228551204200       -2.70604363781600       -0.02765084671200      h
      -11.97036637477600       -6.80996556428000        2.35666739629000      o
      -12.01979918562600       -8.58571618761500        1.88745399509400      h
      -12.09672830064500       -5.87608434081200        0.76360969403700      h
        2.64618680893400        6.98932152186600       -1.63111261791600      o
        1.63024283677600        7.53481879002100       -0.20822689376300      h
        2.60624633379000        5.15881484023000       -1.75191406354100      h
        0.84468786716200       -2.79339631695400        6.68607940220300      o
        1.10180185577100       -3.73280806737600        5.12793333258500      h
        1.08735842862900       -3.97738383675100        8.05101974941300      h
       -5.66564721072900        2.94981846309900       -4.22938656339800      o
       -6.80606875680900        3.00087389072600       -2.77644765120900      h
       -6.71634971994100        3.12755135642100       -5.70565235248400      h
       11.18441566234300       -0.17090969971000       -6.97974577063300      o
        9.41465432036900       -0.43532900147700       -6.60161594075300      h
       12.00368844080700        0.03260914083900       -5.32528699513700      h
       10.46229805547600      -12.48815720067000       -2.00417370202200      o
       10.05124621889500      -10.68761006869400       -1.81313190498800      h
       11.80178660700600      -12.43361557505300       -3.27908818889900      h
        6.19082221560300        2.79514063246000       -9.62028590004000      o
        7.80723427080000        3.60220050536600       -9.92757260166500      h
        6.51663920025600        1.37119212378900       -8.51117515216000      h
       -6.90099991371500       -4.45998178890000       -7.65990005768600      o
       -6.64571633388000       -2.76918374818300       -8.35997320500900      h
       -6.03283880924900       -4.52902765190600       -6.04004252866000      h
       -3.21026881824100        2.47700449845500      -14.85689958143700      o
       -2.64464050892900        2.35887108282000      -13.10468048173500      h
       -1.81501933662100        1.78267809145800      -15.85817734930600      h
       13.20307586214100       -0.32312638547600       -2.49002494135900      o
       15.02233025130400       -0.48268872437900       -2.44684441731300      h
       12.74945067235100        0.72661404573600       -1.01918920703400      h
       16.09343236385500        2.39228154305000       -7.10578529243700      o
       14.76833515219500        3.44545786604700       -6.39943562068400      h
       16.22112968913300        0.90988199681900       -6.01884011248000      h
        3.29006804260600       -6.95587260835800       -8.01784431364300      o
        4.12669814118600       -7.79238599538500       -6.59877519642500      h
        4.43526804704300       -5.69305278991000       -8.66915668863000      h
      -18.10483397567000       -2.66127828433100       -2.41122203701600      o
      -18.78608073880600       -4.35533169358000       -2.18172911511700      h
      -18.76277602159200       -2.06522254735600       -4.04139418991700      h
        2.26485783894000        8.99125728739700        6.41898283138600      o
        2.88464746765600       10.66785070753000        6.86237766528400      h
        1.50400554079000        9.16075255652500        4.73244605560000      h
      -11.27320925543900        1.66449589972900      -11.50795018346000      o
      -10.37794423479200        1.04083974470100      -10.03944142459900      h
      -10.10138677916700        1.60549339440600      -12.93327318467900      h
        6.09917570664300       -9.37263463097400       -4.53464176049400      o
        7.33134709322200       -8.08647721238100       -4.98852633425700      h
        6.61321355343200      -10.89747155083700       -5.43290874233700      h
       -2.03957697124000        2.64583718582300       -9.89125619173400      o
       -3.47851016519500        3.77682903135300       -9.60900752273400      h
       -0.60141658298000        3.28959065814700       -8.94124703941400      h
        9.52646289128100       13.96233756964500       -1.27536610681300      o
       10.24028360723600       15.57050802731000       -0.86975183098400      h
        7.76274911000500       14.25897884141900       -1.83728926843900      h
        7.61378669862000        4.33490952672500        8.97759800619600      o
        8.19172874359700        2.59348886004700        9.02338419870900      h
        5.80230185288000        4.33196235832200        9.30340392536900      h
        5.94471186517000        5.54329771162100       14.90251605256100      o
        5.28824298440200        7.07870789213400       14.17197087966300      h
        5.45699655045600        4.16867753104100       13.78239260696900      h
       12.34480730294400        2.66225592951600        1.35571772509700      o
       11.29872437545800        4.13275263869000        0.99706854825900      h
       13.76970991176000        3.30305953453100        2.30497169020500      h
       -7.26965558516300        7.79150124969500        4.95955957234400      o
       -7.10271558740100        5.92983833980300        5.07103507017700      h
       -7.28466274873600        8.47730501552500        6.68908659019100      h
       -7.26766953837000        2.85884192869500        4.68667542214500      o
       -5.68505604719300        1.98955176135100        5.05243610127900      h
       -7.83970493346600        2.39791267580200        3.01584818100500      h
      -11.64262393701500       -5.28878360948500       -6.93074305063700      o
       -9.91947414596000       -4.63524748474600       -7.22094554252000      h
      -11.32695147728000       -7.07581554165800       -6.64175759593300      h
      -21.34037003876500       -0.73139401341600        0.83501710334300      o
      -20.67692265177800       -0.67971850528900        2.54944756186200      h
      -19.96994664510000       -1.28778043618100       -0.29630232202300      h
       11.19387494447500       -7.74152773647200        3.19150908449800      o
       11.79686931086200       -9.46761231898000        3.30366415764000      h
       10.90579752236500       -7.45714443795300        1.38614759409700      h
      -11.36017311779400        5.06894685761800       -5.09058675631700      o
      -10.88141377976100        3.29676862550700       -5.40970460163000      h
      -12.36766146829500        5.09896172352500       -3.55607759638000      h
       -8.59094151060100        6.36725592894900      -13.75324295322100      o
       -7.12703912125800        7.17021788313400      -14.48502342523200      h
       -8.86145478738100        4.85496273970700      -14.73521894591600      h
        4.77732841127800       -7.17813708416000       12.24682126476900      o
        3.28587992310900       -6.09171306510800       12.26376863321800      h
        4.22032737272200       -8.84158701698600       11.74586899935900      h
      -16.42916797237300        4.32183449001600        9.93396687151700      o
      -15.49588751017000        4.62536115951000       11.46274010168200      h
      -16.18915863164600        2.55450683614000        9.51932973499300      h
      -12.97974490910700        0.88099512798400       -1.85506296661300      o
      -13.08790253137500       -0.92817457027500       -2.07018100569900      h
      -14.55031571802600        1.57135126441400       -2.49927116331500      h
       10.13032552740500        7.09670560881600        0.65696699816600      o
       11.77431596040200        7.90134647660400        0.41537479331600      h
        8.90129954034700        8.09749233196500       -0.30997686635300      h
       -2.48276883439800       -9.38396735717600        5.12830529017800      o
       -2.77927195643300      -10.75920340190000        6.30155436686800      h
       -1.21872720437800       -9.99815230571300        3.94969988374000      h
      -17.19573149269500        2.98715395952600       -3.99669922777900      o
      -18.76190294703900        2.94604779219000       -3.06659656388100      h
      -16.97542604192800        4.74556975313000       -4.51664777205300      h
       -1.60952467024000       -7.17993862283500      -14.18888022323600      o
       -3.28883038190300       -7.53757527600500      -13.51149073563700      h
       -0.47367998579500       -8.37520753877400      -13.36393262722600      h
       -4.07140297449700       -9.63806486507000       -6.77255759006000      o
       -3.40108212019500       -8.05293592869100       -7.47554016417900      h
       -5.89913534701000       -9.54718326804100       -6.92046276591700      h
       -3.80420063439600       -4.94331209035700       -3.61042842430500      o
       -3.75320034462600       -3.24086182463700       -2.97315599786000      h
       -2.68739417449600       -5.00866002235200       -5.08196376843600      h
        5.61983929506000        7.47950505866400       -6.35115912255900      o
        6.59480819508400        6.22198891388500       -5.41264760847800      h
        3.92089186844500        6.80094048466900       -6.33211788257900      h
        5.64156341393100       -3.98845743390400        8.21006364294600      o
        5.90453533245200       -4.68688175036100        6.53388034569000      h
        5.52554230996200       -5.35877633309500        9.41612906665700      h
       -8.75373045999700        8.73700320663800       -0.10058355644400      o
       -7.84415906533900        8.41427804078400        1.45231232498500      h
      -10.02348969209300       10.00485760064600        0.33810004987700      h
       -4.85377615319300      -12.32764079374800       -2.46906486798000      o
       -5.39973268446900      -11.29284834064900       -1.05054292147800      h
       -4.63334714382900      -11.20467448355600       -3.90378367297900      h
       -5.07142053609800        4.20019241869900        9.52960148571000      o
       -4.44475550423300        5.00706525560100       11.06898409240000      h
       -3.92622993493700        4.69637766483000        8.16688510443600      h
       -0.74786097082100        1.05647143870100       10.17457323430700      o
       -1.52924070754700        0.88158784449700        8.50031932060000      h
        0.09811280590600       -0.54474520673800       10.49438841929800      h
       -8.13990341459500       -6.40436864445000        5.47040866948800      o
       -9.44417148499500       -6.76956945787900        4.20477610564700      h
       -7.90758380074800       -7.83399809394700        6.57831682827800      h
      -22.42174990285900        4.89882315899200       -6.13315804632300      o
      -21.91263770763700        6.42442084340500       -5.29638667712200      h
      -21.06540579823900        4.38434387146600       -7.24734444050000      h
      -10.34304857714400        9.30459404170200       -9.28583081688000      o
      -11.12462695203500        8.35152885518900      -10.61545421604100      h
       -8.62361735309600        9.62790706766200       -9.84170766521600      h
      -16.21709240850600       -8.31153175497400       -3.77277522148200      o
      -16.59973626247700       -7.37774491708100       -5.33913881409000      h
      -17.78024464978000       -8.38435184724300       -2.83754489525900      h
      -15.28042151792400       -0.55947859683200        7.93233111509700      o
      -14.22611963446800       -0.57154407409700        9.44297059968100      h
      -14.33353227857900        0.48897838505000        6.70767178506500      h
        1.58887361524200        9.11834908892300      -13.41691881639100      o
        1.00372298594200       10.60486649218400      -12.50183016689000      h
        3.36318812036600        8.96016036119900      -12.94957630492300      h
        6.78158264056900        9.74387138895600       -1.79565375333800      o
        5.26372615312300        8.73324505818700       -1.48375668107900      h
        6.99183084190000        9.69582251852600       -3.60316301781400      h
        1.96245117014300        3.95395863155600       -7.06450998933700      o
        2.04141998392000        3.06158181343600       -5.46767957829500      h
        3.46621069280300        3.51316181254700       -8.04493572890900      h
        2.39786632876100        4.05041098459100      -12.80105164231700      o
        4.11438794063100        4.34717368013900      -12.25923209342000      h
        1.70126191684800        5.70639049191200      -13.16537098551800      h
       17.74639397751100       -2.18144363138400       -9.74366347318100      o
       16.02157480708800       -2.70818206814100      -10.18414508287800      h
       17.73450434888300       -0.36550858780300       -9.78230831404200      h
       14.41329568640200       -8.34568895307400       -9.51199473783100      o
       13.83965366274400       -6.61177323927300       -9.70003619033100      h
       16.24499772590400       -8.22384662088500       -9.37592626032300      h
       -7.66947312569700        4.06262051132000       14.69659202475900      o
       -6.46818595001600        2.67595242622500       14.61452764788100      h
       -6.64884046604700        5.56156729561700       14.58946994604400      h
       15.91662922212500       -0.33835899883500        5.08667204066900      o
       14.58337845337500        0.88286603075100        5.58227074988100      h
       16.42026957243000        0.11806314919900        3.36708540121300      h
       12.49367698736700       -3.92646884618600        6.44902839456900      o
       13.66798851182700       -2.67720508095900        5.78809832739200      h
       11.83863038502400       -4.84204632659400        5.00163673907700      h
       12.36618951388800        2.56993573401100        6.92683665696400      o
       12.88218041587800        2.42836069656500        8.69500051136000      h
       12.25462754125100        4.36978258891900        6.52294410629100      h
       -9.03675013340500       -3.62585400287200      -13.85798976490400      o
       -8.39193972375200       -2.51155637130000      -12.54286447550700      h
      -10.69700599776300       -4.16559376606600      -13.30489307401500      h
      -15.70583816696900       -2.18098198739700        2.03727000419500      o
      -16.58500022979100       -3.56500401264400        2.84206666042300      h
      -15.96369452553600       -2.42221366579500        0.23440813178600      h
      -10.62925651623800       -1.06672317740900        2.31652714574300      o
      -12.34564969874200       -1.64878260774100        2.02654080317100      h
      -10.22028230842700       -1.58015719326300        4.06008435566600      h
        1.89216362452900       11.12068564756500       -4.38792100401300      o
        3.10681243389000       10.96666199450800       -5.75068196845800      h
        1.86089634010400        9.51062464891300       -3.49476909363000      h
       -3.50026192641000        0.98457601674000       14.40873817990600      o
       -2.36382587301700        1.84826306652000       15.53556155266400      h
       -2.70301120592400        1.15338286815300       12.73482473642200      h
       16.31375940436300        4.83395249882800        4.17122184691000      o
       16.09816146710500        5.43140614073300        5.89658305366300      h
       18.09867845738500        4.46339532125800        3.92416896051100      h
        4.37325524154200       -1.14594930326400        1.35451328369600      o
        5.70848963388900       -0.33028703368700        2.26911064999300      h
        4.38189408290100       -2.87089289777900        1.97070570398300      h
       17.58820373668400       -1.89062947905200       -4.63075532780800      o
       19.34492214839300       -1.49605360574300       -4.26461927370000      h
       17.60141413049400       -2.51813424900400       -6.35929356129200      h
       14.10490168152700        7.50468325264000       -9.73280830453700      o
       15.06378930039400        7.62130902337000      -11.26011421069000      h
       13.08214367412500        5.96009365916400       -9.87798882382100      h
        8.81115301194200       -5.97066566258000       -7.22239210241200      o
        8.25161349299100       -4.66451949069000       -8.37823617061700      h
       10.47476091640800       -5.48958795527200       -6.58099871071600      h
      -24.05768211959800        0.69724720313900       -3.56526268343400      o
      -23.22831248663300        0.85330972744400       -1.94232159163500      h
      -23.86323606592600        2.33773383478300       -4.37316590210200      h
      -20.56675010411400        8.91828066875000       -1.83381548122500      o
      -19.31842585979600        8.73319415955300       -3.19246308940000      h
      -19.60629608744000        9.67326380200100       -0.46693341565700      h
       -7.43649570712800       10.47491070742500        9.11068833494500      o
       -8.79642262386700        9.79405157923800       10.17949134416700      h
       -8.19831222603900       11.85501797904200        8.15179154826100      h
       -4.52366248920100       11.13893086392300       -1.91072943780700      o
       -6.17442991087700       10.36859599824800       -1.64681564831400      h
       -3.93629548027100       11.67020567191400       -0.27711999529200      h
        6.36899383167000       -3.47117251448000      -10.96258640951400      o
        6.19389354523700       -4.92401370875200      -12.10235981587700      h
        4.81111855089900       -2.46069309667600      -11.16612842490600      h
      -10.30486604016200       13.44784976172300        6.05407670824700      o
      -10.71441853227000       12.91914581061200        4.34047491250900      h
      -11.81771412664300       13.04822369483500        6.99030011078000      h
       -1.77542105909800       14.43078050198200       -5.45642858746400      o
       -0.66603775982400       13.10175000811600       -4.81179502308900      h
       -1.18294766445600       14.71798347325100       -7.16089051899200      h
        9.57127045103900       -9.74265921763200      -10.42998673809200      o
       11.39234129032700       -9.76169113597200      -10.59949436829500      h
        9.25464731421000       -8.34616524753900       -9.22739915713700      h
       -8.16087409179300        1.38626131062400      -15.56613941914300      o
       -6.33996950946100        1.66769296946000      -15.38043291108200      h
       -8.37592723580000       -0.41293567357800      -15.78749414477900      h
       -3.18445952874100       -4.07864131236500       14.52005893356000      o
       -3.68623905456600       -4.52362909207400       12.79386481119800      h
       -3.46250712757400       -2.26113778434100       14.67424744744300      h
       -8.28849070234000      -11.87029198420200      -10.43527501351800      o
       -8.97588805441100      -11.17085913876900       -8.89749806029100      h
       -7.44823969287700      -10.46238559287300      -11.26620720493500      h
       -9.18930431194300       -9.60732931721200       -5.76113544920700      o
      -10.52715931992200      -10.73159509405200       -5.13118298942000      h
       -8.69322699902100       -8.64469931077500       -4.24156265123700      h
      -13.68481411880800        6.18750855129300       -0.62841948971900      o
      -12.76387375583800        6.76477652478900        0.86487757996300      h
      -14.68055342533000        4.75431185950800       -0.00650550403500      h
      -12.88682714124900      -12.20407845095200       -3.72903837572300      o
      -14.26304315287500      -11.02133672259500       -4.03535475201600      h
      -12.57091490042500      -12.03628149157400       -1.90736761893400      h
       14.13141268145200       -3.22671317357800       11.79190202617600      o
       12.53505075123600       -4.13642068198500       11.90425234788100      h
       15.29124704867300       -4.37926537225000       11.01225933007800      h
       -3.46140843051300        7.59323904054400      -14.89617337468400      o
       -3.33080922524900        5.74749129960700      -15.01725335325300      h
       -1.74849910330600        8.21051619319400      -14.81975627864300      h
       10.27877352023800       10.75644094192600       -8.13582835040900      o
       10.91578787210200       10.72742841444100       -6.40880512023500      h
       11.45133487444300        9.67994443676600       -9.03297396433900      h
      -24.45633855619600       -4.50834823117700        0.58241675161900      o
      -23.40048986534300       -2.94438897733400        0.62627940777300      h
      -25.82995747001700       -4.13162374475400       -0.53110862605800      h
        6.65989001133600        7.39484339500900        4.93900476581300      o
        4.97384824264700        7.84530459698900        5.58431169132200      h
        7.47316749759800        6.45352083591000        6.29173522838100      h
        0.87929449973000        3.70288243281700       15.36269800350100      o
        2.15908537150700        4.63006337781800       16.26012504297700      h
        1.80468246670300        2.64523175599000       14.17801537579300      h
       -4.02552992035200       -5.06369301677900        9.59292305757800      o
       -2.32254089111800       -5.67032160017600        9.22446529297200      h
       -5.11258650570100       -6.52379183281600        9.45597758414600      h
        3.04715182149000      -12.14302221093200       10.72742677037900      o
        1.52737742339900      -12.10261370641700       11.72743591646400      h
        2.59586341559700      -12.99375503399400        9.17174656087800      h
       -2.33238879369100        7.00290280066100       -3.48998525673600      o
       -3.75116559789400        5.97235199940400       -4.04859199788700      h
       -3.05560212602500        8.68416469010800       -3.12836542409200      h
        4.42167413354100        0.95637939090600       12.62560674338100      o
        5.96041780083300        0.16137773871800       13.24908045160500      h
        4.41812135880500        0.79234721121600       10.78041274430400      h
       -8.65539095009500      -15.59460812545100       -3.66054041362200      o
      -10.17430200817800      -14.67961990827000       -4.08693572528000      h
       -7.35362037533500      -14.33773757511800       -3.28453489233500      h
       -7.14559311146500       14.93820728464400        1.27584469105900      o
       -8.14206990187000       14.63882049731300       -0.26797761151000      h
       -8.22079078643700       15.78118493073600        2.46315177148800      h
        7.62345402162600       11.26724086103000       10.21125190319000      o
        6.12366118755700       10.64413444976800       11.07256801000900      h
        8.92149185964600       10.01813324612600       10.56907676229300      h
       20.77596309618400        3.98832297026500       -6.22207134902200      o
       20.58203757224900        5.76913511381800       -6.54944323231100      h
       19.07128291510500        3.31530828460000       -6.57684293898000      h
       15.27159240497200       -4.36291653859000        0.91949438265700      o
       13.51062838301100       -3.80710795395900        1.05109940986500      h
       16.24918904773000       -2.84255993313100        0.67096573386400      h
      -12.19092500346700        7.44736490604300        4.02640788211500      o
      -10.40079475731800        7.70450063651600        4.41237756777400      h
      -12.56145259473200        5.68845167231900        4.51265084973600      h
        2.50919557937900      -13.99509376517800       -5.92966897443800      o
        3.99522085624000      -13.84118676358100       -6.98202662468900      h
        1.05697515800300      -14.02462454263400       -7.10779115810800      h
      -11.52825255775400        8.33522065498400       11.05604768164100      o
      -12.74409710991700        9.12619886822000        9.91893843492100      h
      -11.05458401689400        6.70834226172200       10.26843297763800      h
        0.97254218765900      -11.69245949287400        1.94399992074500      o
        0.43054729260300      -12.79981736970300        0.57080671078000      h
        2.47324216369400      -10.76978362089900        1.35563816404400      h
      -17.03520878145800        7.95202688849500       -5.27464429253800      o
      -15.46676116524700        8.88417464348300       -4.98130262891500      h
      -17.50632074401700        8.31929100298100       -7.02700530253300      h
      -12.66727051555500        2.65521648095800        5.14911205916100      o
      -11.42338718768800        2.93532360630900        6.50596619061100      h
      -11.83349761476900        1.61133344732200        3.87717199318100      h
       15.49313440660700       13.18233289521900        3.12554445121100      o
       16.91173156892600       12.61077226013100        4.12965822151900      h
       14.07795193750400       13.23912013660600        4.29151188110400      h
      -20.53678586774500       -1.28445480745000       -6.56208954821700      o
      -19.96844323072400        0.19734969790700       -7.47901400241600      h
      -22.04042548181300       -0.74101069838100       -5.61425527034200      h
        4.77230988308200       14.90870522516400       -2.44146201463800      o
        3.80415820589100       13.48654654094500       -3.12253306444000      h
        3.92475433373700       15.23629728099000       -0.85040098850800      h
        5.54087995977000       12.77751493856700       -7.71959217975500      o
        5.80379091478700       14.17480661943000       -6.59262434689700      h
        7.18314457711200       11.99186420085400       -7.98073664182000      h
       10.34144040940100       -7.53441337067300       -1.69805586903000      o
       11.67535032873500       -6.93915392604000       -2.82265648622200      h
        9.00739759414500       -6.25161047207500       -1.87499661021000      h
        1.35402081204300       -5.83581449720600        2.58179754738500      o
       -0.22191241229800       -6.60012891256900        1.96163354090500      h
        2.26136621970500       -7.10291305129000        3.54578369939800      h
       -9.14798549884800      -12.28588508546300        5.97470440377600      o
       -9.27961378121200      -14.04075770810700        5.54704200649100      h
      -10.87115748189900      -11.73269254616100        6.44894977459900      h
      -14.23005641569000       -5.49703098258600        6.80284842776500      o
      -14.45301847456600       -3.68500918255600        7.12739794450000      h
      -13.24967958846200       -5.64723846145600        5.24338012446000      h
       16.49777393023300       -9.04622270314500        3.01340170097300      o
       16.40026743004800       -8.80409049984500        4.83353013638600      h
       15.79097131970500       -7.50077696158000        2.31156384686700      h
       22.41177008475400       -1.44699205404300        0.81236909140800      o
       23.12745367157300       -1.11515853421200        2.45399829973800      h
       21.92206021286700       -3.22097183843500        0.84478954764600      h
       19.05880471545600       -4.32720080564300        5.99730319458500      o
       18.19860209110300       -5.62546755958500        6.95267457600100      h
       17.79953936928400       -3.02720880957700        5.65825093372300      h
      -22.58238756253400       -5.01153775674300        5.56225954286100      o
      -22.02200950906300       -3.29125826929900        5.88773490474600      h
      -23.61627714860600       -4.94810129539600        4.05403277552000      h
      -10.07204262537700        3.95740216236800        9.15314631206900      o
       -8.22463419516600        4.01582713191400        9.24831223529900      h
      -10.62602607999400        2.61639620814400       10.28972695746600      h
       -6.95834880697600       -9.41617744534200        9.68413443559500      o
       -8.47551551232600       -8.59452157071100       10.37806267279900      h
       -7.53253288075900      -10.88689222057700        8.76047088909300      h
       -9.51395814079400      -16.04098567047300        1.44601536827200      o
       -9.41387759235900      -16.28060649526000       -0.38152804978800      h
       -7.76220708123400      -16.02758872764100        1.99543950395800      h
      -17.06023335828900      -11.45423861675400        3.32953667000000      o
      -18.58060952184500      -12.37725235717800        3.01259784405700      h
      -17.52534937366700       -9.65349576000300        3.41970170486900      h
       14.06339717073300      -11.16593508969000       -5.18974855212000      o
       14.01558587853900      -10.30377571421000       -6.81354107506400      h
       15.23864369701000      -10.18135699803100       -4.19164944313700      h
       11.77205872584200        7.33333905580100        5.52693828037900      o
       11.79991807924600        9.08718692239300        6.05162246238600      h
       10.87540031123000        7.27489245853100        3.92622054356600      h
       11.42033186479000       12.44634385234200        6.33738224484600      o
       10.62860756072500       12.60593280501100        7.96448802316300      h
       10.02029538344100       12.48280250931400        5.10735611295900      h
      -18.18008210160100       -6.56736029530100        3.97825209496000      o
      -19.83843234004400       -6.13916353038300        4.74082071648400      h
      -16.90073748992900       -6.29630475750200        5.30358294799000      h
       14.28135787335200        1.88091900661000       11.56510038696700      o
       14.17958126583100        0.04595205999600       11.75337519151900      h
       13.24681956004700        2.59847099060900       12.89322047360800      h
        6.66540248025800      -15.86892697108700       -2.62059316381100      o
        8.03080853606600      -14.63955190364800       -2.43015005085400      h
        5.42511007105600      -15.15467274481900       -3.74225013901800      h
      -16.61677698792300        2.90556658859500        1.79053875897800      o
      -18.26729880437400        3.08208909506100        0.97180915351500      h
      -16.26295050981600        1.11774523134300        2.02322922681900      h
      -10.87574001025700       -6.60300632438400       10.96942585760400      o
      -10.23716400190700       -5.20399292630200       11.98358355988300      h
      -11.94973376709300       -5.88257352309500        9.67999826768800      h
       -2.76956580673900      -14.14225938488000        7.28007770987700      o
       -3.66274017084600      -14.76483763701400        5.79754944156100      h
       -1.00173409567900      -14.54321281946200        6.98087545560800      h
        2.16808266987900      -14.37240194788400        5.92019469260600      o
        1.67223046300200      -13.44338424311700        4.36060366558500      h
        3.05849699682900      -15.84235388308300        5.33590097768000      h
       13.12423776807800       -4.91506304201400       -4.96995933895600      o
       14.74686619980600       -5.75380678395000       -4.68866546533000      h
       13.17047976041100       -3.35293546136100       -4.01240169050300      h
        9.24138870517600       -0.85238656891600        9.25712393178000      o
       10.66271008810900       -1.73277946146100        8.51111352668500      h
        7.78956075663600       -1.98949537589700        8.89522209457800      h
       -8.69516728080900       -2.76727800208200       13.66216665111400      o
       -7.71835356511700       -1.88344494149300       12.34148581271200      h
       -7.47405442327600       -3.40398695873700       14.84384774338200      h
       -6.48982511417800       12.84136911684400       -6.50280189231900      o
       -6.27639706985900       12.55716371712600       -8.28997148649200      h
       -4.81976617664900       13.31536652708800       -5.86120145638900      h
       21.80057865298300       -5.99536651215900       -3.89162808129700      o
       22.26414675169500       -6.33725226930600       -2.16518682737800      h
       22.28980684090600       -4.26342656447500       -4.22822235124000      h
       -2.96503620185800        6.65955068364000       13.40999886181800      o
       -1.50044261161200        5.74747290973900       14.04120670019000      h
       -2.37124525022100        7.97907985331800       12.28921440728600      h
       -6.97264794957400        7.79048570548900       -5.47772456832300      o
       -6.97926488375600        9.60561896896300       -5.78969259998100      h
       -8.69972202660400        7.20422186981400       -5.32712840532900      h
        7.37067161578300      -13.11536087718500        3.48252832028300      o
        9.11443813250800      -13.47251603007300        3.10561554062200      h
        6.35101044440200      -14.50622090658200        2.84460662727600      h
      -12.19174568215600       12.20513600489900        1.38265442094000      o
      -13.89303346840700       11.48359939333000        1.54497327719600      h
      -12.24425594327300       13.44595768930100        0.05856676494400      h
      -13.69373049665800      -10.83054922938300        7.29106793307800      o
      -13.84835563228900       -9.04579699229700        7.63550619711100      h
      -14.95458074936900      -11.23530659934300        6.02797167436900      h
      -12.75647538614900        4.81748556806800       14.63179785937900      o
      -11.01608318486700        4.47442730740200       15.11976203758300      h
      -12.59522137308000        6.37814383898500       13.67228050955900      h
       -2.34763104219600        9.99672845163500        9.50111085555700      o
       -1.71542888407600       11.59052344369400        8.79622607271500      h
       -4.17437109164500       10.21127685210800        9.55462369641500      h
       -6.33696474240000       -0.59839640255900        9.85495196184400      o
       -5.59049611712300        1.08561192652200        9.69399280857200      h
       -5.11140056717500       -1.88930123584700        9.41489907654000      h
      -17.93742321561600        8.46337308541900      -10.22941724763500      o
      -16.34124932617100        7.56496373483600      -10.40398094619600      h
      -19.22770877456100        7.30708830515500      -10.76704224459700      h
      -17.44133633803500        6.29615406036200        5.37552086440800      o
      -16.81217278799900        4.98200962925000        4.21436055226600      h
      -16.93192627759600        5.73976912311000        7.05940334624400      h
        4.38950523951100       13.58751494064600        6.73042761493600      o
        5.53596887458800       13.22957530582500        8.11255642957900      h
        5.39990433564700       13.30111533061700        5.20825383350800      h
       17.69556840670000        8.10977965852100       -5.91004260160400      o
       16.31935739736800        7.95487136522100       -7.11870715684200      h
       17.51863194423700        9.72468257649600       -5.08471722046400      h
       -6.16897744888000       -7.33845386383400      -11.84699355543000      o
       -7.18350745910700       -6.29410365951900      -12.97980905434200      h
       -6.24632000721300       -6.42331923408800      -10.24130324950100      h
      -16.65778540540500        9.76003638931900        1.44760482886200      o
      -16.96952125682800        8.83177770034900        2.99644956776900      h
      -15.81987789233400        8.53368102098700        0.33578115601600      h
      -20.23400282846600       -7.05157018935400       -0.77424302586200      o
      -21.94739165171200       -6.43693024620900       -0.47690900871300      h
      -19.40638982219300       -6.96455041926800        0.85728645803900      h
      -20.05854920674400       -0.47296098494500        5.77779952808300      o
      -18.41713446794700       -0.47345994251500        6.59662081530100      h
      -20.72929982743400        1.23676922209400        5.82872044237100      h
      -20.99742238489200        4.15489988118500       -0.35508327096300      o
      -21.94244988739700        4.04210974126100        1.19811655890100      h
      -21.01859852821300        5.94406217946700       -0.87442826190200      h
      -15.75025867060100       -0.62060431413900      -11.93884992601500      o
      -14.18516786378900        0.32619867830300      -12.18152837198600      h
      -15.24275208821300       -2.38421793464800      -12.09084139632200      h
      -18.63580805097300        2.88163794869000       -9.35592529410700      o
      -17.01125444751700        3.74135804229400       -9.08870028749900      h
      -18.30250040525200        1.71247534484000      -10.71671496163700      h
       10.74099674313300        3.73058495276200       15.00901562228900      o
       10.22270759083600        1.96417903785200       15.01624619980800      h
        9.15771961346200        4.62527370563900       15.30005121006100      h
        9.78627791507900       -5.94728597011100       11.83370264927900      o
        8.16355589599600       -6.37895737280900       12.55625178149200      h
        9.63227852137900       -6.54037060568300       10.09995560599100      h
        1.16599335579900        0.81109083239900      -16.72745168471500      o
        1.66615433720600       -0.89760613617400      -16.29695053544100      h
        1.94223441838800        1.91485242128500      -15.48498963371900      h
        5.99132109947400       -7.80277262877800      -13.61299246229900      o
[...]
   385   8 o      387   1 h                                       0.9578488
   388   8 o      389   1 h                                       0.9728094
   388   8 o      390   1 h                                       0.9719030
   391   8 o      392   1 h                                       0.9636362
   391   8 o      393   1 h                                       0.9878403
   394   8 o      395   1 h                                       0.9796552
   394   8 o      396   1 h                                       0.9655050
   397   8 o      398   1 h                                       0.9785713
   397   8 o      399   1 h                                       0.9853927
   400   8 o      401   1 h                                       0.9670221
   400   8 o      402   1 h                                       0.9896871
   403   8 o      404   1 h                                       0.9753157
   403   8 o      405   1 h                                       0.9887875
   406   8 o      407   1 h                                       0.9765664
   406   8 o      408   1 h                                       0.9828463
   409   8 o      410   1 h                                       0.9779013
   409   8 o      411   1 h                                       0.9797069
   412   8 o      413   1 h                                       0.9852875
   412   8 o      414   1 h                                       0.9761421
   415   8 o      416   1 h                                       0.9681694
   415   8 o      417   1 h                                       0.9707838
   418   8 o      419   1 h                                       0.9699270
   418   8 o      420   1 h                                       0.9835658
   421   8 o      422   1 h                                       0.9791511
   421   8 o      423   1 h                                       0.9695853
   424   8 o      425   1 h                                       0.9600744
   424   8 o      426   1 h                                       0.9732369
   427   8 o      428   1 h                                       0.9755216
   427   8 o      429   1 h                                       0.9838374
   430   8 o      431   1 h                                       0.9832372
   430   8 o      432   1 h                                       0.9697213
   433   8 o      434   1 h                                       0.9583514
   433   8 o      435   1 h                                       0.9900357
   436   8 o      437   1 h                                       0.9812590
   436   8 o      438   1 h                                       0.9779967
   439   8 o      440   1 h                                       0.9730249
   439   8 o      441   1 h                                       0.9729595
   442   8 o      443   1 h                                       0.9638093
   442   8 o      444   1 h                                       0.9740127
   445   8 o      446   1 h                                       0.9668431
   445   8 o      447   1 h                                       0.9744171
   448   8 o      449   1 h                                       0.9727826
   448   8 o      450   1 h                                       0.9682208
   451   8 o      452   1 h                                       0.9793909
   451   8 o      453   1 h                                       0.9753255
   454   8 o      455   1 h                                       0.9841060
   454   8 o      456   1 h                                       0.9679524
   457   8 o      458   1 h                                       0.9768086
   457   8 o      459   1 h                                       0.9715381
   460   8 o      461   1 h                                       0.9560328
   460   8 o      462   1 h                                       0.9853413
   463   8 o      464   1 h                                       0.9732125
   463   8 o      465   1 h                                       0.9680907
   466   8 o      467   1 h                                       0.9688500
   466   8 o      468   1 h                                       0.9713985
   469   8 o      470   1 h                                       0.9612646
   469   8 o      471   1 h                                       0.9863722
   472   8 o      473   1 h                                       0.9921176
   472   8 o      474   1 h                                       0.9852786
   475   8 o      476   1 h                                       0.9776053
   475   8 o      477   1 h                                       0.9684166
   478   8 o      479   1 h                                       0.9774701
   478   8 o      480   1 h                                       0.9622589
   481   8 o      482   1 h                                       0.9794356
   481   8 o      483   1 h                                       0.9722533
   484   8 o      485   1 h                                       0.9748263
   484   8 o      486   1 h                                       0.9663984
   487   8 o      488   1 h                                       0.9733488
   487   8 o      489   1 h                                       0.9722348
   490   8 o      491   1 h                                       0.9958193
   490   8 o      492   1 h                                       0.9605690
   493   8 o      494   1 h                                       0.9779820
   493   8 o      495   1 h                                       0.9698965
   496   8 o      497   1 h                                       0.9688104
   496   8 o      498   1 h                                       0.9944864
   499   8 o      500   1 h                                       0.9870998
   499   8 o      501   1 h                                       0.9602614
   502   8 o      503   1 h                                       0.9642503
   502   8 o      504   1 h                                       0.9793957
   505   8 o      506   1 h                                       0.9630998
   505   8 o      507   1 h                                       0.9688795
   508   8 o      509   1 h                                       0.9722102
   508   8 o      510   1 h                                       0.9685394
   511   8 o      512   1 h                                       0.9746170
   511   8 o      513   1 h                                       0.9684333
   514   8 o      515   1 h                                       0.9628038
   514   8 o      516   1 h                                       0.9730453
   517   8 o      518   1 h                                       0.9816691
   517   8 o      519   1 h                                       0.9606577
   520   8 o      521   1 h                                       0.9653515
   520   8 o      522   1 h                                       0.9684065
   523   8 o      524   1 h                                       0.9735658
   523   8 o      525   1 h                                       0.9732159
   526   8 o      527   1 h                                       0.9810102
   526   8 o      528   1 h                                       0.9737255
   529   8 o      530   1 h                                       0.9784783
   529   8 o      531   1 h                                       0.9702995
   532   8 o      533   1 h                                       0.9736549
   532   8 o      534   1 h                                       0.9599678
   535   8 o      536   1 h                                       0.9859065
   535   8 o      537   1 h                                       0.9764035
   538   8 o      539   1 h                                       0.9689552
   538   8 o      540   1 h                                       0.9786123
   541   8 o      542   1 h                                       0.9727112
   541   8 o      543   1 h                                       0.9642620
   544   8 o      545   1 h                                       0.9762151
   544   8 o      546   1 h                                       0.9788627
   547   8 o      548   1 h                                       0.9696751
   547   8 o      549   1 h                                       0.9817897
   550   8 o      551   1 h                                       0.9760260
   550   8 o      552   1 h                                       0.9691899
   553   8 o      554   1 h                                       0.9706777
   553   8 o      555   1 h                                       0.9722582
   556   8 o      557   1 h                                       0.9639496
   556   8 o      558   1 h                                       0.9859283
   559   8 o      560   1 h                                       0.9764486
   559   8 o      561   1 h                                       0.9744620
   562   8 o      563   1 h                                       0.9828607
   562   8 o      564   1 h                                       0.9656265
   565   8 o      566   1 h                                       0.9741557
   565   8 o      567   1 h                                       0.9745969
   568   8 o      569   1 h                                       0.9673447
   568   8 o      570   1 h                                       0.9730740
   571   8 o      572   1 h                                       0.9692958
   571   8 o      573   1 h                                       0.9706547
   574   8 o      575   1 h                                       0.9691234
   574   8 o      576   1 h                                       0.9730811
   577   8 o      578   1 h                                       0.9827559
   577   8 o      579   1 h                                       0.9719373
   580   8 o      581   1 h                                       0.9574571
   580   8 o      582   1 h                                       0.9810502
   583   8 o      584   1 h                                       0.9703464
   583   8 o      585   1 h                                       0.9770348
   586   8 o      587   1 h                                       0.9652132
   586   8 o      588   1 h                                       0.9801649
   589   8 o      590   1 h                                       0.9659428
   589   8 o      591   1 h                                       0.9879627
   592   8 o      593   1 h                                       0.9830491
   592   8 o      594   1 h                                       0.9666842
   595   8 o      596   1 h                                       0.9578671
   595   8 o      597   1 h                                       0.9992151 (max)
   598   8 o      599   1 h                                       0.9580544
   598   8 o      600   1 h                                       0.9850667
   601   8 o      602   1 h                                       0.9712982
   601   8 o      603   1 h                                       0.9634265
   604   8 o      605   1 h                                       0.9675944
   604   8 o      606   1 h                                       0.9750814
   607   8 o      608   1 h                                       0.9771611
   607   8 o      609   1 h                                       0.9709809
   610   8 o      611   1 h                                       0.9698498
   610   8 o      612   1 h                                       0.9663159
   613   8 o      614   1 h                                       0.9684614
   613   8 o      615   1 h                                       0.9706052
   616   8 o      617   1 h                                       0.9661901
   616   8 o      618   1 h                                       0.9730029
   619   8 o      620   1 h                                       0.9794535
   619   8 o      621   1 h                                       0.9600526
   622   8 o      623   1 h                                       0.9571946
   622   8 o      624   1 h                                       0.9819124
   625   8 o      626   1 h                                       0.9665241
   625   8 o      627   1 h                                       0.9774833
   628   8 o      629   1 h                                       0.9834913
   628   8 o      630   1 h                                       0.9618663
   631   8 o      632   1 h                                       0.9646446
   631   8 o      633   1 h                                       0.9741844
   634   8 o      635   1 h                                       0.9907393
   634   8 o      636   1 h                                       0.9570904
   637   8 o      638   1 h                                       0.9624509
   637   8 o      639   1 h                                       0.9737750
   640   8 o      641   1 h                                       0.9843141
   640   8 o      642   1 h                                       0.9643914
   643   8 o      644   1 h                                       0.9575404
   643   8 o      645   1 h                                       0.9935689
   646   8 o      647   1 h                                       0.9796521
   646   8 o      648   1 h                                       0.9711353
   649   8 o      650   1 h                                       0.9649115
   649   8 o      651   1 h                                       0.9768161
   652   8 o      653   1 h                                       0.9774198
   652   8 o      654   1 h                                       0.9678758
   655   8 o      656   1 h                                       0.9715945
   655   8 o      657   1 h                                       0.9728536
   658   8 o      659   1 h                                       0.9780022
   658   8 o      660   1 h                                       0.9677004
   661   8 o      662   1 h                                       0.9836169
   661   8 o      663   1 h                                       0.9611793
   664   8 o      665   1 h                                       0.9749511
   664   8 o      666   1 h                                       0.9686277
   667   8 o      668   1 h                                       0.9907472
   667   8 o      669   1 h                                       0.9552907 (min)
   670   8 o      671   1 h                                       0.9725163
   670   8 o      672   1 h                                       0.9770582
   673   8 o      674   1 h                                       0.9598936
   673   8 o      675   1 h                                       0.9876986
   676   8 o      677   1 h                                       0.9717149
   676   8 o      678   1 h                                       0.9761654
   679   8 o      680   1 h                                       0.9740007
   679   8 o      681   1 h                                       0.9754485
   682   8 o      683   1 h                                       0.9669277
   682   8 o      684   1 h                                       0.9695162
   685   8 o      686   1 h                                       0.9757088
   685   8 o      687   1 h                                       0.9709708
   688   8 o      689   1 h                                       0.9774371
   688   8 o      690   1 h                                       0.9801392
   691   8 o      692   1 h                                       0.9605074
   691   8 o      693   1 h                                       0.9856788
   694   8 o      695   1 h                                       0.9723470
   694   8 o      696   1 h                                       0.9879038
   697   8 o      698   1 h                                       0.9739849
   697   8 o      699   1 h                                       0.9742983
   700   8 o      701   1 h                                       0.9658983
   700   8 o      702   1 h                                       0.9633424
   703   8 o      704   1 h                                       0.9694772
   703   8 o      705   1 h                                       0.9726576
   706   8 o      707   1 h                                       0.9877986
   706   8 o      708   1 h                                       0.9562291
   709   8 o      710   1 h                                       0.9654955
   709   8 o      711   1 h                                       0.9737506
   712   8 o      713   1 h                                       0.9799887
   712   8 o      714   1 h                                       0.9638120
   715   8 o      716   1 h                                       0.9708039
   715   8 o      717   1 h                                       0.9758765
   718   8 o      719   1 h                                       0.9718909
   718   8 o      720   1 h                                       0.9686500
   721   8 o      722   1 h                                       0.9776380
   721   8 o      723   1 h                                       0.9745141
   724   8 o      725   1 h                                       0.9732188
   724   8 o      726   1 h                                       0.9743788
   727   8 o      728   1 h                                       0.9799491
   727   8 o      729   1 h                                       0.9769180
   730   8 o      731   1 h                                       0.9645811
   730   8 o      732   1 h                                       0.9694908
   733   8 o      734   1 h                                       0.9749936
   733   8 o      735   1 h                                       0.9805405
   736   8 o      737   1 h                                       0.9673634
   736   8 o      738   1 h                                       0.9833933
   739   8 o      740   1 h                                       0.9838402
   739   8 o      741   1 h                                       0.9661006
   742   8 o      743   1 h                                       0.9814636
   742   8 o      744   1 h                                       0.9781603
   745   8 o      746   1 h                                       0.9582955
   745   8 o      747   1 h                                       0.9874820
   748   8 o      749   1 h                                       0.9826216
   748   8 o      750   1 h                                       0.9681151
   751   8 o      752   1 h                                       0.9579669
   751   8 o      753   1 h                                       0.9808825
   754   8 o      755   1 h                                       0.9780766
   754   8 o      756   1 h                                       0.9592287

 * 1 distinct bonds (by element types)

   Z      Z             #   av. dist./Å        max./Å        min./Å
   1 H    8 O         504     0.9736796     0.9992151     0.9552907


optimized geometry written to: xtbopt.coord


           -------------------------------------------------
          | TOTAL ENERGY            -1283.369176169824 Eh   |
          | GRADIENT NORM               0.004394993796 Eh/α |
          | HOMO-LUMO GAP               8.029694785864 eV   |
           -------------------------------------------------

------------------------------------------------------------------------
 * finished run on 2022/11/24 at 09:14:10.174     
------------------------------------------------------------------------
 total:
 * wall-time:     0 d,  0 h,  6 min, 17.809 sec
 *  cpu-time:     0 d,  0 h,  9 min, 17.624 sec
 * ratio c/w:     1.476 speedup
 SCF:
 * wall-time:     0 d,  0 h,  0 min, 22.625 sec
 *  cpu-time:     0 d,  0 h,  0 min, 36.710 sec
 * ratio c/w:     1.623 speedup
 ANC optimizer:
 * wall-time:     0 d,  0 h,  5 min, 54.103 sec
 *  cpu-time:     0 d,  0 h,  8 min, 39.147 sec
 * ratio c/w:     1.466 speedup

