      -----------------------------------------------------------      
     |                   =====================                   |     
     |                           x T B                           |     
     |                   =====================                   |     
     |                         S. Grimme                         |     
     |          Mulliken Center for Theoretical Chemistry        |     
     |                    University of Bonn                     |     
      -----------------------------------------------------------      

   * xtb version 6.5.1 (579679a) compiled by 'ehlert@majestix' on 2022-07-11

   xtb is free software: you can redistribute it and/or modify it under
   the terms of the GNU Lesser General Public License as published by
   the Free Software Foundation, either version 3 of the License, or
   (at your option) any later version.
   
   xtb is distributed in the hope that it will be useful,
   but WITHOUT ANY WARRANTY; without even the implied warranty of
   MERCHANTABILITY or FITNESS FOR A PARTICULAR PURPOSE.  See the
   GNU Lesser General Public License for more details.
   
   Cite this work as:
   * C. Bannwarth, E. Caldeweyher, S. Ehlert, A. Hansen, P. Pracht,
     J. Seibert, S. Spicher, S. Grimme, WIREs Comput. Mol. Sci., 2020, 11,
     e01493. DOI: 10.1002/wcms.1493
   
   for GFN2-xTB:
   * C. Bannwarth, S. Ehlert and S. Grimme., J. Chem. Theory Comput., 2019,
     15, 1652-1671. DOI: 10.1021/acs.jctc.8b01176
   for GFN1-xTB:
   * S. Grimme, C. Bannwarth, P. Shushkov, J. Chem. Theory Comput., 2017,
     13, 1989-2009. DOI: 10.1021/acs.jctc.7b00118
   for GFN0-xTB:
   * P. Pracht, E. Caldeweyher, S. Ehlert, S. Grimme, ChemRxiv, 2019, preprint.
     DOI: 10.26434/chemrxiv.8326202.v1
   for GFN-FF:
   * S. Spicher and S. Grimme, Angew. Chem. Int. Ed., 2020, 59, 15665-15673.
     DOI: 10.1002/anie.202004239
   
   for ALPB and GBSA implicit solvation:
   * S. Ehlert, M. Stahn, S. Spicher, S. Grimme, J. Chem. Theory Comput.,
     2021, 17, 4250-4261. DOI: 10.1021/acs.jctc.1c00471
   
   for DFT-D4:
   * E. Caldeweyher, C. Bannwarth and S. Grimme, J. Chem. Phys., 2017,
     147, 034112. DOI: 10.1063/1.4993215
   * E. Caldeweyher, S. Ehlert, A. Hansen, H. Neugebauer, S. Spicher,
     C. Bannwarth and S. Grimme, J. Chem. Phys., 2019, 150, 154122.
     DOI: 10.1063/1.5090222
   * E. Caldeweyher, J.-M. Mewes, S. Ehlert and S. Grimme, Phys. Chem. Chem. Phys.
     2020, 22, 8499-8512. DOI: 10.1039/D0CP00502A
   
   for sTDA-xTB:
   * S. Grimme and C. Bannwarth, J. Chem. Phys., 2016, 145, 054103.
     DOI: 10.1063/1.4959605
   
   in the mass-spec context:
   * V. Asgeirsson, C. Bauer and S. Grimme, Chem. Sci., 2017, 8, 4879.
     DOI: 10.1039/c7sc00601b
   * J. Koopman and S. Grimme, ACS Omega 2019, 4, 12, 15120-15133.
     DOI: 10.1021/acsomega.9b02011
   
   for metadynamics refer to:
   * S. Grimme, J. Chem. Theory Comput., 2019, 155, 2847-2862
     DOI: 10.1021/acs.jctc.9b00143
   
   for SPH calculations refer to:
   * S. Spicher and S. Grimme, J. Chem. Theory Comput., 2021, 17, 1701-1714
     DOI: 10.1021/acs.jctc.0c01306
   
   with help from (in alphabetical order)
   P. Atkinson, C. Bannwarth, F. Bohle, G. Brandenburg, E. Caldeweyher
   M. Checinski, S. Dohm, S. Ehlert, S. Ehrlich, I. Gerasimov, C. Hölzer
   A. Katbashev, J. Koopman, C. Lavigne, S. Lehtola, F. März, M. Müller,
   F. Musil, H. Neugebauer, J. Pisarek, C. Plett, P. Pracht, F. Pultar,
   J. Seibert, P. Shushkov, S. Spicher, M. Stahn, M. Steiner, T. Strunk,
   J. Stückrath, T. Rose, and J. Unsleber
   
 * started run on 2022/11/24 at 09:28:10.072     

           -------------------------------------------------
          |                Calculation Setup                |
           -------------------------------------------------

          program call               : xtb solvent_cluster.coord --gfn2 --sp --lmo --chrg 0
          hostname                   : cn0341
          coordinate file            : solvent_cluster.coord
          omp threads                :                     2

   ID    Z sym.   atoms
    1    8 o      1, 4, 7, 10, 13, 16, 19, 22, 25, 28, 31, 34, 37, 40, 43,
                  46, 49, 52, 55, 58, 61, 64, 67, 70, 73, 76, 79, 82, 85, 88,
                  91, 94, 97, 100, 103, 106, 109, 112, 115, 118, 121, 124,
                  127, 130, 133, 136, 139, 142, 145, 148, 151, 154, 157, 160,
                  163, 166, 169, 172, 175, 178, 181, 184, 187, 190, 193, 196,
                  199, 202, 205, 208, 211, 214, 217, 220, 223, 226, 229, 232,
                  235, 238, 241, 244, 247, 250, 253, 256, 259, 262, 265, 268,
                  271, 274, 277, 280, 283, 286, 289, 292, 295, 298, 301, 304,
                  307, 310, 313, 316, 319, 322, 325, 328, 331, 334, 337, 340,
                  343, 346, 349, 352, 355, 358, 361, 364, 367, 370, 373, 376,
                  379, 382, 385, 388, 391, 394, 397, 400, 403, 406, 409, 412,
                  415, 418, 421, 424, 427, 430, 433, 436, 439, 442, 445, 448,
                  451, 454, 457, 460, 463, 466, 469, 472, 475, 478, 481, 484,
                  487, 490, 493, 496, 499, 502, 505, 508, 511, 514, 517, 520,
                  523, 526, 529, 532, 535, 538, 541, 544, 547, 550, 553, 556,
                  559, 562, 565, 568, 571, 574, 577, 580, 583, 586, 589, 592,
                  595, 598, 601, 604, 607, 610, 613, 616, 619, 622, 625, 628,
                  631, 634, 637, 640, 643, 646, 649, 652, 655, 658, 661, 664,
                  667, 670, 673, 676, 679, 682, 685, 688, 691, 694, 697, 700,
                  703, 706, 709, 712, 715, 718, 721, 724, 727, 730, 733, 736,
                  739, 742, 745, 748, 751, 754
    2    1 h      2, 3, 5, 6, 8, 9, 11, 12, 14, 15, 17, 18, 20, 21, 23, 24,
                  26, 27, 29, 30, 32, 33, 35, 36, 38, 39, 41, 42, 44, 45, 47,
                  48, 50, 51, 53, 54, 56, 57, 59, 60, 62, 63, 65, 66, 68, 69,
                  71, 72, 74, 75, 77, 78, 80, 81, 83, 84, 86, 87, 89, 90, 92,
                  93, 95, 96, 98, 99, 101, 102, 104, 105, 107, 108, 110, 111,
                  113, 114, 116, 117, 119, 120, 122, 123, 125, 126, 128, 129,
                  131, 132, 134, 135, 137, 138, 140, 141, 143, 144, 146, 147,
                  149, 150, 152, 153, 155, 156, 158, 159, 161, 162, 164, 165,
                  167, 168, 170, 171, 173, 174, 176, 177, 179, 180, 182, 183,
                  185, 186, 188, 189, 191, 192, 194, 195, 197, 198, 200, 201,
                  203, 204, 206, 207, 209, 210, 212, 213, 215, 216, 218, 219,
                  221, 222, 224, 225, 227, 228, 230, 231, 233, 234, 236, 237,
                  239, 240, 242, 243, 245, 246, 248, 249, 251, 252, 254, 255,
                  257, 258, 260, 261, 263, 264, 266, 267, 269, 270, 272, 273,
                  275, 276, 278, 279, 281, 282, 284, 285, 287, 288, 290, 291,
                  293, 294, 296, 297, 299, 300, 302, 303, 305, 306, 308, 309,
                  311, 312, 314, 315, 317, 318, 320, 321, 323, 324, 326, 327,
                  329, 330, 332, 333, 335, 336, 338, 339, 341, 342, 344, 345,
                  347, 348, 350, 351, 353, 354, 356, 357, 359, 360, 362, 363,
                  365, 366, 368, 369, 371, 372, 374, 375, 377, 378, 380, 381,
                  383, 384, 386, 387, 389, 390, 392, 393, 395, 396, 398, 399,
                  401, 402, 404, 405, 407, 408, 410, 411, 413, 414, 416, 417,
                  419, 420, 422, 423, 425, 426, 428, 429, 431, 432, 434, 435,
                  437, 438, 440, 441, 443, 444, 446, 447, 449, 450, 452, 453,
                  455, 456, 458, 459, 461, 462, 464, 465, 467, 468, 470, 471,
                  473, 474, 476, 477, 479, 480, 482, 483, 485, 486, 488, 489,
                  491, 492, 494, 495, 497, 498, 500, 501, 503, 504, 506, 507,
                  509, 510, 512, 513, 515, 516, 518, 519, 521, 522, 524, 525,
                  527, 528, 530, 531, 533, 534, 536, 537, 539, 540, 542, 543,
                  545, 546, 548, 549, 551, 552, 554, 555, 557, 558, 560, 561,
                  563, 564, 566, 567, 569, 570, 572, 573, 575, 576, 578, 579,
                  581, 582, 584, 585, 587, 588, 590, 591, 593, 594, 596, 597,
                  599, 600, 602, 603, 605, 606, 608, 609, 611, 612, 614, 615,
                  617, 618, 620, 621, 623, 624, 626, 627, 629, 630, 632, 633,
                  635, 636, 638, 639, 641, 642, 644, 645, 647, 648, 650, 651,
                  653, 654, 656, 657, 659, 660, 662, 663, 665, 666, 668, 669,
                  671, 672, 674, 675, 677, 678, 680, 681, 683, 684, 686, 687,
                  689, 690, 692, 693, 695, 696, 698, 699, 701, 702, 704, 705,
                  707, 708, 710, 711, 713, 714, 716, 717, 719, 720, 722, 723,
                  725, 726, 728, 729, 731, 732, 734, 735, 737, 738, 740, 741,
                  743, 744, 746, 747, 749, 750, 752, 753, 755, 756

molecular fragmentation (1/2 indicates fragments):
111222222222222222222222222222222222222222222222222222222222222222222222
222222222222222222222222222222222222222222222222222222222222222222222222
222222222222222222222222222222222222222222222222222222222222222222222222
222222222222222222222222222222222222222222222222222222222222222222222222
222222222222222222222222222222222222222222222222222222222222222222222222
222222222222222222222222222222222222222222222222222222222222222222222222
222222222222222222222222222222222222222222222222222222222222222222222222
222222222222222222222222222222222222222222222222222222222222222222222222
222222222222222222222222222222222222222222222222222222222222222222222222
222222222222222222222222222222222222222222222222222222222222222222222222
222222222222222222222222222222222222
# atoms in fragment 1/2:     3   753
 fragment masses (1/2) :       18.02     4521.84
CMA distance (Bohr)    :  18.929
constraining FC (au)   :  0.0500

           -------------------------------------------------
          |                 G F N 2 - x T B                 |
           -------------------------------------------------

        Reference                      10.1021/acs.jctc.8b01176
      * Hamiltonian:
        H0-scaling (s, p, d)           1.850000    2.230000    2.230000
        zeta-weighting                 0.500000
      * Dispersion:
        s8                             2.700000
        a1                             0.520000
        a2                             5.000000
        s9                             5.000000
      * Repulsion:
        kExp                           1.500000    1.000000
        rExp                           1.000000
      * Coulomb:
        alpha                          2.000000
        third order                    shell-resolved
        anisotropic                    true
        a3                             3.000000
        a5                             4.000000
        cn-shift                       1.200000
        cn-exp                         4.000000
        max-rad                        5.000000


          ...................................................
          :                      SETUP                      :
          :.................................................:
          :  # basis functions                1512          :
          :  # atomic orbitals                1512          :
          :  # shells                         1008          :
          :  # electrons                      2016          :
          :  max. iterations                   250          :
          :  Hamiltonian                  GFN2-xTB          :
          :  restarted?                      false          :
          :  GBSA solvation                  false          :
          :  PC potential                    false          :
          :  electronic temp.          300.0000000     K    :
          :  accuracy                    1.0000000          :
          :  -> integral cutoff          0.2500000E+02      :
          :  -> integral neglect         0.1000000E-07      :
          :  -> SCF convergence          0.1000000E-05 Eh   :
          :  -> wf. convergence          0.1000000E-03 e    :
          :  Broyden damping             0.4000000          :
          ...................................................

 iter      E             dE          RMSdq      gap      omega  full diag
   1  -1291.0516345 -0.129105E+04  0.407E+00    8.45       0.0  T
   2  -1291.1227707 -0.711362E-01  0.242E+00    8.25       1.0  T
   3  -1291.1534742 -0.307035E-01  0.207E-01    7.84       1.0  T
   4  -1291.1584860 -0.501188E-02  0.451E-02    8.03       1.0  T
   5  -1291.1585535 -0.674495E-04  0.305E-02    8.02       1.0  T
   6  -1291.1585914 -0.378889E-04  0.411E-03    8.03       1.0  T
   7  -1291.1585935 -0.214890E-05  0.771E-04    8.03       4.7  T
   8  -1291.1585936 -0.348443E-07  0.395E-04    8.03       9.2  T
   9  -1291.1585936 -0.152199E-07  0.677E-05    8.03      53.7  T

   *** convergence criteria satisfied after 9 iterations ***

         #    Occupation            Energy/Eh            Energy/eV
      -------------------------------------------------------------
         1        2.0000           -0.6881053             -18.7243
       ...           ...                  ...                  ...
      1002        2.0000           -0.4113901             -11.1945
      1003        2.0000           -0.4110746             -11.1859
      1004        2.0000           -0.4098559             -11.1527
      1005        2.0000           -0.4090018             -11.1295
      1006        2.0000           -0.4087579             -11.1229
      1007        2.0000           -0.4053704             -11.0307
      1008        2.0000           -0.4049574             -11.0195 (HOMO)
      1009                         -0.1098727              -2.9898 (LUMO)
      1010                         -0.0963466              -2.6217
      1011                         -0.0895710              -2.4374
      1012                         -0.0838225              -2.2809
      1013                         -0.0761902              -2.0732
       ...                                ...                  ...
      1512                          0.4175468              11.3620
      -------------------------------------------------------------
                  HL-Gap            0.2950846 Eh            8.0297 eV
             Fermi-level           -0.2574151 Eh           -7.0046 eV
 
 localization/xTB-IFF output generation
 averaging CT terms over           14  occ. levels
 averaging CT terms over            1  virt. levels
 dipole moment from electron density (au)
     X       Y       Z   
   2.6582   0.6584   0.3371  total (Debye):    7.013
cpu  time for init local    0.83 s
wall time for init local    0.45 s
 doing rotations ...
 initialization of trafo matrix to unity

 converged in     16 iterations, threshold :   0.99999531D-06
 doing transformations ...
 lmo centers(Z=2) and atoms on file <lmocent.coord>
 LMO Fii/eV  ncent    charge center   contributions...
    1 LP   *******   0.00  -8.46446   2.33591   5.81985  172O : 26.28  346O : 26.04  115O : 22.67   97O : 20.54  601O : 19.85  598O : 18.04  580O : 17.79  268O : 17.27  508O : 17.19  142O : 16.97  685O : 15.84  226O : 15.64
  220O : 15.24  241O : 14.57  646O : 13.13  466O : 13.06   31O : 13.03  190O : 12.95  502O : 12.89  463O : 12.63  355O : 12.46   37O : 12.37  127O : 12.30  679O : 12.01
  373O : 11.91  124O : 11.75  238O : 11.73  136O : 11.56  664O : 11.51  418O : 11.49  613O : 11.30   34O : 10.93  415O : 10.90  133O : 10.84   67O : 10.73  295O : 10.71
  550O : 10.57  514O : 10.37  406O : 10.02  520O :  9.95  223O :  9.86  439O :  9.85    1O :  9.48  430O :  9.33  481O :  9.31  688O :  9.03   94O :  8.31  403O :  8.21
  532O :  8.03  331O :  8.03  349O :  7.97   70O :  7.97  712O :  7.87  286O :  7.83  562O :  7.75  721O :  7.63  577O :  7.49   82O :  7.46  274O :  7.45  448O :  7.25
  484O :  7.11  718O :  7.10  436O :  6.89  187O :  6.85  583O :  6.81  607O :  6.75   28O :  6.74  517O :  6.68  457O :  6.67  235O :  6.58  571O :  6.50  247O :  6.49
  280O :  6.42  535O :  6.36   52O :  6.22  103O :  6.18  208O :  6.16  148O :  5.92  592O :  5.89  715O :  5.89  175O :  5.79  700O :  5.77  640O :  5.74  709O :  5.72
  538O :  5.66  451O :  5.60  205O :  5.51  382O :  5.50  289O :  5.47   25O :  5.37  499O :  5.33  337O :  5.30  574O :  5.18   64O :  5.18  742O :  5.16  325O :  5.15
  637O :  5.15  442O :  5.14  472O :  5.09    4O :  5.06  232O :  5.05   49O :  4.97  745O :  4.93  730O :  4.92   85O :  4.86  391O :  4.79   55O :  4.79  511O :  4.77
  421O :  4.76  523O :  4.70  211O :  4.70  559O :  4.64  388O :  4.55  229O :  4.50  202O :  4.50  376O :  4.42  625O :  4.40  298O :  4.36  658O :  4.28   16O :  4.26
  541O :  4.24  145O :  4.14   40O :  4.13  160O :  4.10  112O :  4.10  586O :  4.09  676O :  4.07  475O :  4.04  424O :  4.00  739O :  3.99   79O :  3.99  589O :  3.96
  322O :  3.94  301O :  3.93  595O :  3.88  661O :  3.87  199O :  3.83  526O :  3.79  394O :  3.68  265O :  3.68  307O :  3.47  352O :  3.39  505O :  3.38  106O :  3.38
  178O :  3.35  166O :  3.34  130O :  3.34  358O :  3.31  271O :  3.27  409O :  3.16  667O :  3.12  628O :  3.12  682O :  3.06  724O :  3.05  385O :  3.00  487O :  3.00
  400O :  3.00  256O :  2.92  751O :  2.80  370O :  2.79  169O :  2.77  250O :  2.72    7O :  2.68  697O :  2.67  397O :  2.65  547O :  2.65  469O :  2.64  460O :  2.62
  334O :  2.62  691O :  2.58  193O :  2.57  139O :  2.57  673O :  2.56  361O :  2.52  529O :  2.44  290H :  2.43  163O :  2.42  184O :  2.39  458H :  2.36  310O :  2.32
   58O :  2.31   13O :  2.26  181O :  2.25  433O :  2.24  736O :  2.20  556O :  2.20  319O :  2.18  490O :  2.14  754O :  2.10  478O :  2.09  568O :  2.08  367O :  2.07
  313O :  2.03  242H :  2.02  544O :  2.02  706O :  2.01  118O :  2.01  643O :  2.00  154O :  1.99   88O :  1.99  565O :  1.95   22O :  1.95  283O :  1.89  412O :  1.88
  553O :  1.87  340O :  1.82   43O :  1.81  714H :  1.81  634O :  1.78  244O :  1.76  304O :  1.75  427O :  1.74  591H :  1.68  649O :  1.67  328O :  1.67  277O :  1.66
  703O :  1.64  100O :  1.62  269H :  1.58  292O :  1.54  217O :  1.52  748O :  1.51  149H :  1.50  652O :  1.49  464H :  1.43  125H :  1.42  121O :  1.39  249H :  1.39
  339H :  1.32  416H :  1.31  114H :  1.30   91O :  1.29  482H :  1.28  300H :  1.26  604O :  1.21  622O :  1.16  631O :  1.13  206H :  1.12  128H :  1.12  619O :  1.12
  558H :  1.12   10O :  1.10  157O :  1.10  343O :  1.09  694O :  1.07  375H :  1.04  173H :  1.01  196O :  0.98  723H :  0.97  259O :  0.96  733O :  0.96  240H :  0.96
  666H :  0.93  396H :  0.92  588H :  0.91  597H :  0.90  498H :  0.89  320H :  0.87  192H :  0.86  445O :  0.84  578H :  0.80   35H :  0.78   98H :  0.77   80H :  0.77
  449H :  0.76  560H :  0.76  753H :  0.76  438H :  0.76   19O :  0.75  670O :  0.75  468H :  0.74   76O :  0.74  725H :  0.73  603H :  0.73  616O :  0.73  602H :  0.70
  288H :  0.69  209H :  0.69  236H :  0.69  537H :  0.68  253O :  0.67   27H :  0.66  379O :  0.66  425H :  0.66  513H :  0.65    5H :  0.65  683H :  0.65  572H :  0.65
  600H :  0.64  194H :  0.63   65H :  0.63  314H :  0.63   73O :  0.63  359H :  0.63  222H :  0.62  123H :  0.62  453H :  0.62  732H :  0.62  702H :  0.62  492H :  0.61
  364O :  0.61  554H :  0.60    2H :  0.60  440H :  0.58  324H :  0.58  230H :  0.56  316O :  0.55  648H :  0.55  518H :  0.54   46O :  0.54  389H :  0.54  720H :  0.54
  655O :  0.54  615H :  0.54   38H :  0.53  356H :  0.53  109O :  0.53  432H :  0.53  151O :  0.53  678H :  0.52  214O :  0.52  630H :  0.52  627H :  0.52   68H :  0.51
  524H :  0.50  519H :  0.50  521H :  0.49  710H :  0.49    8H :  0.49   99H :  0.49  493O :  0.49  539H :  0.48  610O :  0.48   51H :  0.48  689H :  0.48  147H :  0.47
  417H :  0.46  503H :  0.46  587H :  0.46   61O :  0.45  351H :  0.45   29H :  0.45  191H :  0.44  267H :  0.44   17H :  0.44  639H :  0.43  315H :  0.43   74H :  0.42
  362H :  0.41  323H :  0.41  186H :  0.41  171H :  0.41  644H :  0.40   15H :  0.40  473H :  0.40  495H :  0.40    3H :  0.39  262O :  0.39  531H :  0.39  383H :  0.39
  260H :  0.38  326H :  0.38   23H :  0.38  500H :  0.38  488H :  0.38    6H :  0.37  719H :  0.37  593H :  0.37  225H :  0.36  387H :  0.36  420H :  0.36   53H :  0.36
  496O :  0.36  704H :  0.35  245H :  0.35  372H :  0.35  293H :  0.35  509H :  0.35  258H :  0.35  183H :  0.34  213H :  0.34  404H :  0.33   96H :  0.33  486H :  0.33
  660H :  0.32   90H :  0.32  327H :  0.32  111H :  0.31  251H :  0.31  189H :  0.31  546H :  0.31  200H :  0.30  699H :  0.30  582H :  0.29  528H :  0.29  716H :  0.29
  512H :  0.29  156H :  0.28  344H :  0.28  296H :  0.28  330H :  0.28  727O :  0.28  755H :  0.27   63H :  0.27  228H :  0.27  516H :  0.27  645H :  0.26  177H :  0.26
  287H :  0.26  146H :  0.26   24H :  0.25  465H :  0.25  411H :  0.25  216H :  0.25  590H :  0.24  479H :  0.24  444H :  0.24  722H :  0.24  165H :  0.24  467H :  0.23
  408H :  0.23  729H :  0.23  207H :  0.23  665H :  0.23  368H :  0.23  738H :  0.22   41H :  0.22  564H :  0.22  129H :  0.22   44H :  0.22  551H :  0.22  279H :  0.21
  281H :  0.21  143H :  0.21  690H :  0.21  711H :  0.21  374H :  0.21  386H :  0.21  152H :  0.21  542H :  0.21  570H :  0.20  141H :  0.20  717H :  0.20  642H :  0.20
  494H :  0.20   32H :  0.20  248H :  0.20  605H :  0.20  497H :  0.20  305H :  0.19   48H :  0.19  618H :  0.19   50H :  0.19  134H :  0.19  219H :  0.18  350H :  0.18
   66H :  0.18  579H :  0.18  515H :  0.18  561H :  0.17  677H :  0.17   33H :  0.17  441H :  0.17  573H :  0.17  434H :  0.17  120H :  0.17  198H :  0.17  629H :  0.17
  255H :  0.17  371H :  0.17  392H :  0.16  462H :  0.16  608H :  0.16  275H :  0.16  302H :  0.16  647H :  0.16  422H :  0.15  414H :  0.15  450H :  0.15  470H :  0.15
  390H :  0.15  345H :  0.15  426H :  0.14  585H :  0.14  452H :  0.14  246H :  0.14  363H :  0.14  566H :  0.14  581H :  0.14  201H :  0.14  626H :  0.13   57H :  0.13
  533H :  0.13  395H :  0.13  681H :  0.13  735H :  0.13  454O :  0.13  342H :  0.13  477H :  0.12   42H :  0.12  291H :  0.12  419H :  0.12  633H :  0.12   86H :  0.12
  176H :  0.12  686H :  0.12  747H :  0.12  437H :  0.12  272H :  0.11  413H :  0.11  203H :  0.11  653H :  0.11  378H :  0.11  743H :  0.11  489H :  0.11  108H :  0.11
  435H :  0.10  692H :  0.10  609H :  0.10  680H :  0.10   26H :  0.10  540H :  0.10  231H :  0.10  365H :  0.10  261H :  0.10  333H :  0.09  459H :  0.09  308H :  0.09
  380H :  0.09  278H :  0.09  557H :  0.09  204H :  0.09   77H :  0.09  353H :  0.09  252H :  0.09  525H :  0.09   84H :  0.09  548H :  0.09   56H :  0.09   72H :  0.08
  752H :  0.08  110H :  0.08  155H :  0.08  614H :  0.08  102H :  0.08  113H :  0.08  273H :  0.08  239H :  0.08   39H :  0.08  522H :  0.08  122H :  0.08   12H :  0.08
  338H :  0.08  297H :  0.07  150H :  0.07  168H :  0.07  182H :  0.07  506H :  0.07  708H :  0.07
    2 LP   *******   0.00  55.05329 -60.27051  29.38912  346O : 24.82  172O : 22.62  601O : 22.58  115O : 21.62   97O : 19.58  598O : 17.20  580O : 16.96  268O : 16.46  508O : 16.39  142O : 16.18  685O : 15.09  226O : 14.91
  220O : 14.53  241O : 13.89  646O : 12.52  466O : 12.45   31O : 12.41  190O : 12.34  502O : 12.29  463O : 12.04  355O : 11.88   37O : 11.79  127O : 11.72  679O : 11.44
  373O : 11.32  124O : 11.20  238O : 11.18  136O : 11.02  664O : 10.97  418O : 10.95  613O : 10.77  415O : 10.39   34O : 10.37  133O : 10.34   67O : 10.23  295O : 10.21
  550O : 10.08  514O : 10.02  406O :  9.54  520O :  9.48  223O :  9.39  439O :  9.38    1O :  9.04  430O :  8.90  481O :  8.87  688O :  8.61   94O :  7.87  403O :  7.84
  532O :  7.66  331O :  7.65  349O :  7.60   70O :  7.59  712O :  7.50  286O :  7.49  562O :  7.38  721O :  7.27  577O :  7.14   82O :  7.11  274O :  7.10  448O :  6.91
  484O :  6.78  718O :  6.77  436O :  6.57  187O :  6.52  583O :  6.49   28O :  6.44  607O :  6.43  517O :  6.36  457O :  6.36  235O :  6.27  571O :  6.19  247O :  6.17
  280O :  6.12  535O :  6.06   52O :  5.93  103O :  5.89  208O :  5.87  148O :  5.64  709O :  5.62  592O :  5.62  715O :  5.61  175O :  5.52  700O :  5.50  640O :  5.47
  451O :  5.46  538O :  5.39  205O :  5.25  382O :  5.24  289O :  5.22   25O :  5.12  499O :  5.07  337O :  5.06  574O :  4.94   64O :  4.93  742O :  4.91  637O :  4.91
  325O :  4.90  442O :  4.90  472O :  4.86    4O :  4.82  232O :  4.81   49O :  4.75  745O :  4.70  730O :  4.69   85O :  4.63  391O :  4.57   55O :  4.56  511O :  4.54
  421O :  4.54  523O :  4.48  211O :  4.48  559O :  4.42  388O :  4.33  229O :  4.29  202O :  4.29  376O :  4.19  625O :  4.19  298O :  4.16  658O :  4.08   16O :  4.06
  541O :  4.04   40O :  3.96  145O :  3.94  160O :  3.91  112O :  3.90  586O :  3.89  676O :  3.88  475O :  3.85  424O :  3.82  739O :  3.80   79O :  3.80  589O :  3.78
  322O :  3.76  301O :  3.74  595O :  3.70  661O :  3.69  199O :  3.65  526O :  3.61  394O :  3.51  265O :  3.50  307O :  3.31  352O :  3.23  505O :  3.22  106O :  3.22
  178O :  3.19  166O :  3.19  130O :  3.18  358O :  3.16  271O :  3.11  409O :  3.02  667O :  2.98  628O :  2.97  682O :  2.92  724O :  2.91  385O :  2.86  487O :  2.86
  400O :  2.86  256O :  2.78  751O :  2.67  370O :  2.66  169O :  2.66  250O :  2.59    7O :  2.55  697O :  2.54  547O :  2.53  397O :  2.53  469O :  2.52  460O :  2.50
  334O :  2.50  691O :  2.46  193O :  2.45  139O :  2.45  673O :  2.44  361O :  2.40  529O :  2.32  290H :  2.31  163O :  2.31  184O :  2.29  458H :  2.25   58O :  2.23
  310O :  2.21   13O :  2.15  181O :  2.15  433O :  2.13  736O :  2.09  556O :  2.09  319O :  2.08  490O :  2.03  754O :  2.00  568O :  1.99  478O :  1.99  367O :  1.97
  313O :  1.93  242H :  1.93  544O :  1.92  706O :  1.92  118O :  1.92  643O :  1.91  154O :  1.90   88O :  1.90  565O :  1.86   22O :  1.86  283O :  1.81  412O :  1.81
  553O :  1.78  340O :  1.73   43O :  1.72  714H :  1.72  634O :  1.70  244O :  1.68  304O :  1.67  427O :  1.66  591H :  1.61  649O :  1.60  328O :  1.59  277O :  1.58
  703O :  1.56  100O :  1.53  269H :  1.51  292O :  1.46  217O :  1.44  748O :  1.44  149H :  1.43  652O :  1.43  464H :  1.36  125H :  1.35  121O :  1.33  249H :  1.33
  339H :  1.26  416H :  1.25  114H :  1.24   91O :  1.23  482H :  1.22  300H :  1.20  604O :  1.15  622O :  1.11  173H :  1.08  631O :  1.08  206H :  1.07  128H :  1.07
  558H :  1.06  619O :  1.06   10O :  1.05  157O :  1.05  343O :  1.04  694O :  1.02  375H :  1.00  196O :  0.93  723H :  0.93  259O :  0.92  733O :  0.91  240H :  0.91
  666H :  0.88  396H :  0.87  588H :  0.87  597H :  0.86  498H :  0.85  320H :  0.83  192H :  0.82  445O :  0.80  578H :  0.76   35H :  0.75   98H :  0.73   80H :  0.73
  449H :  0.73  560H :  0.72  438H :  0.72  753H :  0.72   19O :  0.72  670O :  0.71  468H :  0.70  725H :  0.70  616O :  0.69   76O :  0.69  288H :  0.67  209H :  0.65
  236H :  0.65  537H :  0.65  253O :  0.63   27H :  0.63  379O :  0.63  425H :  0.62  513H :  0.62    5H :  0.62  683H :  0.62  572H :  0.61  600H :  0.61  194H :  0.60
   65H :  0.60  314H :  0.60   73O :  0.60  359H :  0.60  123H :  0.59  222H :  0.59  603H :  0.59  453H :  0.59  732H :  0.59  702H :  0.59  492H :  0.58  602H :  0.58
  554H :  0.58  364O :  0.58    2H :  0.57  440H :  0.56  324H :  0.55  230H :  0.53  316O :  0.52  648H :  0.52  518H :  0.52   46O :  0.52  389H :  0.52  720H :  0.51
  655O :  0.51  615H :  0.51   38H :  0.51  356H :  0.50  109O :  0.50  432H :  0.50  151O :  0.50  678H :  0.50  214O :  0.50  630H :  0.49  627H :  0.49   68H :  0.49
  524H :  0.47  519H :  0.47  521H :  0.47    8H :  0.47   99H :  0.47  493O :  0.47  710H :  0.46  539H :  0.46  610O :  0.46   51H :  0.46  689H :  0.45  147H :  0.45
  417H :  0.44  503H :  0.44  587H :  0.44   61O :  0.43  351H :  0.43   29H :  0.42  191H :  0.42  267H :  0.42   17H :  0.42  639H :  0.41  315H :  0.41   74H :  0.40
  171H :  0.40  362H :  0.39  323H :  0.39  186H :  0.39  644H :  0.38   15H :  0.38  473H :  0.38  495H :  0.38    3H :  0.37  262O :  0.37  531H :  0.37  383H :  0.37
  260H :  0.36  326H :  0.36   23H :  0.36  500H :  0.36  488H :  0.36    6H :  0.36  719H :  0.35  593H :  0.35  225H :  0.35  387H :  0.34  420H :  0.34   53H :  0.34
  496O :  0.34  704H :  0.34  245H :  0.33  293H :  0.33  372H :  0.33  509H :  0.33  258H :  0.33  213H :  0.32  183H :  0.32  404H :  0.32  486H :  0.31  660H :  0.31
   90H :  0.31  327H :  0.30   96H :  0.30  111H :  0.30  251H :  0.29  189H :  0.29  546H :  0.29  200H :  0.29  699H :  0.29  582H :  0.28  528H :  0.28  716H :  0.27
  512H :  0.27  156H :  0.27  344H :  0.27  296H :  0.26  727O :  0.26  330H :  0.26  755H :  0.26   63H :  0.26  516H :  0.26  228H :  0.25  645H :  0.25  177H :  0.25
  287H :  0.25  146H :  0.24   24H :  0.24  465H :  0.24  411H :  0.24  216H :  0.23  479H :  0.23  590H :  0.23  444H :  0.23  722H :  0.23  165H :  0.23  467H :  0.22
  408H :  0.22  729H :  0.22  207H :  0.22  665H :  0.22  368H :  0.22  738H :  0.21  564H :  0.21  129H :  0.21   44H :  0.21  551H :  0.21   41H :  0.21  279H :  0.20
  281H :  0.20  143H :  0.20  690H :  0.20  711H :  0.20  386H :  0.20  152H :  0.20  542H :  0.20  374H :  0.19  570H :  0.19  141H :  0.19  717H :  0.19  642H :  0.19
   32H :  0.19  494H :  0.19  248H :  0.19  605H :  0.19  497H :  0.19  305H :  0.18  618H :  0.18   48H :  0.18   50H :  0.18  134H :  0.18  219H :  0.18  350H :  0.17
   66H :  0.17  579H :  0.17  515H :  0.17  561H :  0.17   33H :  0.17  677H :  0.17  441H :  0.16  573H :  0.16  434H :  0.16  120H :  0.16  198H :  0.16  255H :  0.16
  629H :  0.16  371H :  0.16  392H :  0.16  462H :  0.16  608H :  0.15  275H :  0.15  302H :  0.15  647H :  0.15  422H :  0.15  450H :  0.14  470H :  0.14  390H :  0.14
  345H :  0.14  426H :  0.14  585H :  0.14  246H :  0.14  363H :  0.13  413H :  0.13  566H :  0.13  581H :  0.13  414H :  0.13  201H :  0.13  626H :  0.13   57H :  0.13
  533H :  0.13  681H :  0.12  395H :  0.12  735H :  0.12  454O :  0.12  452H :  0.12  342H :  0.12   42H :  0.12  477H :  0.12  291H :  0.11  419H :  0.11  633H :  0.11
   86H :  0.11  176H :  0.11  686H :  0.11  747H :  0.11  437H :  0.11  272H :  0.11  203H :  0.11  653H :  0.10  378H :  0.10  743H :  0.10  489H :  0.10  108H :  0.10
  435H :  0.10  692H :  0.10  609H :  0.10  680H :  0.10   26H :  0.10  540H :  0.09  231H :  0.09  365H :  0.09  261H :  0.09  333H :  0.09  459H :  0.09  308H :  0.09
  380H :  0.09  278H :  0.09   77H :  0.09  557H :  0.09  204H :  0.09  353H :  0.09  252H :  0.08  525H :  0.08   84H :  0.08  548H :  0.08  752H :  0.08   56H :  0.08
   72H :  0.08  110H :  0.08  155H :  0.08  614H :  0.08  113H :  0.08  273H :  0.08  102H :  0.08  239H :  0.08   39H :  0.07  522H :  0.07  122H :  0.07   12H :  0.07
  338H :  0.07  297H :  0.07  150H :  0.07
    3 LP   *******   0.00 -14.84400   7.50800  -0.98743  346O : 24.25  172O : 19.79  115O : 18.91   97O : 17.13  601O : 16.55  598O : 15.04  580O : 14.83  268O : 14.40  508O : 14.34  142O : 14.15  685O : 13.21  226O : 13.05
  220O : 12.71  241O : 12.14  646O : 10.95  466O : 10.89   31O : 10.86  190O : 10.80  502O : 10.75  463O : 10.53  355O : 10.39   37O : 10.31  127O : 10.25  679O : 10.00
  373O :  9.93  124O :  9.80  238O :  9.78  136O :  9.64  664O :  9.59  418O :  9.58  613O :  9.42  415O :  9.09   34O :  9.07  133O :  9.04   67O :  8.95  295O :  8.93
  550O :  8.82  514O :  8.65  406O :  8.35  520O :  8.29  439O :  8.21  223O :  8.15    1O :  7.91  430O :  7.79  481O :  7.68  688O :  7.53   94O :  6.88  403O :  6.86
  532O :  6.71  331O :  6.69   70O :  6.66  349O :  6.65  286O :  6.55  712O :  6.51  562O :  6.46  721O :  6.36  577O :  6.24   82O :  6.22  274O :  6.21  448O :  6.05
  484O :  5.93  718O :  5.92  436O :  5.75  187O :  5.71  583O :  5.68   28O :  5.64  607O :  5.63  517O :  5.56  457O :  5.56  235O :  5.48  571O :  5.42  247O :  5.40
  280O :  5.35  535O :  5.31   52O :  5.19  103O :  5.16  208O :  5.14  148O :  4.93  592O :  4.91  715O :  4.91  175O :  4.83  700O :  4.81  640O :  4.78  451O :  4.77
  709O :  4.77  538O :  4.72  205O :  4.60  382O :  4.58  289O :  4.56   25O :  4.47  499O :  4.44  337O :  4.42  574O :  4.32   64O :  4.32  742O :  4.30  637O :  4.29
  325O :  4.29  442O :  4.29  472O :  4.25    4O :  4.22  232O :  4.21   49O :  4.15  745O :  4.11  730O :  4.10   85O :  4.04  391O :  4.00   55O :  3.99  511O :  3.98
  421O :  3.97  523O :  3.92  211O :  3.92  559O :  3.87  388O :  3.79  229O :  3.75  202O :  3.75  376O :  3.67  625O :  3.67  298O :  3.63  658O :  3.57   16O :  3.55
  541O :  3.54   40O :  3.46  145O :  3.45  160O :  3.42  112O :  3.41  586O :  3.41  676O :  3.39  475O :  3.37  424O :  3.34  739O :  3.33   79O :  3.32  589O :  3.30
  322O :  3.29  301O :  3.27  595O :  3.24  661O :  3.23  199O :  3.20  526O :  3.16  394O :  3.07  265O :  3.07  307O :  2.89  352O :  2.83  505O :  2.82  106O :  2.82
  178O :  2.79  166O :  2.79  130O :  2.78  358O :  2.76  271O :  2.72  409O :  2.67  667O :  2.60  628O :  2.60  682O :  2.55  724O :  2.54  385O :  2.51  487O :  2.50
  400O :  2.50  256O :  2.43  751O :  2.34  169O :  2.33  370O :  2.33  397O :  2.27  250O :  2.27    7O :  2.23  697O :  2.22  469O :  2.20  460O :  2.19  334O :  2.18
  691O :  2.15  193O :  2.15  139O :  2.14  673O :  2.14  361O :  2.10  547O :  2.05  529O :  2.03  290H :  2.02  163O :  2.02  184O :  1.97  458H :  1.97   58O :  1.95
  310O :  1.94   13O :  1.88  181O :  1.88  433O :  1.87  736O :  1.83  556O :  1.82  319O :  1.82  490O :  1.78  754O :  1.75  478O :  1.74  568O :  1.74  367O :  1.73
  313O :  1.70  242H :  1.69  544O :  1.68  706O :  1.68  118O :  1.68  643O :  1.67  154O :  1.66   88O :  1.66  565O :  1.63   22O :  1.62  283O :  1.59  412O :  1.58
  553O :  1.56  340O :  1.52   43O :  1.51  634O :  1.48  244O :  1.47  304O :  1.46  714H :  1.46  427O :  1.45  591H :  1.40  649O :  1.40  328O :  1.39  277O :  1.38
  703O :  1.37  100O :  1.35  269H :  1.32  292O :  1.28  217O :  1.26  748O :  1.26  652O :  1.25  149H :  1.25  464H :  1.19  125H :  1.18  121O :  1.16  249H :  1.16
  339H :  1.10  416H :  1.09  114H :  1.08   91O :  1.07  482H :  1.05  300H :  1.05  604O :  1.01  622O :  0.97  173H :  0.95  631O :  0.95  206H :  0.94  128H :  0.93
  619O :  0.93  558H :  0.93   10O :  0.92  157O :  0.92  343O :  0.91  694O :  0.89  375H :  0.87  723H :  0.81  259O :  0.80  733O :  0.80  196O :  0.80  240H :  0.80
  666H :  0.77  396H :  0.76  588H :  0.76  597H :  0.75  498H :  0.75  320H :  0.72  192H :  0.71  445O :  0.70  578H :  0.67   35H :  0.65   76O :  0.65   98H :  0.64
   80H :  0.64  449H :  0.64  560H :  0.63  438H :  0.63  753H :  0.63   19O :  0.63  670O :  0.62  468H :  0.61  725H :  0.61  603H :  0.61  616O :  0.61  288H :  0.59
  602H :  0.59  209H :  0.57  236H :  0.57  537H :  0.57  253O :  0.55   27H :  0.55  379O :  0.55  425H :  0.55  513H :  0.54    5H :  0.54  683H :  0.54  572H :  0.54
  600H :  0.53  194H :  0.53   65H :  0.53   73O :  0.52  359H :  0.52  314H :  0.52  222H :  0.52  123H :  0.52  453H :  0.52  732H :  0.51  702H :  0.51  492H :  0.51
  554H :  0.50  364O :  0.50    2H :  0.50  440H :  0.49  324H :  0.49  230H :  0.47  518H :  0.46  316O :  0.46  648H :  0.46   46O :  0.45  389H :  0.45  720H :  0.45
  655O :  0.45  615H :  0.45   38H :  0.44  356H :  0.44  109O :  0.44  432H :  0.44  151O :  0.44  678H :  0.44  214O :  0.43  630H :  0.43  627H :  0.43   68H :  0.42
  524H :  0.41  519H :  0.41  521H :  0.41  710H :  0.41    8H :  0.41   99H :  0.41  493O :  0.41  539H :  0.40  610O :  0.40   51H :  0.40  689H :  0.40  147H :  0.40
  417H :  0.39  503H :  0.39  587H :  0.38   61O :  0.38  351H :  0.37   29H :  0.37  191H :  0.37  267H :  0.37   17H :  0.37  315H :  0.36  639H :  0.36  171H :  0.35
   74H :  0.35  362H :  0.34  186H :  0.34  323H :  0.34  644H :  0.34   15H :  0.33  473H :  0.33  495H :  0.33    3H :  0.33  262O :  0.33  531H :  0.32  383H :  0.32
  260H :  0.32  326H :  0.32   23H :  0.31  488H :  0.31  500H :  0.31    6H :  0.31  719H :  0.31  593H :  0.31  225H :  0.30  387H :  0.30  420H :  0.30   53H :  0.30
  496O :  0.30  704H :  0.30  245H :  0.29  293H :  0.29  372H :  0.29  509H :  0.29  258H :  0.29  183H :  0.28  213H :  0.28  404H :  0.28  486H :  0.27  660H :  0.27
   90H :  0.27  327H :  0.27   96H :  0.26  111H :  0.26  251H :  0.26  189H :  0.26  546H :  0.25  200H :  0.25  699H :  0.25  582H :  0.24  528H :  0.24  716H :  0.24
  512H :  0.24  156H :  0.24  344H :  0.23  296H :  0.23  330H :  0.23  727O :  0.23  755H :  0.23   63H :  0.22  228H :  0.22  516H :  0.22  645H :  0.22  177H :  0.22
  287H :  0.21  146H :  0.21   24H :  0.21  411H :  0.21  465H :  0.21  216H :  0.21  590H :  0.20  479H :  0.20  444H :  0.20  722H :  0.20  165H :  0.20  467H :  0.20
  408H :  0.19  729H :  0.19  665H :  0.19  368H :  0.19  738H :  0.19  207H :  0.19  564H :  0.19  129H :  0.18   44H :  0.18  551H :  0.18   41H :  0.18  279H :  0.18
  281H :  0.18  143H :  0.18  690H :  0.18  711H :  0.18  374H :  0.18  386H :  0.17  152H :  0.17  542H :  0.17  570H :  0.17  141H :  0.17  717H :  0.17  642H :  0.17
   32H :  0.17  494H :  0.17  248H :  0.17  605H :  0.17  497H :  0.17  305H :  0.16   48H :  0.16  618H :  0.16   50H :  0.16  134H :  0.15  219H :  0.15  350H :  0.15
   66H :  0.15  579H :  0.15  515H :  0.15  198H :  0.15  561H :  0.15   33H :  0.14  677H :  0.14  441H :  0.14  573H :  0.14  434H :  0.14  120H :  0.14  629H :  0.14
  255H :  0.14  371H :  0.14  392H :  0.14  462H :  0.14  608H :  0.13  275H :  0.13  302H :  0.13  647H :  0.13  422H :  0.13  450H :  0.12  470H :  0.12  390H :  0.12
  345H :  0.12  426H :  0.12  585H :  0.12  246H :  0.12  363H :  0.12  413H :  0.12  566H :  0.12  581H :  0.12  201H :  0.11  414H :  0.11  626H :  0.11   57H :  0.11
  533H :  0.11  681H :  0.11  395H :  0.11  454O :  0.11  735H :  0.11  452H :  0.11  342H :  0.11   42H :  0.10  477H :  0.10  549H :  0.10  291H :  0.10  419H :  0.10
  633H :  0.10   86H :  0.10  176H :  0.10  686H :  0.10  747H :  0.10  437H :  0.10  272H :  0.10  203H :  0.09  653H :  0.09  378H :  0.09  743H :  0.09   77H :  0.09
  489H :  0.09  108H :  0.09  435H :  0.09  692H :  0.09  609H :  0.09  680H :  0.09   26H :  0.09  540H :  0.08  231H :  0.08  365H :  0.08  261H :  0.08  333H :  0.08
  459H :  0.08  308H :  0.08  380H :  0.08  278H :  0.08  557H :  0.08  204H :  0.08  353H :  0.07  548H :  0.07  252H :  0.07  525H :  0.07   84H :  0.07  752H :  0.07
   56H :  0.07
    4 LP   *******   0.00  80.90763  10.08635  29.47326  346O : 20.43  172O : 18.62  115O : 17.80  580O : 17.27   97O : 16.12  601O : 15.57  598O : 14.15  268O : 13.55  508O : 13.49  142O : 13.31  685O : 12.42  226O : 12.27
  220O : 11.96  241O : 11.43  646O : 10.30   31O : 10.22  466O : 10.22  190O : 10.16  502O : 10.11  463O :  9.91  355O :  9.78   37O :  9.70  127O :  9.65  679O :  9.41
  373O :  9.34  124O :  9.22  238O :  9.20  136O :  9.07  664O :  9.03  418O :  9.01  613O :  8.87  415O :  8.56   34O :  8.54  133O :  8.51   67O :  8.42  295O :  8.39
  550O :  8.29  514O :  8.14  406O :  7.86  520O :  7.80  223O :  7.73  439O :  7.73    1O :  7.44  430O :  7.33  481O :  7.30  688O :  7.09   94O :  6.48  403O :  6.45
  532O :  6.30  331O :  6.30  349O :  6.25   70O :  6.25  712O :  6.17  286O :  6.16  562O :  6.08  721O :  5.99  577O :  5.88   82O :  5.85  274O :  5.84  448O :  5.69
  484O :  5.58  718O :  5.57  436O :  5.41  187O :  5.37  583O :  5.34   28O :  5.30  607O :  5.25  517O :  5.24  457O :  5.23  235O :  5.16  571O :  5.10  247O :  5.08
  280O :  5.04  535O :  4.99   52O :  4.88  103O :  4.85  208O :  4.83  148O :  4.64  715O :  4.62  175O :  4.55  700O :  4.52  640O :  4.50  451O :  4.49  709O :  4.49
  592O :  4.46  538O :  4.44  205O :  4.32  382O :  4.31  289O :  4.29   25O :  4.21  499O :  4.18  337O :  4.16  574O :  4.07   64O :  4.06  742O :  4.04  325O :  4.04
  442O :  4.03  637O :  4.03  472O :  4.00    4O :  3.97  232O :  3.96   49O :  3.91  745O :  3.86  730O :  3.86   85O :  3.81  391O :  3.76   55O :  3.76  511O :  3.74
  421O :  3.74  523O :  3.69  211O :  3.69  559O :  3.64  388O :  3.57  229O :  3.53  202O :  3.53  376O :  3.45  625O :  3.45  298O :  3.42  658O :  3.35   16O :  3.34
  541O :  3.33   40O :  3.26  145O :  3.24  160O :  3.22  112O :  3.21  586O :  3.21  676O :  3.19  475O :  3.17  424O :  3.14  739O :  3.13   79O :  3.13  589O :  3.11
  322O :  3.09  301O :  3.08  595O :  3.05  661O :  3.03  199O :  3.00  526O :  2.98  394O :  2.89  265O :  2.88  307O :  2.72  352O :  2.66  505O :  2.65  106O :  2.65
  178O :  2.63  166O :  2.62  130O :  2.62  358O :  2.60  271O :  2.56  409O :  2.48  667O :  2.45  628O :  2.45  682O :  2.40  724O :  2.39  385O :  2.36  487O :  2.35
  400O :  2.35  256O :  2.29  751O :  2.20  370O :  2.19  169O :  2.19  250O :  2.13    7O :  2.10  697O :  2.09  547O :  2.08  397O :  2.08  469O :  2.07  460O :  2.06
  334O :  2.06  691O :  2.03  193O :  2.02  139O :  2.02  673O :  2.01  361O :  1.98  529O :  1.91  290H :  1.90  163O :  1.90  184O :  1.88  458H :  1.85   58O :  1.83
  310O :  1.82   13O :  1.77  181O :  1.77  433O :  1.76  736O :  1.72  556O :  1.72  319O :  1.71  490O :  1.68  754O :  1.65  478O :  1.64  568O :  1.63  367O :  1.62
  313O :  1.59  242H :  1.59  544O :  1.58  706O :  1.58  118O :  1.58  643O :  1.57  154O :  1.56   88O :  1.56  565O :  1.53   22O :  1.53  283O :  1.49  412O :  1.49
  553O :  1.46  340O :  1.43   43O :  1.42  714H :  1.42  634O :  1.40  244O :  1.38  304O :  1.38  427O :  1.36  591H :  1.32  649O :  1.31  328O :  1.31  703O :  1.29
  277O :  1.28  100O :  1.27  269H :  1.24  292O :  1.20  217O :  1.19  748O :  1.19  149H :  1.18  652O :  1.17  464H :  1.12  125H :  1.11  121O :  1.09  249H :  1.09
  339H :  1.04  416H :  1.03  114H :  1.02   91O :  1.01  482H :  1.00  300H :  0.98  604O :  0.94  622O :  0.91  173H :  0.89  631O :  0.89  206H :  0.88  128H :  0.88
  619O :  0.88  558H :  0.88   10O :  0.87  157O :  0.86  343O :  0.86  694O :  0.84  375H :  0.82  196O :  0.77  723H :  0.76  259O :  0.76  733O :  0.75  240H :  0.75
  666H :  0.73  396H :  0.72  588H :  0.71  597H :  0.71  498H :  0.70  320H :  0.68  192H :  0.67  445O :  0.66  578H :  0.63   35H :  0.62   98H :  0.60   80H :  0.60
  449H :  0.60  560H :  0.59  438H :  0.59  753H :  0.59   19O :  0.59  670O :  0.59  725H :  0.58  603H :  0.57  468H :  0.57  616O :  0.57   76O :  0.57  288H :  0.55
  602H :  0.55  209H :  0.54  236H :  0.54  537H :  0.53  253O :  0.52   27H :  0.52  379O :  0.52  425H :  0.51  513H :  0.51    5H :  0.51  683H :  0.51  572H :  0.51
  600H :  0.50  194H :  0.50   65H :  0.50  314H :  0.50   73O :  0.49  359H :  0.49  222H :  0.49  123H :  0.49  453H :  0.49  732H :  0.48  702H :  0.48  492H :  0.48
  554H :  0.47  364O :  0.47    2H :  0.47  440H :  0.46  324H :  0.46  230H :  0.44  316O :  0.43  648H :  0.43  518H :  0.43   46O :  0.43  389H :  0.43  720H :  0.42
  655O :  0.42  615H :  0.42   38H :  0.42  356H :  0.42  109O :  0.41  432H :  0.41  151O :  0.41  678H :  0.41  214O :  0.41  630H :  0.41  627H :  0.41   68H :  0.40
  524H :  0.39  519H :  0.39  521H :  0.39  710H :  0.38    8H :  0.38   99H :  0.38  493O :  0.38  539H :  0.38  610O :  0.38   51H :  0.38  689H :  0.37  147H :  0.37
  417H :  0.36  503H :  0.36  587H :  0.36   61O :  0.35  351H :  0.35   29H :  0.35  191H :  0.35  267H :  0.35   17H :  0.35  639H :  0.34  315H :  0.34   74H :  0.33
  171H :  0.33  362H :  0.32  323H :  0.32  186H :  0.32  644H :  0.32   15H :  0.31  473H :  0.31  495H :  0.31    3H :  0.31  262O :  0.31  531H :  0.30  383H :  0.30
  260H :  0.30  326H :  0.30   23H :  0.30  500H :  0.29  488H :  0.29    6H :  0.29  719H :  0.29  593H :  0.29  225H :  0.28  387H :  0.28  420H :  0.28   53H :  0.28
  496O :  0.28  704H :  0.28  245H :  0.28  293H :  0.27  372H :  0.27  509H :  0.27  258H :  0.27  183H :  0.27  213H :  0.27  404H :  0.26  486H :  0.26  660H :  0.25
   90H :  0.25  327H :  0.25   96H :  0.25  111H :  0.24  251H :  0.24  189H :  0.24  546H :  0.24  200H :  0.24  699H :  0.24  528H :  0.23  716H :  0.22  512H :  0.22
  156H :  0.22  344H :  0.22  330H :  0.22  727O :  0.22  755H :  0.21   63H :  0.21  228H :  0.21  516H :  0.21  645H :  0.20  177H :  0.20  287H :  0.20  146H :  0.20
   24H :  0.20  296H :  0.20  465H :  0.20  411H :  0.19  216H :  0.19  590H :  0.19  479H :  0.19  444H :  0.19  467H :  0.19  722H :  0.19  165H :  0.19  408H :  0.18
  729H :  0.18  207H :  0.18  665H :  0.18  368H :  0.18  582H :  0.18  738H :  0.18  564H :  0.17  129H :  0.17   44H :  0.17  551H :  0.17   41H :  0.17  690H :  0.17
  281H :  0.17  143H :  0.17  711H :  0.17  374H :  0.17  605H :  0.16  386H :  0.16  152H :  0.16  542H :  0.16  570H :  0.16  141H :  0.16  279H :  0.16  717H :  0.16
  642H :  0.16   32H :  0.16  494H :  0.16  248H :  0.16  497H :  0.16  305H :  0.15   48H :  0.15  618H :  0.15   50H :  0.15  134H :  0.15  219H :  0.14  350H :  0.14
   66H :  0.14  579H :  0.14  515H :  0.14  561H :  0.14   33H :  0.14  677H :  0.14  441H :  0.14  573H :  0.13  608H :  0.13  434H :  0.13  120H :  0.13  198H :  0.13
  629H :  0.13  255H :  0.13  371H :  0.13  392H :  0.13  462H :  0.13  275H :  0.12  302H :  0.12  647H :  0.12  422H :  0.12  450H :  0.12  470H :  0.12  390H :  0.11
  345H :  0.11  426H :  0.11  585H :  0.11  246H :  0.11  363H :  0.11  413H :  0.11  566H :  0.11  414H :  0.11  201H :  0.11  626H :  0.10   57H :  0.10  533H :  0.10
  681H :  0.10  395H :  0.10  735H :  0.10  454O :  0.10  452H :  0.10  342H :  0.10  477H :  0.10   42H :  0.10  291H :  0.09  419H :  0.09  633H :  0.09   86H :  0.09
  176H :  0.09  686H :  0.09  747H :  0.09  437H :  0.09  272H :  0.09  203H :  0.09  653H :  0.09  378H :  0.08  743H :  0.08  489H :  0.08  108H :  0.08  435H :  0.08
  692H :  0.08  680H :  0.08   26H :  0.08  278H :  0.08  540H :  0.08  231H :  0.08  365H :  0.08  261H :  0.08  333H :  0.07  459H :  0.07  308H :  0.07  380H :  0.07
   77H :  0.07  581H :  0.07  557H :  0.07  204H :  0.07
    5 LP   *******   0.00   4.73006  -0.63048  49.93928  346O : 19.98  172O : 18.21  115O : 17.41   97O : 15.77  268O : 15.32  601O : 15.23  598O : 13.85  580O : 13.66  508O : 13.20  142O : 13.03  685O : 12.15  226O : 12.01
  220O : 11.70  241O : 11.19  646O : 10.08  466O : 10.02   31O : 10.00  190O :  9.94  502O :  9.89  463O :  9.70  355O :  9.57   37O :  9.49  127O :  9.44  679O :  9.21
  373O :  9.14  124O :  9.02  238O :  9.00  136O :  8.88  664O :  8.83  418O :  8.82  613O :  8.67  415O :  8.36   34O :  8.36  133O :  8.32   67O :  8.24  295O :  8.22
  550O :  8.11  514O :  7.96  406O :  7.69  520O :  7.63  223O :  7.57  439O :  7.56    1O :  7.28  430O :  7.17  481O :  7.14  688O :  6.93   94O :  6.34  403O :  6.31
  532O :  6.16  331O :  6.16  349O :  6.12   70O :  6.11  712O :  6.04  286O :  6.03  562O :  5.95  721O :  5.86  577O :  5.75   82O :  5.73  274O :  5.72  448O :  5.57
  484O :  5.46  718O :  5.45  436O :  5.29  187O :  5.25  583O :  5.23   28O :  5.19  607O :  5.18  517O :  5.13  457O :  5.12  235O :  5.05  571O :  4.99  247O :  4.97
  280O :  4.93  535O :  4.88   52O :  4.78  103O :  4.75  208O :  4.73  148O :  4.54  592O :  4.52  715O :  4.52  175O :  4.45  700O :  4.43  640O :  4.40  451O :  4.40
  709O :  4.39  538O :  4.34  205O :  4.23  382O :  4.22  289O :  4.20   25O :  4.12  337O :  4.10  499O :  4.08  574O :  3.98   64O :  3.97  742O :  3.96  637O :  3.95
  325O :  3.95  442O :  3.95  472O :  3.91    4O :  3.88  232O :  3.88   49O :  3.82  745O :  3.78  730O :  3.77   85O :  3.73  391O :  3.68   55O :  3.67  511O :  3.66
  421O :  3.65  523O :  3.62  211O :  3.61  559O :  3.56  229O :  3.55  388O :  3.49  202O :  3.45  376O :  3.38  625O :  3.37  298O :  3.34  658O :  3.28   16O :  3.27
  541O :  3.25   40O :  3.21  145O :  3.17  160O :  3.15  112O :  3.14  586O :  3.14  676O :  3.12  475O :  3.10  424O :  3.07  739O :  3.06   79O :  3.06  589O :  3.04
  322O :  3.03  301O :  3.01  595O :  2.98  661O :  2.97  199O :  2.94  526O :  2.91  394O :  2.82  265O :  2.82  307O :  2.66  352O :  2.60  505O :  2.59  106O :  2.59
  178O :  2.57  166O :  2.57  130O :  2.56  358O :  2.54  271O :  2.51  409O :  2.43  667O :  2.40  628O :  2.39  682O :  2.35  724O :  2.34  385O :  2.31  487O :  2.30
  400O :  2.30  256O :  2.24  751O :  2.15  370O :  2.14  169O :  2.14  250O :  2.09    7O :  2.06  697O :  2.05  397O :  2.04  547O :  2.04  469O :  2.03  460O :  2.01
  334O :  2.01  691O :  1.98  193O :  1.98  139O :  1.97  673O :  1.97  361O :  1.93  529O :  1.87  290H :  1.86  163O :  1.86  184O :  1.84  458H :  1.81   58O :  1.79
  310O :  1.78   13O :  1.73  181O :  1.73  433O :  1.72  736O :  1.69  556O :  1.68  319O :  1.68  490O :  1.64  754O :  1.61  478O :  1.60  568O :  1.60  367O :  1.59
  313O :  1.56  242H :  1.55  544O :  1.55  706O :  1.55  118O :  1.55  643O :  1.54  154O :  1.53   88O :  1.53  565O :  1.50   22O :  1.49  283O :  1.46  412O :  1.45
  553O :  1.43  340O :  1.40   43O :  1.39  714H :  1.39  634O :  1.37  244O :  1.35  304O :  1.35  427O :  1.33  591H :  1.29  649O :  1.28  328O :  1.28  277O :  1.27
  703O :  1.26  100O :  1.25  292O :  1.19  217O :  1.16  748O :  1.16  149H :  1.15  652O :  1.14  464H :  1.10  269H :  1.09  125H :  1.09  121O :  1.07  249H :  1.07
  339H :  1.02  416H :  1.00  114H :  1.00   91O :  0.99  482H :  0.98  300H :  0.96  604O :  0.93  622O :  0.89  173H :  0.87  631O :  0.87  206H :  0.86  128H :  0.86
  619O :  0.86  558H :  0.86   10O :  0.85  157O :  0.84  343O :  0.84  694O :  0.82  375H :  0.80  196O :  0.75  723H :  0.75  259O :  0.74  733O :  0.74  240H :  0.73
  666H :  0.71  396H :  0.70  588H :  0.70  597H :  0.69  498H :  0.69  320H :  0.67  192H :  0.66  445O :  0.64  578H :  0.62   35H :  0.60   98H :  0.59   80H :  0.59
  449H :  0.59  560H :  0.58  438H :  0.58  753H :  0.58   19O :  0.58  670O :  0.57  468H :  0.56  725H :  0.56  603H :  0.56  616O :  0.56   76O :  0.56  288H :  0.54
  602H :  0.54  209H :  0.53  236H :  0.53  537H :  0.52  253O :  0.51   27H :  0.51  379O :  0.51  425H :  0.50  513H :  0.50    5H :  0.50  683H :  0.50  572H :  0.50
  600H :  0.49  194H :  0.49   65H :  0.49  314H :  0.48  524H :  0.48  359H :  0.48   73O :  0.48  222H :  0.48  123H :  0.48  453H :  0.47  732H :  0.47  702H :  0.47
  492H :  0.47  554H :  0.46  364O :  0.46    2H :  0.46  230H :  0.46  440H :  0.45  324H :  0.45  316O :  0.42  648H :  0.42  518H :  0.42   46O :  0.42  389H :  0.42
  720H :  0.41  655O :  0.41  615H :  0.41   38H :  0.41  356H :  0.41  109O :  0.40  432H :  0.40  151O :  0.40  678H :  0.40  214O :  0.40  630H :  0.40  627H :  0.40
   68H :  0.39  519H :  0.38  521H :  0.38  710H :  0.38    8H :  0.37   99H :  0.37  493O :  0.37  539H :  0.37  610O :  0.37   51H :  0.37  689H :  0.37  147H :  0.36
  417H :  0.36  503H :  0.35  587H :  0.35   61O :  0.35  351H :  0.35   29H :  0.34  191H :  0.34  267H :  0.34   17H :  0.34  639H :  0.33  315H :  0.33   74H :  0.32
  171H :  0.32  362H :  0.32  323H :  0.31  186H :  0.31  644H :  0.31   15H :  0.31  473H :  0.31  495H :  0.30    3H :  0.30  262O :  0.30  531H :  0.30  383H :  0.30
  260H :  0.29  326H :  0.29   23H :  0.29  500H :  0.29  488H :  0.29    6H :  0.29  719H :  0.28  593H :  0.28  225H :  0.28  387H :  0.28  420H :  0.28   53H :  0.27
  496O :  0.27  704H :  0.27  245H :  0.27  509H :  0.27  372H :  0.27  293H :  0.27  258H :  0.27  183H :  0.26  213H :  0.26  404H :  0.26  486H :  0.25  660H :  0.25
   90H :  0.25  327H :  0.24   96H :  0.24  111H :  0.24  251H :  0.24  189H :  0.24  546H :  0.23  200H :  0.23  699H :  0.23  582H :  0.23  528H :  0.22  716H :  0.22
  512H :  0.22  156H :  0.22  344H :  0.21  296H :  0.21  330H :  0.21  727O :  0.21  755H :  0.21   63H :  0.21  228H :  0.20  516H :  0.20  645H :  0.20  177H :  0.20
  287H :  0.20  146H :  0.20   24H :  0.20  465H :  0.19  411H :  0.19  216H :  0.19  590H :  0.19  479H :  0.19  444H :  0.19  722H :  0.18  165H :  0.18  467H :  0.18
  408H :  0.18  729H :  0.18  207H :  0.18  665H :  0.18  368H :  0.18  738H :  0.17  564H :  0.17  129H :  0.17   44H :  0.17  551H :  0.17   41H :  0.17  279H :  0.16
  281H :  0.16  143H :  0.16  690H :  0.16  711H :  0.16  374H :  0.16  386H :  0.16  152H :  0.16  542H :  0.16  570H :  0.16  141H :  0.16  717H :  0.15  642H :  0.15
   32H :  0.15  494H :  0.15  248H :  0.15  605H :  0.15  497H :  0.15  305H :  0.15   48H :  0.15  618H :  0.15   50H :  0.14  134H :  0.14  219H :  0.14  350H :  0.14
   66H :  0.14  579H :  0.14  515H :  0.13  561H :  0.13   33H :  0.13  677H :  0.13  441H :  0.13  573H :  0.13  434H :  0.13  120H :  0.13  198H :  0.13  629H :  0.13
  255H :  0.13  371H :  0.13  392H :  0.13  462H :  0.13  608H :  0.12  275H :  0.12  302H :  0.12  647H :  0.12  422H :  0.12  450H :  0.11  470H :  0.11  390H :  0.11
  345H :  0.11  426H :  0.11  585H :  0.11  246H :  0.11  363H :  0.11  413H :  0.11  566H :  0.11  581H :  0.11  414H :  0.11  201H :  0.10  626H :  0.10   57H :  0.10
  533H :  0.10  452H :  0.10  681H :  0.10  395H :  0.10  735H :  0.10  454O :  0.10  342H :  0.10   42H :  0.09  477H :  0.09  291H :  0.09  419H :  0.09  633H :  0.09
   86H :  0.09  176H :  0.09  686H :  0.09  747H :  0.09  437H :  0.09  272H :  0.09  203H :  0.09  653H :  0.08  378H :  0.08  743H :  0.08  489H :  0.08  108H :  0.08
  435H :  0.08  692H :  0.08  609H :  0.08  680H :  0.08  231H :  0.08   26H :  0.08  540H :  0.07  365H :  0.07  261H :  0.07  333H :  0.07  459H :  0.07  308H :  0.07
  380H :  0.07  278H :  0.07   77H :  0.07
    6 LP   *******   0.00 -28.66518 -21.09667  -5.00334  346O : 18.62  172O : 16.97  115O : 16.23   97O : 14.70  142O : 14.51  601O : 14.20  598O : 12.91  580O : 12.73  268O : 12.36  508O : 12.30  685O : 11.33  226O : 11.19
  220O : 10.90  241O : 10.43  646O :  9.39  466O :  9.34   31O :  9.32  190O :  9.26  502O :  9.22  463O :  9.04  355O :  8.92   37O :  8.85  127O :  8.80  679O :  8.58
  373O :  8.52  124O :  8.41  238O :  8.39  136O :  8.27  664O :  8.23  418O :  8.12  613O :  8.08  415O :  7.80   34O :  7.78  133O :  7.76   67O :  7.68  295O :  7.66
  550O :  7.57  514O :  7.42  406O :  7.17  520O :  7.12  223O :  7.05  439O :  7.04    1O :  6.78  430O :  6.68  481O :  6.67  688O :  6.46   94O :  5.91  403O :  5.89
  532O :  5.74  331O :  5.74  349O :  5.71   70O :  5.70  712O :  5.63  286O :  5.63  562O :  5.54  721O :  5.46  577O :  5.36   82O :  5.34  274O :  5.33  448O :  5.19
  484O :  5.09  718O :  5.08  436O :  4.93  187O :  4.90  583O :  4.87   28O :  4.84  607O :  4.83  517O :  4.78  457O :  4.77  235O :  4.71  571O :  4.65  247O :  4.63
  280O :  4.59  535O :  4.55   52O :  4.52  103O :  4.42  208O :  4.41  148O :  4.23  592O :  4.21  715O :  4.21  175O :  4.15  700O :  4.13  640O :  4.10  451O :  4.10
  709O :  4.09  538O :  4.05  382O :  3.93  205O :  3.93  289O :  3.92   25O :  3.84  499O :  3.81  337O :  3.80  574O :  3.71   64O :  3.70  742O :  3.69  637O :  3.68
  325O :  3.68  442O :  3.68  472O :  3.65    4O :  3.62   85O :  3.61  232O :  3.61   49O :  3.56  745O :  3.52  730O :  3.52   55O :  3.43  391O :  3.43  511O :  3.41
  421O :  3.41  523O :  3.36  211O :  3.36  559O :  3.31  388O :  3.25  229O :  3.22  202O :  3.22  376O :  3.15  625O :  3.15  298O :  3.12  658O :  3.06   16O :  3.05
  541O :  3.03   40O :  2.97  145O :  2.96  160O :  2.94  112O :  2.93  586O :  2.92  676O :  2.91  475O :  2.89  424O :  2.86  739O :  2.85   79O :  2.85  589O :  2.83
  322O :  2.82  301O :  2.81  595O :  2.78  661O :  2.77  199O :  2.74  526O :  2.71  394O :  2.63  265O :  2.63  307O :  2.48  352O :  2.42  505O :  2.42  106O :  2.40
  166O :  2.39  130O :  2.39  358O :  2.37  271O :  2.34  409O :  2.26  667O :  2.23  628O :  2.23  682O :  2.19  724O :  2.18  385O :  2.15  487O :  2.14  400O :  2.14
  178O :  2.13  256O :  2.09  751O :  2.00  370O :  2.00  169O :  1.99  250O :  1.94    7O :  1.92  697O :  1.91  547O :  1.90  397O :  1.90  469O :  1.89  460O :  1.88
  334O :  1.87  691O :  1.85  193O :  1.84  139O :  1.84  673O :  1.83  361O :  1.82  529O :  1.74  290H :  1.74  163O :  1.73  184O :  1.72  458H :  1.69   58O :  1.67
  310O :  1.66   13O :  1.61  181O :  1.61  433O :  1.60  736O :  1.57  556O :  1.56  319O :  1.56  490O :  1.53  754O :  1.50  478O :  1.49  568O :  1.49  367O :  1.48
  313O :  1.45  242H :  1.45  544O :  1.44  118O :  1.44  706O :  1.44  643O :  1.43  154O :  1.43   88O :  1.42  565O :  1.40   22O :  1.39  412O :  1.36  283O :  1.34
  553O :  1.33  340O :  1.30   43O :  1.29  714H :  1.29  244O :  1.29  634O :  1.28  304O :  1.26  427O :  1.24  591H :  1.20  328O :  1.20  277O :  1.19  703O :  1.17
  100O :  1.16  649O :  1.16  269H :  1.13  292O :  1.10  217O :  1.08  748O :  1.08  149H :  1.07  652O :  1.07  464H :  1.02  125H :  1.02  121O :  1.00  249H :  1.00
  339H :  0.95  416H :  0.93  114H :  0.93   91O :  0.92  482H :  0.92  300H :  0.90  604O :  0.87  622O :  0.83  173H :  0.81  631O :  0.81  128H :  0.80  619O :  0.80
  558H :  0.80   10O :  0.79  206H :  0.79  157O :  0.79  343O :  0.78  694O :  0.76  375H :  0.74  196O :  0.70  723H :  0.70  259O :  0.69  733O :  0.69  240H :  0.68
  666H :  0.66  396H :  0.66  588H :  0.65  597H :  0.65  498H :  0.64  320H :  0.62  192H :  0.61  445O :  0.60  578H :  0.57   35H :  0.56   98H :  0.55   80H :  0.55
  449H :  0.55  560H :  0.54  438H :  0.54  753H :  0.54   19O :  0.54  670O :  0.53  468H :  0.53  725H :  0.52  603H :  0.52  616O :  0.52   76O :  0.52  288H :  0.50
  602H :  0.50  209H :  0.49  236H :  0.49  537H :  0.48  253O :  0.48   27H :  0.47  379O :  0.47  425H :  0.47  513H :  0.47    5H :  0.47  683H :  0.47  572H :  0.46
  600H :  0.46  194H :  0.45   65H :  0.45  314H :  0.45   73O :  0.45  359H :  0.45  222H :  0.45  123H :  0.45  453H :  0.44  732H :  0.44  702H :  0.44  492H :  0.44
  364O :  0.43  554H :  0.43    2H :  0.43  440H :  0.42  324H :  0.42  230H :  0.40  316O :  0.39  648H :  0.39  518H :  0.39   46O :  0.39  389H :  0.39  720H :  0.39
  655O :  0.38  615H :  0.38   38H :  0.38  356H :  0.38  109O :  0.38  432H :  0.38  151O :  0.38  678H :  0.37  214O :  0.37  630H :  0.37  627H :  0.37   68H :  0.36
  524H :  0.36  519H :  0.35  521H :  0.35  710H :  0.35    8H :  0.35   99H :  0.35  493O :  0.35  539H :  0.35  610O :  0.35   51H :  0.34  689H :  0.34  147H :  0.34
  417H :  0.33  503H :  0.33  587H :  0.33   61O :  0.32  351H :  0.32   29H :  0.32  191H :  0.32  267H :  0.32   17H :  0.32  639H :  0.31  315H :  0.31   74H :  0.30
  171H :  0.30  362H :  0.29  323H :  0.29  186H :  0.29  644H :  0.29   15H :  0.29  473H :  0.28  495H :  0.28    3H :  0.28  262O :  0.28  531H :  0.28  383H :  0.28
  260H :  0.27  326H :  0.27   23H :  0.27  500H :  0.27  488H :  0.27    6H :  0.27  420H :  0.26  719H :  0.26  593H :  0.26  225H :  0.26  387H :  0.26  245H :  0.26
   53H :  0.26  496O :  0.25  704H :  0.25  293H :  0.25  372H :  0.25  509H :  0.25  258H :  0.25  183H :  0.24  213H :  0.24  404H :  0.24  486H :  0.23  660H :  0.23
   90H :  0.23  327H :  0.23   96H :  0.22  111H :  0.22  251H :  0.22  189H :  0.22  546H :  0.22  200H :  0.22  699H :  0.22  582H :  0.21  528H :  0.21  716H :  0.21
  512H :  0.20  156H :  0.20  344H :  0.20  296H :  0.20  330H :  0.20  727O :  0.20  755H :  0.20   63H :  0.19  228H :  0.19  516H :  0.19  645H :  0.19  177H :  0.19
  287H :  0.18  146H :  0.18   24H :  0.18  465H :  0.18  411H :  0.18  216H :  0.18  590H :  0.18  479H :  0.17  444H :  0.17  722H :  0.17  165H :  0.17  467H :  0.17
  408H :  0.17  729H :  0.17  207H :  0.17  665H :  0.16  368H :  0.16  551H :  0.16  738H :  0.16  564H :  0.16  129H :  0.16   44H :  0.16   41H :  0.16  279H :  0.15
  281H :  0.15  690H :  0.15  711H :  0.15  374H :  0.15  386H :  0.15  152H :  0.15  542H :  0.15  570H :  0.15  141H :  0.14  717H :  0.14  642H :  0.14   32H :  0.14
  494H :  0.14  248H :  0.14  605H :  0.14  497H :  0.14  305H :  0.14   48H :  0.14  618H :  0.14   50H :  0.13  134H :  0.13  219H :  0.13  350H :  0.13   66H :  0.13
  579H :  0.13  515H :  0.13  561H :  0.12   33H :  0.12  677H :  0.12  441H :  0.12  573H :  0.12  198H :  0.12  434H :  0.12  120H :  0.12  629H :  0.12  255H :  0.12
  371H :  0.12  392H :  0.12  462H :  0.12  608H :  0.11  275H :  0.11  302H :  0.11  647H :  0.11  422H :  0.11  470H :  0.11  450H :  0.11  246H :  0.11  390H :  0.11
  345H :  0.10  426H :  0.10  143H :  0.10  585H :  0.10  363H :  0.10  413H :  0.10  566H :  0.10  581H :  0.10  414H :  0.10  201H :  0.10  626H :  0.09   57H :  0.09
  533H :  0.09  681H :  0.09  395H :  0.09   86H :  0.09  735H :  0.09  454O :  0.09  452H :  0.09  342H :  0.09  419H :  0.09   42H :  0.09  477H :  0.09  291H :  0.09
  633H :  0.08  176H :  0.08  686H :  0.08  747H :  0.08  437H :  0.08  272H :  0.08  203H :  0.08  653H :  0.08  378H :  0.08  743H :  0.08  108H :  0.08  489H :  0.08
  435H :  0.07  692H :  0.07  609H :  0.07  680H :  0.07   26H :  0.07
    7 LP   *******   0.00  19.71171   8.37520  45.60091  346O : 18.54  172O : 16.91  115O : 16.16   97O : 14.63  508O : 14.34  601O : 14.14  598O : 12.82  580O : 12.67  268O : 12.33  142O : 12.09  685O : 11.28  226O : 11.14
  220O : 10.85  241O : 10.38  646O :  9.35  466O :  9.30   31O :  9.30  190O :  9.22  502O :  9.18  463O :  9.00  355O :  8.88   37O :  8.81  127O :  8.76  679O :  8.55
  373O :  8.48  124O :  8.37  238O :  8.35  136O :  8.24  664O :  8.19  418O :  8.18  613O :  8.05  415O :  7.76   34O :  7.75  133O :  7.72   67O :  7.64  295O :  7.63
  550O :  7.53  514O :  7.39  406O :  7.13  520O :  7.08  223O :  7.02  439O :  7.01    1O :  6.75  430O :  6.65  481O :  6.63  688O :  6.43   94O :  5.88  403O :  5.87
  532O :  5.72  331O :  5.72  349O :  5.68   70O :  5.68  712O :  5.60  286O :  5.60  562O :  5.52  721O :  5.43  577O :  5.33   82O :  5.31  274O :  5.30  448O :  5.17
  484O :  5.07  718O :  5.06  436O :  4.91  187O :  4.88  583O :  4.85   28O :  4.81  607O :  4.81  517O :  4.76  457O :  4.75  235O :  4.68  571O :  4.63  247O :  4.61
  280O :  4.57  535O :  4.53   52O :  4.43  103O :  4.40  208O :  4.39  148O :  4.21  592O :  4.20  715O :  4.19  175O :  4.13  700O :  4.11  640O :  4.09  451O :  4.08
  709O :  4.08  538O :  4.03  205O :  3.93  382O :  3.92  289O :  3.90   25O :  3.82  499O :  3.78  337O :  3.77  574O :  3.69   64O :  3.69  742O :  3.67  637O :  3.67
  325O :  3.67  442O :  3.66  472O :  3.63    4O :  3.60  232O :  3.59   49O :  3.55  745O :  3.51  730O :  3.50   85O :  3.46  391O :  3.41   55O :  3.41  511O :  3.40
  421O :  3.39  523O :  3.35  211O :  3.35  559O :  3.30  388O :  3.24  202O :  3.20  376O :  3.13  625O :  3.13  298O :  3.10  658O :  3.05   16O :  3.03  229O :  3.03
  541O :  3.02   40O :  2.96  145O :  2.95  160O :  2.92  112O :  2.92  586O :  2.91  676O :  2.90  475O :  2.88  424O :  2.85  739O :  2.84   79O :  2.84  589O :  2.82
  322O :  2.81  301O :  2.80  595O :  2.77  661O :  2.76  199O :  2.73  526O :  2.72  394O :  2.62  265O :  2.62  307O :  2.47  352O :  2.41  505O :  2.41  106O :  2.40
  178O :  2.38  166O :  2.38  130O :  2.38  358O :  2.36  271O :  2.33  409O :  2.25  667O :  2.22  628O :  2.22  682O :  2.19  724O :  2.17  385O :  2.14  487O :  2.13
  400O :  2.13  256O :  2.08  751O :  2.00  370O :  1.99  169O :  1.98  250O :  1.94    7O :  1.91  697O :  1.90  547O :  1.89  397O :  1.89  469O :  1.88  460O :  1.87
  334O :  1.87  691O :  1.84  193O :  1.84  139O :  1.83  673O :  1.82  361O :  1.79  529O :  1.73  290H :  1.73  163O :  1.73  184O :  1.71  458H :  1.68   58O :  1.66
  310O :  1.65   13O :  1.61  181O :  1.61  433O :  1.60  736O :  1.57  556O :  1.56  319O :  1.56  367O :  1.53  490O :  1.52  754O :  1.50  478O :  1.49  568O :  1.48
  313O :  1.45  242H :  1.44  544O :  1.44  706O :  1.43  118O :  1.43  643O :  1.43  154O :  1.42   88O :  1.42  565O :  1.39   22O :  1.39  412O :  1.35  283O :  1.35
  553O :  1.33  340O :  1.29   43O :  1.29  714H :  1.29  634O :  1.27  244O :  1.26  304O :  1.25  427O :  1.24  591H :  1.20  649O :  1.19  328O :  1.19  277O :  1.18
  703O :  1.17  100O :  1.16  269H :  1.13  292O :  1.09  217O :  1.08  748O :  1.08  652O :  1.07  149H :  1.07  464H :  1.02  125H :  1.01  121O :  0.99  249H :  0.99
  339H :  0.94  416H :  0.93  114H :  0.92   91O :  0.92  482H :  0.91  300H :  0.89  604O :  0.86  622O :  0.83  173H :  0.81  631O :  0.81  206H :  0.80  128H :  0.80
  619O :  0.80  558H :  0.79   10O :  0.79  157O :  0.78  343O :  0.78  694O :  0.76  375H :  0.74  196O :  0.70  723H :  0.69  259O :  0.69  733O :  0.68  240H :  0.68
  666H :  0.66  396H :  0.65  588H :  0.65  597H :  0.64  498H :  0.64  320H :  0.62  192H :  0.61  445O :  0.60  578H :  0.57   35H :  0.56   98H :  0.55   80H :  0.55
  449H :  0.54  560H :  0.54  438H :  0.54  753H :  0.54   19O :  0.54  670O :  0.53  468H :  0.52  725H :  0.52  603H :  0.52  616O :  0.52   76O :  0.52  288H :  0.50
  602H :  0.50  209H :  0.49  236H :  0.49  537H :  0.48  253O :  0.47   27H :  0.47  379O :  0.47  425H :  0.47  513H :  0.46    5H :  0.46  683H :  0.46  572H :  0.46
  194H :  0.45   65H :  0.45  314H :  0.45  600H :  0.45   73O :  0.45  359H :  0.45  222H :  0.44  123H :  0.44  453H :  0.44  732H :  0.44  702H :  0.44  492H :  0.43
  364O :  0.43  554H :  0.43    2H :  0.43  440H :  0.42  324H :  0.41  316O :  0.39  648H :  0.39  518H :  0.39   46O :  0.39  389H :  0.39  720H :  0.38  655O :  0.38
  615H :  0.38   38H :  0.38  356H :  0.38  109O :  0.38  432H :  0.37  151O :  0.37  678H :  0.37  214O :  0.37  630H :  0.37  627H :  0.37   68H :  0.36  230H :  0.36
  524H :  0.36  519H :  0.35  521H :  0.35  710H :  0.35    8H :  0.35   99H :  0.35  493O :  0.35  539H :  0.34  610O :  0.34   51H :  0.34  689H :  0.34  147H :  0.34
  417H :  0.33  503H :  0.33  587H :  0.33   61O :  0.32  351H :  0.32   29H :  0.32  191H :  0.32  267H :  0.32   17H :  0.32  639H :  0.31  315H :  0.31  171H :  0.30
   74H :  0.30  362H :  0.29  323H :  0.29  186H :  0.29  644H :  0.29   15H :  0.29  473H :  0.28  495H :  0.28    3H :  0.28  262O :  0.28  531H :  0.28  383H :  0.27
  260H :  0.27  326H :  0.27   23H :  0.27  488H :  0.27  500H :  0.27    6H :  0.27  719H :  0.26  593H :  0.26  225H :  0.26  387H :  0.26  420H :  0.26   53H :  0.25
  496O :  0.25  704H :  0.25  245H :  0.25  372H :  0.25  293H :  0.25  258H :  0.25  183H :  0.24  213H :  0.24  404H :  0.24  486H :  0.23  660H :  0.23   90H :  0.23
  327H :  0.23   96H :  0.22  111H :  0.22  251H :  0.22  189H :  0.22  546H :  0.22  200H :  0.22  699H :  0.21  582H :  0.21  528H :  0.21  716H :  0.20  512H :  0.20
  156H :  0.20  344H :  0.20  296H :  0.20  330H :  0.20  727O :  0.20  755H :  0.19   63H :  0.19  228H :  0.19  516H :  0.19  509H :  0.19  645H :  0.18  177H :  0.18
  287H :  0.18  146H :  0.18   24H :  0.18  465H :  0.18  411H :  0.18  216H :  0.18  590H :  0.17  479H :  0.17  444H :  0.17  722H :  0.17  165H :  0.17  467H :  0.17
  368H :  0.17  408H :  0.17  729H :  0.17  207H :  0.17  665H :  0.16  738H :  0.16  564H :  0.16  129H :  0.16   44H :  0.16  551H :  0.16   41H :  0.15  279H :  0.15
  281H :  0.15  143H :  0.15  690H :  0.15  711H :  0.15  374H :  0.15  386H :  0.15  152H :  0.15  542H :  0.15  570H :  0.14  141H :  0.14  717H :  0.14  642H :  0.14
  494H :  0.14  248H :  0.14  605H :  0.14  497H :  0.14   32H :  0.14  305H :  0.14   48H :  0.13  618H :  0.13   50H :  0.13  134H :  0.13  219H :  0.13  350H :  0.13
   66H :  0.13  579H :  0.13  515H :  0.12  561H :  0.12  677H :  0.12   33H :  0.12  441H :  0.12  573H :  0.12  434H :  0.12  120H :  0.12  198H :  0.12  629H :  0.12
  255H :  0.12  371H :  0.12  392H :  0.12  462H :  0.12  608H :  0.11  275H :  0.11  302H :  0.11  647H :  0.11  422H :  0.11  450H :  0.11  470H :  0.11  390H :  0.10
  345H :  0.10  426H :  0.10  585H :  0.10  246H :  0.10  363H :  0.10  413H :  0.10  566H :  0.10  414H :  0.10  581H :  0.10  201H :  0.10  626H :  0.09   57H :  0.09
  533H :  0.09  681H :  0.09  395H :  0.09  735H :  0.09  454O :  0.09  452H :  0.09  342H :  0.09   42H :  0.09  477H :  0.09  291H :  0.09  419H :  0.08  633H :  0.08
   86H :  0.08  176H :  0.08  686H :  0.08  747H :  0.08  437H :  0.08  272H :  0.08  203H :  0.08  653H :  0.08  378H :  0.08  743H :  0.08  489H :  0.08  108H :  0.08
  435H :  0.07  692H :  0.07  609H :  0.07  680H :  0.07   26H :  0.07  231H :  0.07
    8 LP   *******   0.00  41.89551  16.98698  39.86202  346O : 17.95  172O : 16.36  598O : 15.67  115O : 15.64   97O : 14.17  601O : 13.69  580O : 12.27  268O : 11.91  508O : 11.85  142O : 11.70  685O : 10.92  226O : 10.79
  220O : 10.51  241O : 10.05  646O :  9.05  466O :  9.01  190O :  8.93  502O :  8.89   31O :  8.73  463O :  8.71  355O :  8.59   37O :  8.53  127O :  8.48  679O :  8.27
  373O :  8.21  124O :  8.11  238O :  8.09  136O :  7.97  664O :  7.93  418O :  7.92  613O :  7.79  415O :  7.51   34O :  7.50  133O :  7.48   67O :  7.40  295O :  7.39
  550O :  7.29  514O :  7.15  406O :  6.91  520O :  6.86  223O :  6.80  439O :  6.79    1O :  6.54  430O :  6.44  481O :  6.42  688O :  6.23   94O :  5.69  403O :  5.67
  532O :  5.54  331O :  5.54  349O :  5.50   70O :  5.49  712O :  5.43  286O :  5.42  562O :  5.34  721O :  5.26  577O :  5.16   82O :  5.14  274O :  5.13  448O :  5.00
  484O :  4.91  718O :  4.90  436O :  4.75  187O :  4.72  583O :  4.70   28O :  4.66  607O :  4.65  517O :  4.60  457O :  4.60  235O :  4.53  571O :  4.48  247O :  4.46
  280O :  4.43  535O :  4.38   52O :  4.29  103O :  4.26  208O :  4.25  148O :  4.08  715O :  4.07  592O :  4.06  175O :  4.00  700O :  3.98  640O :  3.96  451O :  3.95
  709O :  3.95  538O :  3.90  205O :  3.80  382O :  3.79  289O :  3.77   25O :  3.70  499O :  3.67  337O :  3.66  574O :  3.58   64O :  3.57  742O :  3.56  637O :  3.55
  325O :  3.55  442O :  3.54  472O :  3.51    4O :  3.49  232O :  3.47   49O :  3.43  745O :  3.40  730O :  3.39   85O :  3.35  391O :  3.30   55O :  3.30  511O :  3.29
  421O :  3.28  523O :  3.24  211O :  3.24  559O :  3.20  229O :  3.11  202O :  3.10  376O :  3.03  625O :  3.03  298O :  3.00  658O :  2.95   16O :  2.94  541O :  2.92
  388O :  2.92   40O :  2.87  145O :  2.85  112O :  2.83  160O :  2.83  586O :  2.82  676O :  2.81  475O :  2.79  424O :  2.76  739O :  2.75   79O :  2.75  589O :  2.73
  322O :  2.72  301O :  2.71  595O :  2.68  661O :  2.67  199O :  2.64  526O :  2.61  394O :  2.54  265O :  2.53  307O :  2.39  352O :  2.34  505O :  2.33  106O :  2.33
  178O :  2.31  166O :  2.30  130O :  2.30  358O :  2.28  271O :  2.25  409O :  2.18  667O :  2.15  628O :  2.15  682O :  2.11  724O :  2.10  385O :  2.07  487O :  2.07
  400O :  2.07  256O :  2.01  751O :  1.93  370O :  1.92  169O :  1.92  250O :  1.87    7O :  1.85  697O :  1.84  547O :  1.83  397O :  1.83  469O :  1.81  460O :  1.81
  334O :  1.81  691O :  1.78  193O :  1.78  139O :  1.77  673O :  1.77  361O :  1.74  163O :  1.70  529O :  1.68  290H :  1.67  184O :  1.66  458H :  1.63   58O :  1.61
  310O :  1.60   13O :  1.55  181O :  1.55  433O :  1.54  736O :  1.52  556O :  1.51  319O :  1.51  490O :  1.47  754O :  1.45  478O :  1.44  568O :  1.43  367O :  1.43
  313O :  1.40  242H :  1.40  544O :  1.39  706O :  1.39  118O :  1.39  643O :  1.38  154O :  1.37   88O :  1.37  565O :  1.35   22O :  1.34  283O :  1.31  412O :  1.31
  553O :  1.29  340O :  1.25   43O :  1.25  714H :  1.25  634O :  1.23  244O :  1.22  304O :  1.21  427O :  1.20  591H :  1.16  649O :  1.15  328O :  1.15  277O :  1.14
  703O :  1.13  100O :  1.12  269H :  1.09  292O :  1.06  217O :  1.04  748O :  1.04  652O :  1.03  149H :  1.03  464H :  0.99  125H :  0.98  121O :  0.96  249H :  0.96
  339H :  0.91  416H :  0.90  114H :  0.89   91O :  0.89  482H :  0.88  300H :  0.87  604O :  0.83  622O :  0.80  173H :  0.78  631O :  0.78  206H :  0.77  128H :  0.77
  619O :  0.77  558H :  0.77   10O :  0.76  157O :  0.76  343O :  0.75  694O :  0.74  375H :  0.72  196O :  0.67  723H :  0.67  259O :  0.66  733O :  0.66  240H :  0.66
  666H :  0.64  396H :  0.63  588H :  0.63  597H :  0.62  498H :  0.62  320H :  0.60  192H :  0.59  445O :  0.58  578H :  0.55   35H :  0.54   98H :  0.53   80H :  0.53
  449H :  0.53  560H :  0.52  438H :  0.52  753H :  0.52   19O :  0.52  670O :  0.52  468H :  0.51  725H :  0.51  603H :  0.50  616O :  0.50   76O :  0.50  288H :  0.49
  602H :  0.48  209H :  0.47  236H :  0.47  537H :  0.47  253O :  0.46   27H :  0.46  379O :  0.45  425H :  0.45  513H :  0.45    5H :  0.45  683H :  0.45  572H :  0.44
  194H :  0.44   65H :  0.44  314H :  0.44   73O :  0.43  359H :  0.43  123H :  0.43  222H :  0.43  453H :  0.43  732H :  0.42  702H :  0.42  492H :  0.42  364O :  0.42
  554H :  0.42    2H :  0.41  440H :  0.40  324H :  0.40  230H :  0.39  648H :  0.38  316O :  0.38  518H :  0.38   46O :  0.38  720H :  0.37  600H :  0.37  655O :  0.37
  615H :  0.37   38H :  0.37  356H :  0.37  109O :  0.36  432H :  0.36  151O :  0.36  678H :  0.36  214O :  0.36  630H :  0.36  627H :  0.36   68H :  0.35  524H :  0.34
  519H :  0.34  521H :  0.34  710H :  0.34    8H :  0.34   99H :  0.34  493O :  0.34  610O :  0.33   51H :  0.33  539H :  0.33  689H :  0.33  147H :  0.33  417H :  0.32
  503H :  0.32  587H :  0.32   61O :  0.31  351H :  0.31   29H :  0.31  191H :  0.31  267H :  0.31   17H :  0.31  639H :  0.30  315H :  0.30   74H :  0.29  171H :  0.29
  362H :  0.28  323H :  0.28  186H :  0.28  644H :  0.28   15H :  0.28  473H :  0.28  495H :  0.27    3H :  0.27  262O :  0.27  531H :  0.27  383H :  0.27  260H :  0.26
  326H :  0.26   23H :  0.26  488H :  0.26  500H :  0.26    6H :  0.26  719H :  0.25  593H :  0.25  225H :  0.25  387H :  0.25  420H :  0.25   53H :  0.25  496O :  0.24
  704H :  0.24  245H :  0.24  293H :  0.24  372H :  0.24  258H :  0.24  389H :  0.24  509H :  0.23  183H :  0.23  213H :  0.23  404H :  0.23  486H :  0.22  660H :  0.22
   90H :  0.22  327H :  0.22   96H :  0.22  111H :  0.21  251H :  0.21  189H :  0.21  546H :  0.21  200H :  0.21  699H :  0.21  582H :  0.20  528H :  0.20  716H :  0.20
  512H :  0.20  156H :  0.19  344H :  0.19  296H :  0.19  330H :  0.19  727O :  0.19  755H :  0.19   63H :  0.19  228H :  0.18  516H :  0.18  645H :  0.18  177H :  0.18
  287H :  0.18   24H :  0.18  146H :  0.17  465H :  0.17  411H :  0.17  216H :  0.17  590H :  0.17  479H :  0.17  444H :  0.17  165H :  0.16  722H :  0.16  467H :  0.16
  368H :  0.16  408H :  0.16  729H :  0.16  207H :  0.16  665H :  0.16  738H :  0.15  564H :  0.15  129H :  0.15   44H :  0.15  551H :  0.15   41H :  0.15  279H :  0.15
  281H :  0.15  143H :  0.15  690H :  0.15  711H :  0.15  374H :  0.15  386H :  0.14  152H :  0.14  542H :  0.14  570H :  0.14  141H :  0.14  717H :  0.14  642H :  0.14
  494H :  0.14  248H :  0.14  605H :  0.14  497H :  0.14   32H :  0.13  305H :  0.13   48H :  0.13  618H :  0.13   50H :  0.13  134H :  0.13  219H :  0.13  350H :  0.13
   66H :  0.12  579H :  0.12  515H :  0.12  561H :  0.12   33H :  0.12  677H :  0.12  441H :  0.12  573H :  0.12  434H :  0.12  120H :  0.12  198H :  0.12  629H :  0.11
  255H :  0.11  371H :  0.11  392H :  0.11  462H :  0.11  608H :  0.11  275H :  0.11  302H :  0.11  647H :  0.11  422H :  0.11  470H :  0.10  450H :  0.10  345H :  0.10
  390H :  0.10  426H :  0.10  585H :  0.10  246H :  0.10  363H :  0.10  413H :  0.10  566H :  0.10  581H :  0.10  414H :  0.10  201H :  0.09  626H :  0.09   57H :  0.09
  533H :  0.09  681H :  0.09  395H :  0.09  735H :  0.09  454O :  0.09  452H :  0.09  342H :  0.09  477H :  0.08   42H :  0.08  291H :  0.08  419H :  0.08  633H :  0.08
   86H :  0.08  176H :  0.08  686H :  0.08  747H :  0.08  437H :  0.08  272H :  0.08  203H :  0.08  653H :  0.08  378H :  0.07  743H :  0.07  489H :  0.07  108H :  0.07
  435H :  0.07  692H :  0.07  609H :  0.07  680H :  0.07   26H :  0.07
    9 LP   *******   0.00  -4.78304   1.32143  -4.35649  115O : 17.80  346O : 17.69  172O : 16.11   97O : 13.97  601O : 13.49  598O : 12.26  580O : 12.09  268O : 11.74  508O : 11.69  142O : 11.54  685O : 10.76  226O : 10.63
  220O : 10.36  241O :  9.91  646O :  8.92  466O :  8.88   31O :  8.85  190O :  8.80  502O :  8.69  463O :  8.59  355O :  8.48   37O :  8.41  127O :  8.35  679O :  8.15
  373O :  8.09  124O :  7.99  238O :  7.97  136O :  7.86  664O :  7.82  418O :  7.81  613O :  7.68  415O :  7.41   34O :  7.40  133O :  7.37   67O :  7.30  295O :  7.28
  550O :  7.19  514O :  7.05  406O :  6.81  520O :  6.76  223O :  6.69  439O :  6.69    1O :  6.45  430O :  6.35  481O :  6.33  688O :  6.14   94O :  5.62  403O :  5.59
  532O :  5.46  331O :  5.46   70O :  5.45  349O :  5.42  712O :  5.35  286O :  5.34  562O :  5.26  721O :  5.19   82O :  5.07  274O :  5.06  577O :  5.05  448O :  4.93
  484O :  4.84  718O :  4.83  436O :  4.69  187O :  4.63  583O :  4.63   28O :  4.59  607O :  4.59  517O :  4.54  457O :  4.53  235O :  4.47  571O :  4.42  247O :  4.40
  280O :  4.37  535O :  4.32   52O :  4.24  103O :  4.20  208O :  4.19  148O :  4.02  592O :  4.00  715O :  4.00  175O :  3.94  700O :  3.92  640O :  3.90  709O :  3.89
  451O :  3.89  538O :  3.85  205O :  3.75  382O :  3.74  289O :  3.72   25O :  3.65  499O :  3.62  337O :  3.61  574O :  3.52   64O :  3.52  742O :  3.50  637O :  3.50
  325O :  3.50  442O :  3.49  472O :  3.46    4O :  3.44  232O :  3.43  745O :  3.35  730O :  3.34   85O :  3.31  391O :  3.26   55O :  3.24  421O :  3.24  523O :  3.20
  211O :  3.19  559O :  3.15  511O :  3.14  388O :  3.09  229O :  3.06  202O :  3.06   49O :  3.04  625O :  2.99  298O :  2.96  658O :  2.91  376O :  2.90   16O :  2.90
  541O :  2.88   40O :  2.82  145O :  2.81  160O :  2.79  112O :  2.78  586O :  2.78  676O :  2.77  475O :  2.75  424O :  2.72  739O :  2.71   79O :  2.71  589O :  2.69
  322O :  2.68  301O :  2.67  595O :  2.64  661O :  2.63  199O :  2.61  526O :  2.58  394O :  2.50  265O :  2.50  307O :  2.36  352O :  2.30  505O :  2.30  106O :  2.29
  178O :  2.28  166O :  2.27  130O :  2.27  358O :  2.25  271O :  2.22  409O :  2.15  667O :  2.12  628O :  2.12  682O :  2.08  724O :  2.07  385O :  2.04  487O :  2.04
  400O :  2.04  256O :  1.98  751O :  1.90  370O :  1.90  169O :  1.90  250O :  1.85    7O :  1.82  697O :  1.81  397O :  1.80  547O :  1.80  469O :  1.80  460O :  1.78
  334O :  1.78  691O :  1.76  193O :  1.75  139O :  1.75  673O :  1.73  361O :  1.71  184O :  1.66  529O :  1.65  290H :  1.65  163O :  1.65  458H :  1.60   58O :  1.60
  310O :  1.58   13O :  1.53  181O :  1.53  433O :  1.52  736O :  1.49  556O :  1.49  319O :  1.49  490O :  1.45  754O :  1.43  478O :  1.42  568O :  1.41  367O :  1.41
  313O :  1.38  242H :  1.37  544O :  1.37  706O :  1.37  118O :  1.37  154O :  1.37  643O :  1.36   88O :  1.35  565O :  1.33   22O :  1.32  283O :  1.29  412O :  1.29
  553O :  1.27  340O :  1.24   43O :  1.23  714H :  1.23  634O :  1.21  244O :  1.20  304O :  1.19  427O :  1.18  591H :  1.14  649O :  1.14  328O :  1.14  277O :  1.13
  703O :  1.11  100O :  1.10  269H :  1.07  292O :  1.04  217O :  1.03  748O :  1.03  149H :  1.02  652O :  1.02  464H :  0.97  125H :  0.96  121O :  0.95  249H :  0.95
  339H :  0.90  416H :  0.89  114H :  0.88   91O :  0.88  482H :  0.87  300H :  0.85  604O :  0.82  622O :  0.79  173H :  0.77  631O :  0.77  206H :  0.76  619O :  0.76
  128H :  0.76  558H :  0.76   10O :  0.75  157O :  0.75  343O :  0.74  694O :  0.72  375H :  0.71  196O :  0.66  723H :  0.66  259O :  0.65  733O :  0.65  240H :  0.65
  666H :  0.63  396H :  0.62  588H :  0.62  597H :  0.61  498H :  0.61  320H :  0.59  192H :  0.58  445O :  0.57  578H :  0.54   76O :  0.54   35H :  0.53   98H :  0.52
   80H :  0.52  449H :  0.52  560H :  0.52  438H :  0.51   19O :  0.51  753H :  0.51  670O :  0.51  468H :  0.50  725H :  0.50  603H :  0.50  616O :  0.49  288H :  0.48
  602H :  0.48  209H :  0.47  236H :  0.47  537H :  0.46  253O :  0.45   27H :  0.45  379O :  0.45  425H :  0.45    5H :  0.44  683H :  0.44  572H :  0.44  600H :  0.43
[...]
   370   8 o    1.858 --   372 h    0.847   371 h    0.808
   371   1 h    0.875 --   370 o    0.808
   372   1 h    0.888 --   370 o    0.847
   373   8 o    1.824 --   374 h    0.879   375 h    0.854
   374   1 h    0.899 --   373 o    0.879
   375   1 h    0.893 --   373 o    0.854
   376   8 o    1.884 --   377 h    0.832   378 h    0.792
   377   1 h    0.879 --   376 o    0.832
   378   1 h    0.875 --   376 o    0.792
   379   8 o    1.843 --   380 h    0.829   381 h    0.810
   380   1 h    0.888 --   379 o    0.829
   381   1 h    0.872 --   379 o    0.810
   382   8 o    1.851 --   383 h    0.874   384 h    0.830
   383   1 h    0.897 --   382 o    0.874
   384   1 h    0.887 --   382 o    0.830
   385   8 o    1.859 --   387 h    0.899   386 h    0.801
   386   1 h    0.874 --   385 o    0.801
   387   1 h    0.908 --   385 o    0.899
   388   8 o    1.792 --   389 h    0.849   390 h    0.847
   389   1 h    0.898 --   388 o    0.849
   390   1 h    0.895 --   388 o    0.847
   391   8 o    1.845 --   392 h    0.878   393 h    0.798
   392   1 h    0.903 --   391 o    0.878
   393   1 h    0.881 --   391 o    0.798
   394   8 o    1.833 --   396 h    0.849   395 h    0.805
   395   1 h    0.874 --   394 o    0.805
   396   1 h    0.887 --   394 o    0.849
   397   8 o    1.869 --   398 h    0.805   399 h    0.791
   398   1 h    0.884 --   397 o    0.805
   399   1 h    0.876 --   397 o    0.791
   400   8 o    1.835 --   401 h    0.857   402 h    0.798
   401   1 h    0.895 --   400 o    0.857
   402   1 h    0.884 --   400 o    0.798
   403   8 o    1.864 --   404 h    0.837   405 h    0.797
   404   1 h    0.895 --   403 o    0.837
   405   1 h    0.879 --   403 o    0.797
   406   8 o    1.870 --   407 h    0.813   408 h    0.796
   407   1 h    0.887 --   406 o    0.813
   408   1 h    0.874 --   406 o    0.796
   409   8 o    1.875 --   410 h    0.820   411 h    0.818
   410   1 h    0.885 --   409 o    0.820
   411   1 h    0.889 --   409 o    0.818
   412   8 o    1.897 --   414 h    0.810   413 h    0.792
   413   1 h    0.872 --   412 o    0.792
   414   1 h    0.876 --   412 o    0.810
   415   8 o    1.861 --   416 h    0.868   417 h    0.855
   416   1 h    0.895 --   415 o    0.868
   417   1 h    0.890 --   415 o    0.855
   418   8 o    1.854 --   419 h    0.849   420 h    0.815
   419   1 h    0.893 --   418 o    0.849
   420   1 h    0.890 --   418 o    0.815
   421   8 o    1.847 --   423 h    0.854   422 h    0.816
   422   1 h    0.882 --   421 o    0.816
   423   1 h    0.897 --   421 o    0.854
   424   8 o    1.841 --   425 h    0.894   426 h    0.831
   425   1 h    0.904 --   424 o    0.894
   426   1 h    0.883 --   424 o    0.831
   427   8 o    1.862 --   428 h    0.814   429 h    0.776
   428   1 h    0.882 --   427 o    0.814
   429   1 h    0.870 --   427 o    0.776
   430   8 o    1.863 --   432 h    0.834   431 h    0.792
   431   1 h    0.874 --   430 o    0.792
   432   1 h    0.878 --   430 o    0.834
   433   8 o    1.857 --   434 h    0.896   435 h    0.792
   434   1 h    0.907 --   433 o    0.896
   435   1 h    0.879 --   433 o    0.792
   436   8 o    1.872 --   438 h    0.823   437 h    0.811
   437   1 h    0.879 --   436 o    0.811
   438   1 h    0.876 --   436 o    0.823
   439   8 o    1.838 --   440 h    0.849   441 h    0.839
   440   1 h    0.896 --   439 o    0.849
   441   1 h    0.883 --   439 o    0.839
   442   8 o    1.864 --   443 h    0.868   444 h    0.835
   443   1 h    0.896 --   442 o    0.868
   444   1 h    0.883 --   442 o    0.835
   445   8 o    1.855 --   446 h    0.852   447 h    0.830
   446   1 h    0.891 --   445 o    0.852
   447   1 h    0.878 --   445 o    0.830
   448   8 o    1.887 --   450 h    0.867   449 h    0.851
   449   1 h    0.891 --   448 o    0.851
   450   1 h    0.896 --   448 o    0.867
   451   8 o    1.898 --   453 h    0.824   452 h    0.799
   452   1 h    0.872 --   451 o    0.799
   453   1 h    0.883 --   451 o    0.824
   454   8 o    1.843 --   456 h    0.853   455 h    0.812
   455   1 h    0.883 --   454 o    0.812
   456   1 h    0.896 --   454 o    0.853
   457   8 o    1.845 --   459 h    0.849   458 h    0.844
   458   1 h    0.894 --   457 o    0.844
   459   1 h    0.897 --   457 o    0.849
   460   8 o    1.849 --   461 h    0.908   462 h    0.807
   461   1 h    0.917 --   460 o    0.908
   462   1 h    0.881 --   460 o    0.807
   463   8 o    1.822 --   465 h    0.862   464 h    0.837
   464   1 h    0.893 --   463 o    0.837
   465   1 h    0.895 --   463 o    0.862
   466   8 o    1.817 --   467 h    0.834   468 h    0.824
   467   1 h    0.894 --   466 o    0.834
   468   1 h    0.882 --   466 o    0.824
   469   8 o    1.844 --   470 h    0.881   471 h    0.805
   470   1 h    0.901 --   469 o    0.881
   471   1 h    0.884 --   469 o    0.805
   472   8 o    1.858 --   474 h    0.794   473 h    0.791
   473   1 h    0.886 --   472 o    0.791
   474   1 h    0.884 --   472 o    0.794
   475   8 o    1.861 --   477 h    0.848   476 h    0.830
   476   1 h    0.883 --   475 o    0.830
   477   1 h    0.891 --   475 o    0.848
   478   8 o    1.848 --   480 h    0.876   479 h    0.826
   479   1 h    0.887 --   478 o    0.826
   480   1 h    0.897 --   478 o    0.876
   481   8 o    1.871 --   483 h    0.819   482 h    0.810
   482   1 h    0.883 --   481 o    0.810
   483   1 h    0.878 --   481 o    0.819
   484   8 o    1.838 --   486 h    0.858   485 h    0.837
   485   1 h    0.892 --   484 o    0.837
   486   1 h    0.895 --   484 o    0.858
   487   8 o    1.834 --   489 h    0.845   488 h    0.833
   488   1 h    0.890 --   487 o    0.833
   489   1 h    0.896 --   487 o    0.845
   490   8 o    1.847 --   492 h    0.881   491 h    0.770
   491   1 h    0.872 --   490 o    0.770
   492   1 h    0.901 --   490 o    0.881
   493   8 o    1.861 --   495 h    0.828   494 h    0.802
   494   1 h    0.880 --   493 o    0.802
   495   1 h    0.878 --   493 o    0.828
   496   8 o    1.870 --   497 h    0.839   498 h    0.769   597 h    0.100
   497   1 h    0.884 --   496 o    0.839
   498   1 h    0.871 --   496 o    0.769
   499   8 o    1.847 --   501 h    0.885   500 h    0.795
   500   1 h    0.873 --   499 o    0.795
   501   1 h    0.905 --   499 o    0.885
   502   8 o    1.859 --   503 h    0.862   504 h    0.820
   503   1 h    0.896 --   502 o    0.862
   504   1 h    0.884 --   502 o    0.820
   505   8 o    1.851 --   506 h    0.881   507 h    0.854
   506   1 h    0.900 --   505 o    0.881
   507   1 h    0.889 --   505 o    0.854
   508   8 o    1.848 --   510 h    0.852   509 h    0.842
   509   1 h    0.891 --   508 o    0.842
   510   1 h    0.893 --   508 o    0.852
   511   8 o    1.851 --   513 h    0.836   512 h    0.821
   512   1 h    0.883 --   511 o    0.821
   513   1 h    0.889 --   511 o    0.836
   514   8 o    1.879 --   515 h    0.873   516 h    0.839
   515   1 h    0.893 --   514 o    0.873
   516   1 h    0.886 --   514 o    0.839
   517   8 o    1.876 --   519 h    0.879   518 h    0.810
   518   1 h    0.880 --   517 o    0.810
   519   1 h    0.899 --   517 o    0.879
   520   8 o    1.869 --   521 h    0.862   522 h    0.853
   521   1 h    0.889 --   520 o    0.862
   522   1 h    0.894 --   520 o    0.853
   523   8 o    1.838 --   524 h    0.850   525 h    0.848
   524   1 h    0.890 --   523 o    0.850
   525   1 h    0.896 --   523 o    0.848
   526   8 o    1.847 --   528 h    0.840   527 h    0.812
   527   1 h    0.890 --   526 o    0.812
   528   1 h    0.889 --   526 o    0.840
   529   8 o    1.874 --   531 h    0.830   530 h    0.786
   530   1 h    0.871 --   529 o    0.786
   531   1 h    0.879 --   529 o    0.830
   532   8 o    1.869 --   534 h    0.903   533 h    0.844
   533   1 h    0.886 --   532 o    0.844
   534   1 h    0.910 --   532 o    0.903
   535   8 o    1.866 --   537 h    0.824   536 h    0.801
   536   1 h    0.874 --   535 o    0.801
   537   1 h    0.884 --   535 o    0.824
   538   8 o    1.853 --   539 h    0.857   540 h    0.823
   539   1 h    0.891 --   538 o    0.857
   540   1 h    0.882 --   538 o    0.823
   541   8 o    1.846 --   543 h    0.869   542 h    0.846
   542   1 h    0.890 --   541 o    0.846
   543   1 h    0.896 --   541 o    0.869
   544   8 o    1.855 --   545 h    0.839   546 h    0.819
   545   1 h    0.894 --   544 o    0.839
   546   1 h    0.880 --   544 o    0.819
   547   8 o    1.867 --   548 h    0.852   549 h    0.816
   548   1 h    0.890 --   547 o    0.852
   549   1 h    0.880 --   547 o    0.816
   550   8 o    1.845 --   552 h    0.851   551 h    0.831
   551   1 h    0.892 --   550 o    0.831
   552   1 h    0.891 --   550 o    0.851
   553   8 o    1.854 --   555 h    0.844   554 h    0.840
   554   1 h    0.885 --   553 o    0.840
   555   1 h    0.893 --   553 o    0.844
   556   8 o    1.859 --   557 h    0.874   558 h    0.805
   557   1 h    0.900 --   556 o    0.874
   558   1 h    0.888 --   556 o    0.805
   559   8 o    1.849 --   561 h    0.838   560 h    0.833
   560   1 h    0.890 --   559 o    0.833
   561   1 h    0.894 --   559 o    0.838
   562   8 o    1.825 --   564 h    0.869   563 h    0.810
   563   1 h    0.882 --   562 o    0.810
   564   1 h    0.899 --   562 o    0.869
   565   8 o    1.811 --   566 h    0.843   567 h    0.839
   566   1 h    0.893 --   565 o    0.843
   567   1 h    0.893 --   565 o    0.839
   568   8 o    1.808 --   569 h    0.853   570 h    0.837
   569   1 h    0.896 --   568 o    0.853
   570   1 h    0.887 --   568 o    0.837
   571   8 o    1.845 --   572 h    0.857   573 h    0.855
   572   1 h    0.894 --   571 o    0.857
   573   1 h    0.896 --   571 o    0.855
   574   8 o    1.850 --   575 h    0.858   576 h    0.843
   575   1 h    0.890 --   574 o    0.858
   576   1 h    0.893 --   574 o    0.843
   577   8 o    1.863 --   579 h    0.816   578 h    0.788
   578   1 h    0.874 --   577 o    0.788
   579   1 h    0.882 --   577 o    0.816
   580   8 o    1.851 --   581 h    0.898   582 h    0.809
   581   1 h    0.909 --   580 o    0.898
   582   1 h    0.880 --   580 o    0.809
   583   8 o    1.850 --   584 h    0.838   585 h    0.819
   584   1 h    0.893 --   583 o    0.838
   585   1 h    0.882 --   583 o    0.819
   586   8 o    1.867 --   587 h    0.865   588 h    0.820
   587   1 h    0.899 --   586 o    0.865
   588   1 h    0.889 --   586 o    0.820
   589   8 o    1.825 --   590 h    0.865   591 h    0.800
   590   1 h    0.896 --   589 o    0.865
   591   1 h    0.880 --   589 o    0.800
   592   8 o    1.863 --   594 h    0.864   593 h    0.804
   593   1 h    0.875 --   592 o    0.804
   594   1 h    0.897 --   592 o    0.864
   595   8 o    1.846 --   596 h    0.890   597 h    0.765
   596   1 h    0.908 --   595 o    0.890
   597   1 h    0.872 --   595 o    0.765   496 o    0.100
   598   8 o    1.830 --   599 h    0.897   600 h    0.798
   599   1 h    0.908 --   598 o    0.897
   600   1 h    0.874 --   598 o    0.798
   601   8 o    1.830 --   603 h    0.876   602 h    0.853
   602   1 h    0.894 --   601 o    0.853
   603   1 h    0.898 --   601 o    0.876
   604   8 o    1.815 --   605 h    0.857   606 h    0.834
   605   1 h    0.897 --   604 o    0.857
   606   1 h    0.886 --   604 o    0.834
   607   8 o    1.825 --   609 h    0.851   608 h    0.835
   608   1 h    0.894 --   607 o    0.835
   609   1 h    0.891 --   607 o    0.851
   610   8 o    1.843 --   612 h    0.868   611 h    0.852
   611   1 h    0.892 --   610 o    0.852
   612   1 h    0.895 --   610 o    0.868
   613   8 o    1.840 --   614 h    0.864   615 h    0.860
   614   1 h    0.900 --   613 o    0.864
   615   1 h    0.897 --   613 o    0.860
   616   8 o    1.842 --   617 h    0.871   618 h    0.843
   617   1 h    0.896 --   616 o    0.871
   618   1 h    0.889 --   616 o    0.843
   619   8 o    1.852 --   621 h    0.857   620 h    0.802
   620   1 h    0.875 --   619 o    0.802
   621   1 h    0.894 --   619 o    0.857
   622   8 o    1.836 --   623 h    0.911   624 h    0.807
   623   1 h    0.915 --   622 o    0.911
   624   1 h    0.883 --   622 o    0.807
   625   8 o    1.811 --   626 h    0.863   627 h    0.832
   626   1 h    0.896 --   625 o    0.863
   627   1 h    0.890 --   625 o    0.832
   628   8 o    1.819 --   630 h    0.886   629 h    0.814
   629   1 h    0.889 --   628 o    0.814
   630   1 h    0.904 --   628 o    0.886
   631   8 o    1.842 --   632 h    0.853   633 h    0.816
   632   1 h    0.885 --   631 o    0.853
   633   1 h    0.886 --   631 o    0.816
   634   8 o    1.843 --   636 h    0.900   635 h    0.790
   635   1 h    0.874 --   634 o    0.790
   636   1 h    0.913 --   634 o    0.900
   637   8 o    1.841 --   638 h    0.874   639 h    0.844
   638   1 h    0.896 --   637 o    0.874
   639   1 h    0.889 --   637 o    0.844
   640   8 o    1.837 --   642 h    0.868   641 h    0.808
   641   1 h    0.879 --   640 o    0.808
   642   1 h    0.894 --   640 o    0.868
   643   8 o    1.861 --   644 h    0.897   645 h    0.789
   644   1 h    0.910 --   643 o    0.897
   645   1 h    0.877 --   643 o    0.789
   646   8 o    1.876 --   648 h    0.827   647 h    0.811
   647   1 h    0.874 --   646 o    0.811
   648   1 h    0.881 --   646 o    0.827
   649   8 o    1.854 --   650 h    0.873   651 h    0.828
   650   1 h    0.900 --   649 o    0.873
   651   1 h    0.878 --   649 o    0.828
   652   8 o    1.861 --   654 h    0.848   653 h    0.825
   653   1 h    0.889 --   652 o    0.825
   654   1 h    0.889 --   652 o    0.848
   655   8 o    1.850 --   657 h    0.833   656 h    0.830
   656   1 h    0.890 --   655 o    0.830
   657   1 h    0.890 --   655 o    0.833
   658   8 o    1.842 --   660 h    0.865   659 h    0.824
   659   1 h    0.883 --   658 o    0.824
   660   1 h    0.897 --   658 o    0.865
   661   8 o    1.840 --   663 h    0.891   662 h    0.816
   662   1 h    0.881 --   661 o    0.816
   663   1 h    0.906 --   661 o    0.891
   664   8 o    1.854 --   666 h    0.823   665 h    0.815
   665   1 h    0.877 --   664 o    0.815
   666   1 h    0.878 --   664 o    0.823
   667   8 o    1.844 --   669 h    0.918   668 h    0.796
   668   1 h    0.883 --   667 o    0.796
   669   1 h    0.923 --   667 o    0.918
   670   8 o    1.826 --   671 h    0.841   672 h    0.827
   671   1 h    0.887 --   670 o    0.841
   672   1 h    0.892 --   670 o    0.827
   673   8 o    1.837 --   674 h    0.869   675 h    0.783
   674   1 h    0.895 --   673 o    0.869
   675   1 h    0.874 --   673 o    0.783
   676   8 o    1.854 --   677 h    0.842   678 h    0.821
   677   1 h    0.885 --   676 o    0.842
   678   1 h    0.882 --   676 o    0.821
   679   8 o    1.839 --   680 h    0.825   681 h    0.820
   680   1 h    0.886 --   679 o    0.825
   681   1 h    0.880 --   679 o    0.820
   682   8 o    1.857 --   683 h    0.857   684 h    0.856
   683   1 h    0.894 --   682 o    0.857
   684   1 h    0.889 --   682 o    0.856
   685   8 o    1.824 --   687 h    0.835   686 h    0.811
   686   1 h    0.884 --   685 o    0.811
   687   1 h    0.894 --   685 o    0.835
   688   8 o    1.859 --   690 h    0.807   689 h    0.806
   689   1 h    0.887 --   688 o    0.806
   690   1 h    0.879 --   688 o    0.807
   691   8 o    1.855 --   692 h    0.879   693 h    0.800
   692   1 h    0.897 --   691 o    0.879
   693   1 h    0.875 --   691 o    0.800
   694   8 o    1.873 --   695 h    0.824   696 h    0.780
   695   1 h    0.881 --   694 o    0.824
   696   1 h    0.871 --   694 o    0.780
   697   8 o    1.849 --   699 h    0.835   698 h    0.831
   698   1 h    0.884 --   697 o    0.831
   699   1 h    0.890 --   697 o    0.835
   700   8 o    1.838 --   702 h    0.877   701 h    0.872
   701   1 h    0.898 --   700 o    0.872
   702   1 h    0.900 --   700 o    0.877
   703   8 o    1.821 --   704 h    0.846   705 h    0.837
   704   1 h    0.896 --   703 o    0.846
   705   1 h    0.885 --   703 o    0.837
   706   8 o    1.834 --   708 h    0.911   707 h    0.802
   707   1 h    0.879 --   706 o    0.802
   708   1 h    0.917 --   706 o    0.911
   709   8 o    1.844 --   710 h    0.873   711 h    0.844
   710   1 h    0.897 --   709 o    0.873
   711   1 h    0.893 --   709 o    0.844
   712   8 o    1.891 --   714 h    0.864   713 h    0.822
   713   1 h    0.873 --   712 o    0.822
   714   1 h    0.884 --   712 o    0.864
   715   8 o    1.885 --   717 h    0.828   716 h    0.825
   716   1 h    0.880 --   715 o    0.825
   717   1 h    0.881 --   715 o    0.828
   718   8 o    1.863 --   720 h    0.852   719 h    0.846
   719   1 h    0.886 --   718 o    0.846
   720   1 h    0.893 --   718 o    0.852
   721   8 o    1.840 --   723 h    0.828   722 h    0.811
   722   1 h    0.878 --   721 o    0.811
   723   1 h    0.888 --   721 o    0.828
   724   8 o    1.850 --   726 h    0.828   725 h    0.825
   725   1 h    0.878 --   724 o    0.825
   726   1 h    0.890 --   724 o    0.828
   727   8 o    1.828 --   729 h    0.839   728 h    0.824
   728   1 h    0.891 --   727 o    0.824
   729   1 h    0.891 --   727 o    0.839
   730   8 o    1.868 --   731 h    0.864   732 h    0.855
   731   1 h    0.892 --   730 o    0.864
   732   1 h    0.888 --   730 o    0.855
   733   8 o    1.845 --   734 h    0.824   735 h    0.808
   734   1 h    0.888 --   733 o    0.824
   735   1 h    0.879 --   733 o    0.808
   736   8 o    1.883 --   737 h    0.859   738 h    0.804
   737   1 h    0.895 --   736 o    0.859
   738   1 h    0.882 --   736 o    0.804
   739   8 o    1.863 --   741 h    0.858   740 h    0.800
   740   1 h    0.875 --   739 o    0.800
   741   1 h    0.896 --   739 o    0.858
   742   8 o    1.861 --   744 h    0.827   743 h    0.813
   743   1 h    0.883 --   742 o    0.813
   744   1 h    0.887 --   742 o    0.827
   745   8 o    1.858 --   746 h    0.898   747 h    0.799
   746   1 h    0.907 --   745 o    0.898
   747   1 h    0.881 --   745 o    0.799
   748   8 o    1.861 --   750 h    0.858   749 h    0.806
   749   1 h    0.877 --   748 o    0.806
   750   1 h    0.896 --   748 o    0.858
   751   8 o    1.806 --   752 h    0.886   753 h    0.814
   752   1 h    0.901 --   751 o    0.886
   753   1 h    0.873 --   751 o    0.814
   754   8 o    1.821 --   756 h    0.885   755 h    0.814
   755   1 h    0.868 --   754 o    0.814
   756   1 h    0.898 --   754 o    0.885
 ---------------------------------------------------------------------------

Topologies differ in total number of bonds
Writing topology from bond orders to xtbtopo.mol

molecular dipole:
                 x           y           z       tot (Debye)
 q only:        1.921       0.970      -0.100
   full:        2.658       0.658       0.337       7.013
molecular quadrupole (traceless):
                xx          xy          yy          xz          yz          zz
 q only:       34.243      21.324      14.637     -78.778     -20.976     -48.880
  q+dip:       56.971      44.051      13.152     -98.014     -18.987     -70.123
   full:       58.772      44.682      12.711     -96.862     -17.754     -71.483


           -------------------------------------------------
          | TOTAL ENERGY            -1283.369176169399 Eh   |
          | GRADIENT NORM               0.023432033343 Eh/α |
          | HOMO-LUMO GAP               8.029661907574 eV   |
           -------------------------------------------------

------------------------------------------------------------------------
 * finished run on 2022/11/24 at 09:29:07.939     
------------------------------------------------------------------------
 total:
 * wall-time:     0 d,  0 h,  0 min, 57.866 sec
 *  cpu-time:     0 d,  0 h,  1 min, 13.091 sec
 * ratio c/w:     1.263 speedup
 SCF:
 * wall-time:     0 d,  0 h,  0 min, 56.832 sec
 *  cpu-time:     0 d,  0 h,  1 min, 11.366 sec
 * ratio c/w:     1.256 speedup

