      -----------------------------------------------------------      
     |                   =====================                   |     
     |                           x T B                           |     
     |                   =====================                   |     
     |                         S. Grimme                         |     
     |          Mulliken Center for Theoretical Chemistry        |     
     |                    University of Bonn                     |     
      -----------------------------------------------------------      

   * xtb version 6.5.1 (579679a) compiled by 'ehlert@majestix' on 2022-07-11

   xtb is free software: you can redistribute it and/or modify it under
   the terms of the GNU Lesser General Public License as published by
   the Free Software Foundation, either version 3 of the License, or
   (at your option) any later version.
   
   xtb is distributed in the hope that it will be useful,
   but WITHOUT ANY WARRANTY; without even the implied warranty of
   MERCHANTABILITY or FITNESS FOR A PARTICULAR PURPOSE.  See the
   GNU Lesser General Public License for more details.
   
   Cite this work as:
   * C. Bannwarth, E. Caldeweyher, S. Ehlert, A. Hansen, P. Pracht,
     J. Seibert, S. Spicher, S. Grimme, WIREs Comput. Mol. Sci., 2020, 11,
     e01493. DOI: 10.1002/wcms.1493
   
   for GFN2-xTB:
   * C. Bannwarth, S. Ehlert and S. Grimme., J. Chem. Theory Comput., 2019,
     15, 1652-1671. DOI: 10.1021/acs.jctc.8b01176
   for GFN1-xTB:
   * S. Grimme, C. Bannwarth, P. Shushkov, J. Chem. Theory Comput., 2017,
     13, 1989-2009. DOI: 10.1021/acs.jctc.7b00118
   for GFN0-xTB:
   * P. Pracht, E. Caldeweyher, S. Ehlert, S. Grimme, ChemRxiv, 2019, preprint.
     DOI: 10.26434/chemrxiv.8326202.v1
   for GFN-FF:
   * S. Spicher and S. Grimme, Angew. Chem. Int. Ed., 2020, 59, 15665-15673.
     DOI: 10.1002/anie.202004239
   
   for ALPB and GBSA implicit solvation:
   * S. Ehlert, M. Stahn, S. Spicher, S. Grimme, J. Chem. Theory Comput.,
     2021, 17, 4250-4261. DOI: 10.1021/acs.jctc.1c00471
   
   for DFT-D4:
   * E. Caldeweyher, C. Bannwarth and S. Grimme, J. Chem. Phys., 2017,
     147, 034112. DOI: 10.1063/1.4993215
   * E. Caldeweyher, S. Ehlert, A. Hansen, H. Neugebauer, S. Spicher,
     C. Bannwarth and S. Grimme, J. Chem. Phys., 2019, 150, 154122.
     DOI: 10.1063/1.5090222
   * E. Caldeweyher, J.-M. Mewes, S. Ehlert and S. Grimme, Phys. Chem. Chem. Phys.
     2020, 22, 8499-8512. DOI: 10.1039/D0CP00502A
   
   for sTDA-xTB:
   * S. Grimme and C. Bannwarth, J. Chem. Phys., 2016, 145, 054103.
     DOI: 10.1063/1.4959605
   
   in the mass-spec context:
   * V. Asgeirsson, C. Bauer and S. Grimme, Chem. Sci., 2017, 8, 4879.
     DOI: 10.1039/c7sc00601b
   * J. Koopman and S. Grimme, ACS Omega 2019, 4, 12, 15120-15133.
     DOI: 10.1021/acsomega.9b02011
   
   for metadynamics refer to:
   * S. Grimme, J. Chem. Theory Comput., 2019, 155, 2847-2862
     DOI: 10.1021/acs.jctc.9b00143
   
   for SPH calculations refer to:
   * S. Spicher and S. Grimme, J. Chem. Theory Comput., 2021, 17, 1701-1714
     DOI: 10.1021/acs.jctc.0c01306
   
   with help from (in alphabetical order)
   P. Atkinson, C. Bannwarth, F. Bohle, G. Brandenburg, E. Caldeweyher
   M. Checinski, S. Dohm, S. Ehlert, S. Ehrlich, I. Gerasimov, C. Hölzer
   A. Katbashev, J. Koopman, C. Lavigne, S. Lehtola, F. März, M. Müller,
   F. Musil, H. Neugebauer, J. Pisarek, C. Plett, P. Pracht, F. Pultar,
   J. Seibert, P. Shushkov, S. Spicher, M. Stahn, M. Steiner, T. Strunk,
   J. Stückrath, T. Rose, and J. Unsleber
   
 * started run on 2022/11/24 at 09:27:46.526     

           -------------------------------------------------
          |                Calculation Setup                |
           -------------------------------------------------

          program call               : xtb xtbopt.coord --gfn2 --sp --gbsa water
          hostname                   : cn0341
          coordinate file            : xtbopt.coord
          omp threads                :                     2

   ID    Z sym.   atoms
    1    8 o      1, 4, 7, 10, 13, 16, 19, 22, 25, 28, 31, 34, 37, 40, 43,
                  46, 49, 52, 55, 58, 61, 64, 67, 70, 73, 76, 79, 82, 85, 88,
                  91, 94, 97, 100, 103, 106, 109, 112, 115, 118, 121, 124,
                  127, 130, 133, 136, 139, 142, 145, 148, 151, 154, 157, 160,
                  163, 166, 169, 172, 175, 178, 181, 184, 187, 190, 193, 196,
                  199, 202, 205, 208, 211, 214, 217, 220, 223, 226, 229, 232,
                  235, 238, 241, 244, 247, 250, 253, 256, 259, 262, 265, 268,
                  271, 274, 277, 280, 283, 286, 289, 292, 295, 298, 301, 304,
                  307, 310, 313, 316, 319, 322, 325, 328, 331, 334, 337, 340,
                  343, 346, 349, 352, 355, 358, 361, 364, 367, 370, 373, 376,
                  379, 382, 385, 388, 391, 394, 397, 400, 403, 406, 409, 412,
                  415, 418, 421, 424, 427, 430, 433, 436, 439, 442, 445, 448,
                  451, 454, 457, 460, 463, 466, 469, 472, 475, 478, 481, 484,
                  487, 490, 493, 496, 499, 502, 505, 508, 511, 514, 517, 520,
                  523, 526, 529, 532, 535, 538, 541, 544, 547, 550, 553, 556,
                  559, 562, 565, 568, 571, 574, 577, 580, 583, 586, 589, 592,
                  595, 598, 601, 604, 607, 610, 613, 616, 619, 622, 625, 628,
                  631, 634, 637, 640, 643, 646, 649, 652, 655, 658, 661, 664,
                  667, 670, 673, 676, 679, 682, 685, 688, 691, 694, 697, 700,
                  703, 706, 709, 712, 715, 718, 721, 724, 727, 730, 733, 736,
                  739, 742, 745, 748, 751, 754
    2    1 h      2, 3, 5, 6, 8, 9, 11, 12, 14, 15, 17, 18, 20, 21, 23, 24,
                  26, 27, 29, 30, 32, 33, 35, 36, 38, 39, 41, 42, 44, 45, 47,
                  48, 50, 51, 53, 54, 56, 57, 59, 60, 62, 63, 65, 66, 68, 69,
                  71, 72, 74, 75, 77, 78, 80, 81, 83, 84, 86, 87, 89, 90, 92,
                  93, 95, 96, 98, 99, 101, 102, 104, 105, 107, 108, 110, 111,
                  113, 114, 116, 117, 119, 120, 122, 123, 125, 126, 128, 129,
                  131, 132, 134, 135, 137, 138, 140, 141, 143, 144, 146, 147,
                  149, 150, 152, 153, 155, 156, 158, 159, 161, 162, 164, 165,
                  167, 168, 170, 171, 173, 174, 176, 177, 179, 180, 182, 183,
                  185, 186, 188, 189, 191, 192, 194, 195, 197, 198, 200, 201,
                  203, 204, 206, 207, 209, 210, 212, 213, 215, 216, 218, 219,
                  221, 222, 224, 225, 227, 228, 230, 231, 233, 234, 236, 237,
                  239, 240, 242, 243, 245, 246, 248, 249, 251, 252, 254, 255,
                  257, 258, 260, 261, 263, 264, 266, 267, 269, 270, 272, 273,
                  275, 276, 278, 279, 281, 282, 284, 285, 287, 288, 290, 291,
                  293, 294, 296, 297, 299, 300, 302, 303, 305, 306, 308, 309,
                  311, 312, 314, 315, 317, 318, 320, 321, 323, 324, 326, 327,
                  329, 330, 332, 333, 335, 336, 338, 339, 341, 342, 344, 345,
                  347, 348, 350, 351, 353, 354, 356, 357, 359, 360, 362, 363,
                  365, 366, 368, 369, 371, 372, 374, 375, 377, 378, 380, 381,
                  383, 384, 386, 387, 389, 390, 392, 393, 395, 396, 398, 399,
                  401, 402, 404, 405, 407, 408, 410, 411, 413, 414, 416, 417,
                  419, 420, 422, 423, 425, 426, 428, 429, 431, 432, 434, 435,
                  437, 438, 440, 441, 443, 444, 446, 447, 449, 450, 452, 453,
                  455, 456, 458, 459, 461, 462, 464, 465, 467, 468, 470, 471,
                  473, 474, 476, 477, 479, 480, 482, 483, 485, 486, 488, 489,
                  491, 492, 494, 495, 497, 498, 500, 501, 503, 504, 506, 507,
                  509, 510, 512, 513, 515, 516, 518, 519, 521, 522, 524, 525,
                  527, 528, 530, 531, 533, 534, 536, 537, 539, 540, 542, 543,
                  545, 546, 548, 549, 551, 552, 554, 555, 557, 558, 560, 561,
                  563, 564, 566, 567, 569, 570, 572, 573, 575, 576, 578, 579,
                  581, 582, 584, 585, 587, 588, 590, 591, 593, 594, 596, 597,
                  599, 600, 602, 603, 605, 606, 608, 609, 611, 612, 614, 615,
                  617, 618, 620, 621, 623, 624, 626, 627, 629, 630, 632, 633,
                  635, 636, 638, 639, 641, 642, 644, 645, 647, 648, 650, 651,
                  653, 654, 656, 657, 659, 660, 662, 663, 665, 666, 668, 669,
                  671, 672, 674, 675, 677, 678, 680, 681, 683, 684, 686, 687,
                  689, 690, 692, 693, 695, 696, 698, 699, 701, 702, 704, 705,
                  707, 708, 710, 711, 713, 714, 716, 717, 719, 720, 722, 723,
                  725, 726, 728, 729, 731, 732, 734, 735, 737, 738, 740, 741,
                  743, 744, 746, 747, 749, 750, 752, 753, 755, 756

molecular fragmentation (1/2 indicates fragments):
111222222222222222222222222222222222222222222222222222222222222222222222
222222222222222222222222222222222222222222222222222222222222222222222222
222222222222222222222222222222222222222222222222222222222222222222222222
222222222222222222222222222222222222222222222222222222222222222222222222
222222222222222222222222222222222222222222222222222222222222222222222222
222222222222222222222222222222222222222222222222222222222222222222222222
222222222222222222222222222222222222222222222222222222222222222222222222
222222222222222222222222222222222222222222222222222222222222222222222222
222222222222222222222222222222222222222222222222222222222222222222222222
222222222222222222222222222222222222222222222222222222222222222222222222
222222222222222222222222222222222222
# atoms in fragment 1/2:     3   753
 fragment masses (1/2) :       18.02     4521.84
CMA distance (Bohr)    :  18.929
constraining FC (au)   :  0.0500

           -------------------------------------------------
          |                 G F N 2 - x T B                 |
           -------------------------------------------------

        Reference                      10.1021/acs.jctc.8b01176
      * Hamiltonian:
        H0-scaling (s, p, d)           1.850000    2.230000    2.230000
        zeta-weighting                 0.500000
      * Dispersion:
        s8                             2.700000
        a1                             0.520000
        a2                             5.000000
        s9                             5.000000
      * Repulsion:
        kExp                           1.500000    1.000000
        rExp                           1.000000
      * Coulomb:
        alpha                          2.000000
        third order                    shell-resolved
        anisotropic                    true
        a3                             3.000000
        a5                             4.000000
        cn-shift                       1.200000
        cn-exp                         4.000000
        max-rad                        5.000000

      * Solvation model:               GBSA
        Solvent                        water
        Parameter file                 internal GFN2-xTB/GBSA
        Dielectric constant                8.0200E+01
        Reference state                gsolv [1 M gas/solution]
        Free energy shift                  1.8574E-03 Eh       1.1656E+00 kcal/mol
        Temperature                        2.9815E+02 K
        Density                            1.0000E+00 kg/L
        Solvent mass                       1.8000E+01 g/mol
        Interaction kernel             Still
        Born radius scaling (c1)           1.5524E+00
        Born radii integrator          GBOBC
        Born offset                        2.4628E-02 a0       4.6540E-02 AA
        H-bond correction              true
        Ion screening                  false
        Surface tension                    1.0000E-05 Eh       1.5569E+01 dyn/cm
        Grid points                               230 per atom

          ...................................................
          :                      SETUP                      :
          :.................................................:
          :  # basis functions                1512          :
          :  # atomic orbitals                1512          :
          :  # shells                         1008          :
          :  # electrons                      2016          :
          :  max. iterations                   250          :
          :  Hamiltonian                  GFN2-xTB          :
          :  restarted?                      false          :
          :  GBSA solvation                   true          :
          :  PC potential                    false          :
          :  electronic temp.          300.0000000     K    :
          :  accuracy                    1.0000000          :
          :  -> integral cutoff          0.2500000E+02      :
          :  -> integral neglect         0.1000000E-07      :
          :  -> SCF convergence          0.1000000E-05 Eh   :
          :  -> wf. convergence          0.1000000E-03 e    :
          :  Broyden damping             0.4000000          :
          ...................................................

 iter      E             dE          RMSdq      gap      omega  full diag
   1  -1291.2932744 -0.129129E+04  0.409E+00    8.26       0.0  T
   2  -1291.3756379 -0.823636E-01  0.242E+00    8.16       1.0  T
   3  -1291.4112719 -0.356340E-01  0.224E-01    7.64       1.0  T
   4  -1291.4166722 -0.540028E-02  0.479E-02    7.78       1.0  T
   5  -1291.4168236 -0.151432E-03  0.308E-02    7.74       1.0  T
   6  -1291.4168748 -0.511358E-04  0.389E-03    7.73       1.0  T
   7  -1291.4168765 -0.177870E-05  0.992E-04    7.73       3.7  T
   8  -1291.4168767 -0.141871E-06  0.465E-04    7.73       7.8  T
   9  -1291.4168767 -0.388825E-07  0.144E-04    7.73      25.3  T

   *** convergence criteria satisfied after 9 iterations ***

         #    Occupation            Energy/Eh            Energy/eV
      -------------------------------------------------------------
         1        2.0000           -0.6514404             -17.7266
       ...           ...                  ...                  ...
      1002        2.0000           -0.3563686              -9.6973
      1003        2.0000           -0.3559721              -9.6865
      1004        2.0000           -0.3553597              -9.6698
      1005        2.0000           -0.3548421              -9.6557
      1006        2.0000           -0.3542956              -9.6409
      1007        2.0000           -0.3501671              -9.5285
      1008        2.0000           -0.3425694              -9.3218 (HOMO)
      1009                         -0.0585591              -1.5935 (LUMO)
      1010                         -0.0502956              -1.3686
      1011                         -0.0413471              -1.1251
      1012                         -0.0369110              -1.0044
      1013                         -0.0318378              -0.8664
       ...                                ...                  ...
      1512                          0.4865740              13.2404
      -------------------------------------------------------------
                  HL-Gap            0.2840102 Eh            7.7283 eV
             Fermi-level           -0.2005643 Eh           -5.4576 eV

 SCC (total)                   0 d,  0 h,  0 min, 21.829 sec
 SCC setup                      ...        0 min,  0.118 sec (  0.541%)
 Dispersion                     ...        0 min,  0.118 sec (  0.539%)
 classical contributions        ...        0 min,  0.023 sec (  0.108%)
 integral evaluation            ...        0 min,  0.628 sec (  2.878%)
 iterations                     ...        0 min,  8.251 sec ( 37.797%)
 molecular gradient             ...        0 min, 12.618 sec ( 57.802%)
 printout                       ...        0 min,  0.073 sec (  0.336%)

         :::::::::::::::::::::::::::::::::::::::::::::::::::::
         ::                     SUMMARY                     ::
         :::::::::::::::::::::::::::::::::::::::::::::::::::::
         :: total energy           -1283.627459312038 Eh    ::
         :: total w/o Gsasa/hb     -1283.406632593761 Eh    ::
         :: gradient norm              0.100599428028 Eh/a0 ::
         :: HOMO-LUMO gap              7.728311570914 eV    ::
         ::.................................................::
         :: SCC energy             -1291.416876719743 Eh    ::
         :: -> isotropic ES            7.346047073186 Eh    ::
         :: -> anisotropic ES         -1.655951918904 Eh    ::
         :: -> anisotropic XC         -0.119094807174 Eh    ::
         :: -> dispersion             -0.800015717975 Eh    ::
         :: -> Gsolv                  -0.282215615429 Eh    ::
         ::    -> Gelec               -0.061388897152 Eh    ::
         ::    -> Gsasa                0.007669236348 Eh    ::
         ::    -> Ghb                 -0.230353397752 Eh    ::
         ::    -> Gshift               0.001857443127 Eh    ::
         :: repulsion energy           7.630179289276 Eh    ::
         :: add. restraining           0.000000000000 Eh    ::
         :: total charge              -0.000000000000 e     ::
         :::::::::::::::::::::::::::::::::::::::::::::::::::::

           -------------------------------------------------
          |                Property Printout                |
           -------------------------------------------------

    * Orbital Energies and Occupations

         #    Occupation            Energy/Eh            Energy/eV
      -------------------------------------------------------------
         1        2.0000           -0.6514404             -17.7266
       ...           ...                  ...                  ...
       996        2.0000           -0.3596388              -9.7863
       997        2.0000           -0.3586550              -9.7595
       998        2.0000           -0.3581478              -9.7457
       999        2.0000           -0.3576710              -9.7327
      1000        2.0000           -0.3573993              -9.7253
      1001        2.0000           -0.3570728              -9.7164
      1002        2.0000           -0.3563686              -9.6973
      1003        2.0000           -0.3559721              -9.6865
      1004        2.0000           -0.3553597              -9.6698
      1005        2.0000           -0.3548421              -9.6557
      1006        2.0000           -0.3542956              -9.6409
      1007        2.0000           -0.3501671              -9.5285
      1008        2.0000           -0.3425694              -9.3218 (HOMO)
      1009                         -0.0585591              -1.5935 (LUMO)
      1010                         -0.0502956              -1.3686
      1011                         -0.0413471              -1.1251
      1012                         -0.0369110              -1.0044
      1013                         -0.0318378              -0.8664
      1014                         -0.0221381              -0.6024
      1015                         -0.0210300              -0.5723
      1016                         -0.0136139              -0.3705
      1017                         -0.0115311              -0.3138
      1018                         -0.0098433              -0.2678
      1019                         -0.0035584              -0.0968
       ...                                ...                  ...
      1512                          0.4865740              13.2404
      -------------------------------------------------------------
                  HL-Gap            0.2840102 Eh            7.7283 eV
             Fermi-level           -0.2005643 Eh           -5.4576 eV

     #   Z          covCN         q      C6AA      α(0)
     1   8 o        1.608    -0.681    27.198     7.039
     2   1 h        0.803     0.335     0.624     1.241
     3   1 h        0.805     0.326     0.648     1.264
     4   8 o        1.607    -0.694    27.560     7.085
     5   1 h        0.804     0.344     0.603     1.220
     6   1 h        0.803     0.353     0.582     1.199
     7   8 o        1.604    -0.719    28.232     7.171
     8   1 h        0.803     0.362     0.562     1.178
     9   1 h        0.803     0.367     0.551     1.166
    10   8 o        1.606    -0.698    27.651     7.097
    11   1 h        0.803     0.351     0.587     1.203
    12   1 h        0.803     0.349     0.592     1.208
    13   8 o        1.606    -0.709    27.946     7.135
    14   1 h        0.803     0.356     0.576     1.192
    15   1 h        0.804     0.351     0.585     1.201
    16   8 o        1.606    -0.684    27.278     7.049
    17   1 h        0.802     0.361     0.563     1.179
    18   1 h        0.804     0.335     0.624     1.240
    19   8 o        1.608    -0.693    27.529     7.081
    20   1 h        0.804     0.344     0.603     1.220
    21   1 h        0.804     0.344     0.602     1.219
    22   8 o        1.608    -0.690    27.451     7.071
    23   1 h        0.805     0.333     0.629     1.246
    24   1 h        0.804     0.350     0.589     1.205
    25   8 o        1.608    -0.671    26.939     7.005
    26   1 h        0.804     0.350     0.587     1.204
    27   1 h        0.804     0.331     0.634     1.251
    28   8 o        1.606    -0.708    27.938     7.134
    29   1 h        0.803     0.348     0.593     1.210
    30   1 h        0.804     0.335     0.625     1.242
    31   8 o        1.608    -0.689    27.419     7.067
    32   1 h        0.803     0.357     0.573     1.189
    33   1 h        0.805     0.348     0.592     1.209
    34   8 o        1.607    -0.678    27.140     7.031
    35   1 h        0.804     0.345     0.599     1.216
    36   1 h        0.803     0.358     0.570     1.186
    37   8 o        1.607    -0.698    27.661     7.098
    38   1 h        0.803     0.359     0.567     1.183
    39   1 h        0.804     0.328     0.644     1.260
    40   8 o        1.607    -0.678    27.133     7.030
    41   1 h        0.804     0.357     0.571     1.187
    42   1 h        0.803     0.338     0.617     1.234
    43   8 o        1.608    -0.686    27.334     7.056
    44   1 h        0.803     0.343     0.605     1.222
    45   1 h        0.803     0.363     0.559     1.175
    46   8 o        1.607    -0.671    26.953     7.007
    47   1 h        0.804     0.324     0.653     1.270
    48   1 h        0.803     0.352     0.584     1.200
    49   8 o        1.608    -0.696    27.594     7.090
    50   1 h        0.804     0.339     0.614     1.231
    51   1 h        0.804     0.341     0.611     1.228
    52   8 o        1.608    -0.670    26.919     7.003
    53   1 h        0.803     0.329     0.640     1.257
    54   1 h        0.804     0.347     0.596     1.213
    55   8 o        1.606    -0.700    27.718     7.106
    56   1 h        0.803     0.337     0.619     1.236
    57   1 h        0.803     0.352     0.584     1.200
    58   8 o        1.609    -0.686    27.343     7.057
    59   1 h        0.805     0.332     0.632     1.249
    60   1 h        0.804     0.341     0.609     1.226
    61   8 o        1.605    -0.697    27.639     7.095
    62   1 h        0.802     0.355     0.578     1.194
    63   1 h        0.803     0.326     0.649     1.265
    64   8 o        1.609    -0.675    27.066     7.022
    65   1 h        0.804     0.372     0.540     1.155
    66   1 h        0.804     0.348     0.592     1.209
    67   8 o        1.610    -0.685    27.325     7.055
    68   1 h        0.805     0.334     0.626     1.243
    69   1 h        0.804     0.350     0.588     1.204
    70   8 o        1.607    -0.673    27.010     7.014
    71   1 h        0.804     0.355     0.576     1.192
    72   1 h        0.803     0.341     0.610     1.227
    73   8 o        1.609    -0.667    26.853     6.994
    74   1 h        0.804     0.346     0.598     1.215
    75   1 h        0.805     0.341     0.610     1.227
    76   8 o        1.607    -0.682    27.248     7.045
    77   1 h        0.804     0.342     0.607     1.224
    78   1 h        0.803     0.360     0.566     1.182
    79   8 o        1.610    -0.655    26.545     6.954
    80   1 h        0.805     0.321     0.660     1.276
    81   1 h        0.805     0.330     0.637     1.253
    82   8 o        1.609    -0.707    27.894     7.128
    83   1 h        0.803     0.355     0.576     1.192
    84   1 h        0.804     0.343     0.605     1.222
    85   8 o        1.607    -0.670    26.930     7.004
    86   1 h        0.804     0.324     0.654     1.270
    87   1 h        0.804     0.343     0.606     1.222
    88   8 o        1.606    -0.694    27.557     7.085
    89   1 h        0.803     0.355     0.578     1.194
    90   1 h        0.803     0.345     0.601     1.218
    91   8 o        1.607    -0.677    27.095     7.025
    92   1 h        0.806     0.308     0.698     1.312
    93   1 h        0.801     0.364     0.557     1.172
    94   8 o        1.608    -0.695    27.575     7.087
    95   1 h        0.804     0.333     0.629     1.246
    96   1 h        0.804     0.339     0.614     1.231
    97   8 o        1.608    -0.672    26.982     7.011
    98   1 h        0.803     0.360     0.565     1.181
    99   1 h        0.806     0.296     0.732     1.344
   100   8 o        1.608    -0.674    27.019     7.016
   101   1 h        0.804     0.316     0.674     1.290
   102   1 h        0.803     0.362     0.561     1.177
   103   8 o        1.607    -0.694    27.544     7.083
   104   1 h        0.803     0.353     0.582     1.199
   105   1 h        0.804     0.350     0.588     1.205
   106   8 o        1.607    -0.677    27.114     7.028
   107   1 h        0.804     0.333     0.629     1.245
   108   1 h        0.803     0.358     0.570     1.186
   109   8 o        1.609    -0.668    26.873     6.996
   110   1 h        0.804     0.343     0.604     1.221
   111   1 h        0.804     0.358     0.569     1.185
   112   8 o        1.609    -0.667    26.836     6.992
   113   1 h        0.804     0.348     0.592     1.209
   114   1 h        0.805     0.330     0.637     1.253
   115   8 o        1.608    -0.679    27.148     7.032
   116   1 h        0.803     0.349     0.591     1.207
   117   1 h        0.805     0.338     0.618     1.235
   118   8 o        1.607    -0.698    27.652     7.097
   119   1 h        0.805     0.352     0.583     1.200
   120   1 h        0.803     0.361     0.564     1.179
   121   8 o        1.606    -0.696    27.597     7.090
   122   1 h        0.803     0.367     0.551     1.166
   123   1 h        0.803     0.327     0.646     1.263
   124   8 o        1.609    -0.684    27.278     7.049
   125   1 h        0.804     0.320     0.663     1.279
   126   1 h        0.804     0.349     0.592     1.208
   127   8 o        1.608    -0.697    27.641     7.096
   128   1 h        0.803     0.354     0.580     1.196
   129   1 h        0.804     0.362     0.560     1.176
   130   8 o        1.606    -0.692    27.488     7.076
   131   1 h        0.803     0.364     0.557     1.172
   132   1 h        0.803     0.329     0.641     1.258
   133   8 o        1.607    -0.692    27.506     7.078
   134   1 h        0.805     0.333     0.630     1.246
   135   1 h        0.803     0.365     0.556     1.171
   136   8 o        1.608    -0.691    27.473     7.074
   137   1 h        0.804     0.347     0.595     1.212
   138   1 h        0.804     0.346     0.599     1.215
   139   8 o        1.608    -0.679    27.146     7.032
   140   1 h        0.803     0.357     0.573     1.189
   141   1 h        0.805     0.342     0.607     1.224
   142   8 o        1.607    -0.667    26.845     6.993
   143   1 h        0.804     0.324     0.654     1.270
   144   1 h        0.803     0.340     0.611     1.228
   145   8 o        1.607    -0.685    27.325     7.055
   146   1 h        0.804     0.323     0.657     1.273
   147   1 h        0.803     0.353     0.581     1.197
   148   8 o        1.608    -0.679    27.160     7.034
   149   1 h        0.804     0.366     0.552     1.167
   150   1 h        0.803     0.334     0.626     1.243
   151   8 o        1.608    -0.668    26.873     6.996
   152   1 h        0.804     0.357     0.573     1.189
   153   1 h        0.804     0.329     0.641     1.257
   154   8 o        1.607    -0.698    27.657     7.098
   155   1 h        0.803     0.342     0.606     1.223
   156   1 h        0.804     0.351     0.587     1.203
   157   8 o        1.607    -0.659    26.641     6.966
   158   1 h        0.806     0.303     0.711     1.324
   159   1 h        0.801     0.348     0.592     1.209
   160   8 o        1.608    -0.680    27.176     7.036
   161   1 h        0.804     0.351     0.586     1.203
   162   1 h        0.804     0.352     0.583     1.200
   163   8 o        1.609    -0.689    27.428     7.068
   164   1 h        0.805     0.331     0.634     1.251
   165   1 h        0.804     0.354     0.578     1.194
   166   8 o        1.609    -0.681    27.201     7.039
   167   1 h        0.804     0.348     0.593     1.210
   168   1 h        0.805     0.336     0.622     1.239
   169   8 o        1.603    -0.710    27.972     7.138
   170   1 h        0.802     0.370     0.543     1.158
   171   1 h        0.803     0.334     0.628     1.245
   172   8 o        1.609    -0.682    27.247     7.045
   173   1 h        0.804     0.348     0.593     1.210
   174   1 h        0.805     0.338     0.616     1.233
   175   8 o        1.606    -0.682    27.246     7.045
   176   1 h        0.803     0.358     0.569     1.186
   177   1 h        0.804     0.325     0.651     1.267
   178   8 o        1.608    -0.699    27.694     7.102
   179   1 h        0.804     0.342     0.609     1.225
   180   1 h        0.802     0.353     0.581     1.198
   181   8 o        1.607    -0.692    27.501     7.078
   182   1 h        0.804     0.320     0.664     1.280
   183   1 h        0.803     0.355     0.577     1.194
   184   8 o        1.606    -0.704    27.829     7.120
   185   1 h        0.802     0.356     0.575     1.191
   186   1 h        0.804     0.345     0.599     1.216
   187   8 o        1.610    -0.643    26.249     6.915
   188   1 h        0.805     0.328     0.642     1.258
   189   1 h        0.805     0.332     0.631     1.248
   190   8 o        1.608    -0.680    27.189     7.037
   191   1 h        0.803     0.348     0.593     1.209
   192   1 h        0.805     0.324     0.652     1.269
   193   8 o        1.610    -0.662    26.718     6.976
   194   1 h        0.805     0.319     0.666     1.282
   195   1 h        0.804     0.342     0.606     1.223
   196   8 o        1.609    -0.678    27.127     7.029
   197   1 h        0.805     0.337     0.620     1.237
   198   1 h        0.804     0.333     0.629     1.246
   199   8 o        1.606    -0.708    27.938     7.134
   200   1 h        0.803     0.332     0.631     1.248
   201   1 h        0.804     0.347     0.595     1.211
   202   8 o        1.609    -0.663    26.734     6.978
   203   1 h        0.804     0.318     0.668     1.284
   204   1 h        0.804     0.348     0.592     1.209
   205   8 o        1.608    -0.659    26.648     6.967
   206   1 h        0.805     0.326     0.647     1.264
   207   1 h        0.803     0.344     0.603     1.220
   208   8 o        1.607    -0.701    27.725     7.107
   209   1 h        0.803     0.337     0.619     1.236
   210   1 h        0.804     0.335     0.625     1.242
   211   8 o        1.606    -0.693    27.534     7.082
   212   1 h        0.803     0.366     0.552     1.167
   213   1 h        0.804     0.343     0.605     1.222
   214   8 o        1.609    -0.680    27.176     7.036
   215   1 h        0.805     0.347     0.595     1.211
   216   1 h        0.803     0.358     0.569     1.185
   217   8 o        1.608    -0.694    27.555     7.085
   218   1 h        0.803     0.351     0.585     1.202
   219   1 h        0.804     0.342     0.607     1.224
   220   8 o        1.611    -0.671    26.941     7.005
   221   1 h        0.804     0.358     0.571     1.187
   222   1 h        0.804     0.324     0.652     1.269
   223   8 o        1.608    -0.678    27.132     7.030
   224   1 h        0.805     0.348     0.594     1.210
   225   1 h        0.803     0.332     0.632     1.249
   226   8 o        1.608    -0.687    27.366     7.060
   227   1 h        0.804     0.362     0.561     1.176
   228   1 h        0.804     0.354     0.579     1.196
   229   8 o        1.607    -0.690    27.445     7.070
   230   1 h        0.803     0.331     0.634     1.251
   231   1 h        0.803     0.361     0.563     1.178
   232   8 o        1.607    -0.693    27.515     7.079
   233   1 h        0.803     0.364     0.557     1.173
   234   1 h        0.804     0.342     0.608     1.225
   235   8 o        1.608    -0.674    27.019     7.015
   236   1 h        0.803     0.354     0.579     1.196
   237   1 h        0.805     0.329     0.641     1.258
   238   8 o        1.610    -0.664    26.764     6.982
   239   1 h        0.805     0.326     0.647     1.263
   240   1 h        0.804     0.343     0.605     1.222
   241   8 o        1.610    -0.655    26.532     6.952
   242   1 h        0.805     0.314     0.681     1.296
   243   1 h        0.804     0.340     0.613     1.230
   244   8 o        1.607    -0.669    26.891     6.999
   245   1 h        0.802     0.341     0.609     1.226
   246   1 h        0.805     0.321     0.660     1.276
   247   8 o        1.605    -0.701    27.748     7.109
   248   1 h        0.804     0.337     0.619     1.236
   249   1 h        0.802     0.366     0.553     1.168
   250   8 o        1.607    -0.693    27.514     7.079
   251   1 h        0.804     0.329     0.640     1.257
   252   1 h        0.804     0.335     0.624     1.241
   253   8 o        1.609    -0.677    27.096     7.026
   254   1 h        0.803     0.360     0.565     1.181
   255   1 h        0.805     0.324     0.654     1.270
   256   8 o        1.608    -0.690    27.451     7.071
   257   1 h        0.804     0.358     0.570     1.186
   258   1 h        0.803     0.350     0.588     1.204
   259   8 o        1.609    -0.657    26.599     6.961
   260   1 h        0.805     0.340     0.612     1.229
   261   1 h        0.804     0.330     0.637     1.254
   262   8 o        1.608    -0.684    27.299     7.052
   263   1 h        0.803     0.345     0.600     1.217
   264   1 h        0.805     0.331     0.635     1.252
   265   8 o        1.608    -0.678    27.122     7.029
   266   1 h        0.804     0.349     0.590     1.207
   267   1 h        0.804     0.324     0.653     1.269
   268   8 o        1.609    -0.671    26.950     7.007
   269   1 h        0.804     0.339     0.615     1.232
   270   1 h        0.805     0.319     0.666     1.282
   271   8 o        1.604    -0.718    28.200     7.167
   272   1 h        0.802     0.364     0.556     1.172
   273   1 h        0.803     0.350     0.588     1.205
   274   8 o        1.608    -0.681    27.202     7.039
   275   1 h        0.804     0.343     0.605     1.222
   276   1 h        0.804     0.356     0.575     1.191
   277   8 o        1.607    -0.673    27.013     7.015
   278   1 h        0.803     0.334     0.628     1.244
   279   1 h        0.803     0.361     0.563     1.179
   280   8 o        1.608    -0.693    27.529     7.081
   281   1 h        0.804     0.361     0.562     1.178
   282   1 h        0.804     0.328     0.642     1.259
   283   8 o        1.609    -0.666    26.812     6.989
   284   1 h        0.805     0.327     0.646     1.262
   285   1 h        0.804     0.351     0.585     1.201
   286   8 o        1.606    -0.693    27.536     7.082
   287   1 h        0.804     0.337     0.620     1.237
   288   1 h        0.803     0.350     0.588     1.205
   289   8 o        1.608    -0.684    27.294     7.051
   290   1 h        0.804     0.335     0.624     1.241
   291   1 h        0.804     0.369     0.547     1.161
   292   8 o        1.607    -0.676    27.087     7.024
   293   1 h        0.805     0.318     0.670     1.286
   294   1 h        0.802     0.370     0.544     1.159
   295   8 o        1.608    -0.669    26.908     7.001
   296   1 h        0.804     0.338     0.618     1.235
   297   1 h        0.804     0.334     0.626     1.243
   298   8 o        1.610    -0.688    27.381     7.062
   299   1 h        0.805     0.335     0.626     1.242
   300   1 h        0.804     0.341     0.610     1.227
   301   8 o        1.608    -0.661    26.703     6.974
   302   1 h        0.804     0.321     0.661     1.277
   303   1 h        0.804     0.324     0.653     1.270
   304   8 o        1.608    -0.659    26.647     6.967
   305   1 h        0.806     0.312     0.686     1.301
   306   1 h        0.803     0.356     0.576     1.192
   307   8 o        1.608    -0.676    27.090     7.025
   308   1 h        0.804     0.342     0.607     1.223
   309   1 h        0.804     0.355     0.576     1.192
   310   8 o        1.608    -0.677    27.102     7.026
   311   1 h        0.804     0.343     0.605     1.222
   312   1 h        0.804     0.334     0.628     1.245
   313   8 o        1.607    -0.698    27.670     7.099
   314   1 h        0.803     0.342     0.607     1.224
   315   1 h        0.804     0.335     0.626     1.243
   316   8 o        1.606    -0.674    27.031     7.017
   317   1 h        0.802     0.337     0.620     1.237
   318   1 h        0.803     0.336     0.621     1.238
   319   8 o        1.610    -0.666    26.823     6.990
   320   1 h        0.804     0.348     0.593     1.209
   321   1 h        0.805     0.325     0.650     1.266
   322   8 o        1.604    -0.687    27.374     7.061
   323   1 h        0.803     0.331     0.636     1.253
   324   1 h        0.802     0.356     0.574     1.190
   325   8 o        1.609    -0.677    27.116     7.028
   326   1 h        0.804     0.346     0.597     1.213
   327   1 h        0.805     0.321     0.662     1.278
   328   8 o        1.608    -0.672    26.981     7.010
   329   1 h        0.803     0.362     0.561     1.176
   330   1 h        0.805     0.322     0.660     1.276
   331   8 o        1.606    -0.684    27.302     7.052
   332   1 h        0.805     0.325     0.650     1.266
   333   1 h        0.802     0.365     0.555     1.170
   334   8 o        1.608    -0.682    27.225     7.042
   335   1 h        0.803     0.349     0.590     1.207
   336   1 h        0.805     0.330     0.637     1.254
   337   8 o        1.606    -0.724    28.350     7.186
   338   1 h        0.803     0.348     0.592     1.209
   339   1 h        0.803     0.334     0.628     1.245
   340   8 o        1.609    -0.697    27.621     7.093
   341   1 h        0.805     0.339     0.615     1.232
   342   1 h        0.804     0.339     0.615     1.232
   343   8 o        1.604    -0.716    28.150     7.161
   344   1 h        0.803     0.315     0.678     1.294
   345   1 h        0.803     0.370     0.543     1.158
   346   8 o        1.606    -0.704    27.806     7.117
   347   1 h        0.803     0.349     0.590     1.206
   348   1 h        0.803     0.351     0.586     1.203
   349   8 o        1.607    -0.700    27.704     7.104
   350   1 h        0.804     0.336     0.621     1.238
   351   1 h        0.803     0.347     0.597     1.213
   352   8 o        1.609    -0.666    26.827     6.991
   353   1 h        0.804     0.348     0.594     1.211
   354   1 h        0.805     0.317     0.671     1.287
   355   8 o        1.608    -0.686    27.339     7.057
   356   1 h        0.803     0.344     0.602     1.219
   357   1 h        0.805     0.323     0.657     1.273
   358   8 o        1.608    -0.688    27.402     7.065
   359   1 h        0.804     0.337     0.619     1.236
   360   1 h        0.805     0.320     0.665     1.281
   361   8 o        1.605    -0.687    27.369     7.061
   362   1 h        0.801     0.355     0.577     1.193
   363   1 h        0.806     0.308     0.697     1.311
   364   8 o        1.607    -0.692    27.495     7.077
   365   1 h        0.803     0.346     0.597     1.213
   366   1 h        0.804     0.345     0.600     1.217
   367   8 o        1.609    -0.665    26.799     6.987
   368   1 h        0.805     0.315     0.678     1.293
   369   1 h        0.804     0.358     0.569     1.185
   370   8 o        1.608    -0.671    26.938     7.005
   371   1 h        0.804     0.355     0.576     1.192
   372   1 h        0.805     0.330     0.636     1.253
   373   8 o        1.610    -0.665    26.791     6.986
   374   1 h        0.805     0.323     0.656     1.272
   375   1 h        0.804     0.341     0.610     1.227
   376   8 o        1.606    -0.682    27.241     7.044
   377   1 h        0.804     0.350     0.588     1.205
   378   1 h        0.802     0.348     0.594     1.211
   379   8 o        1.607    -0.696    27.599     7.090
   380   1 h        0.804     0.327     0.646     1.262
   381   1 h        0.803     0.370     0.544     1.159
   382   8 o        1.608    -0.688    27.386     7.063
   383   1 h        0.805     0.327     0.644     1.260
   384   1 h        0.803     0.355     0.577     1.193
   385   8 o        1.608    -0.654    26.521     6.950
   386   1 h        0.802     0.354     0.578     1.195
   387   1 h        0.806     0.313     0.683     1.298
   388   8 o        1.608    -0.692    27.503     7.078
   389   1 h        0.804     0.326     0.648     1.264
   390   1 h        0.804     0.330     0.638     1.254
   391   8 o        1.607    -0.686    27.335     7.056
   392   1 h        0.805     0.322     0.659     1.275
   393   1 h        0.802     0.353     0.582     1.198
   394   8 o        1.608    -0.694    27.540     7.083
   395   1 h        0.803     0.363     0.559     1.174
   396   1 h        0.805     0.336     0.621     1.238
   397   8 o        1.605    -0.707    27.887     7.127
   398   1 h        0.803     0.345     0.600     1.217
   399   1 h        0.803     0.354     0.579     1.196
   400   8 o        1.606    -0.681    27.221     7.042
   401   1 h        0.805     0.327     0.646     1.263
   402   1 h        0.802     0.340     0.612     1.229
   403   8 o        1.605    -0.708    27.937     7.134
   404   1 h        0.804     0.329     0.641     1.257
   405   1 h        0.802     0.360     0.566     1.181
   406   8 o        1.607    -0.690    27.438     7.070
   407   1 h        0.803     0.335     0.625     1.242
   408   1 h        0.803     0.360     0.566     1.181
   409   8 o        1.606    -0.672    26.990     7.012
   410   1 h        0.803     0.345     0.600     1.217
   411   1 h        0.803     0.327     0.645     1.261
   412   8 o        1.607    -0.693    27.521     7.080
   413   1 h        0.802     0.356     0.574     1.190
   414   1 h        0.803     0.360     0.566     1.182
   415   8 o        1.609    -0.661    26.706     6.975
   416   1 h        0.804     0.330     0.637     1.254
   417   1 h        0.804     0.340     0.612     1.229
   418   8 o        1.607    -0.678    27.142     7.031
   419   1 h        0.804     0.334     0.628     1.245
   420   1 h        0.802     0.331     0.634     1.251
   421   8 o        1.608    -0.695    27.580     7.088
   422   1 h        0.803     0.355     0.578     1.194
   423   1 h        0.804     0.328     0.643     1.259
   424   8 o        1.609    -0.655    26.538     6.953
   425   1 h        0.805     0.321     0.662     1.278
   426   1 h        0.804     0.342     0.607     1.223
   427   8 o        1.606    -0.706    27.865     7.124
   428   1 h        0.804     0.338     0.618     1.235
   429   1 h        0.804     0.370     0.543     1.157
   430   8 o        1.607    -0.687    27.373     7.061
   431   1 h        0.803     0.357     0.572     1.188
   432   1 h        0.804     0.344     0.603     1.220
   433   8 o        1.607    -0.652    26.468     6.943
   434   1 h        0.806     0.308     0.699     1.313
   435   1 h        0.802     0.345     0.601     1.218
   436   8 o        1.606    -0.696    27.611     7.092
   437   1 h        0.803     0.348     0.592     1.209
   438   1 h        0.803     0.365     0.555     1.170
   439   8 o        1.608    -0.691    27.481     7.075
   440   1 h        0.804     0.324     0.653     1.270
   441   1 h        0.804     0.358     0.571     1.187
   442   8 o        1.609    -0.653    26.493     6.947
   443   1 h        0.805     0.327     0.646     1.262
   444   1 h        0.804     0.344     0.602     1.219
   445   8 o        1.608    -0.678    27.126     7.029
   446   1 h        0.805     0.331     0.634     1.251
   447   1 h        0.804     0.363     0.560     1.175
   448   8 o        1.609    -0.669    26.902     7.000
   449   1 h        0.804     0.349     0.591     1.207
   450   1 h        0.804     0.336     0.623     1.240
   451   8 o        1.607    -0.672    26.973     7.009
   452   1 h        0.803     0.361     0.562     1.178
   453   1 h        0.804     0.336     0.623     1.240
   454   8 o        1.607    -0.676    27.092     7.025
   455   1 h        0.802     0.339     0.615     1.232
   456   1 h        0.804     0.327     0.645     1.262
   457   8 o        1.608    -0.685    27.314     7.054
   458   1 h        0.803     0.331     0.634     1.251
   459   1 h        0.804     0.336     0.623     1.240
   460   8 o        1.608    -0.669    26.899     7.000
   461   1 h        0.806     0.316     0.673     1.289
   462   1 h        0.802     0.349     0.591     1.207
   463   8 o        1.608    -0.683    27.263     7.047
   464   1 h        0.804     0.333     0.630     1.246
   465   1 h        0.804     0.333     0.630     1.247
   466   8 o        1.609    -0.683    27.273     7.048
   467   1 h        0.804     0.314     0.681     1.296
   468   1 h        0.804     0.353     0.582     1.199
   469   8 o        1.607    -0.681    27.219     7.041
   470   1 h        0.805     0.319     0.665     1.281
   471   1 h        0.802     0.351     0.586     1.203
   472   8 o        1.603    -0.699    27.675     7.100
   473   1 h        0.802     0.332     0.633     1.250
   474   1 h        0.802     0.347     0.596     1.213
   475   8 o        1.608    -0.663    26.736     6.979
   476   1 h        0.803     0.343     0.606     1.222
   477   1 h        0.804     0.328     0.642     1.259
   478   8 o        1.609    -0.685    27.327     7.055
   479   1 h        0.803     0.348     0.593     1.210
   480   1 h        0.805     0.336     0.622     1.239
   481   8 o        1.607    -0.676    27.091     7.025
   482   1 h        0.803     0.337     0.621     1.238
   483   1 h        0.804     0.352     0.583     1.200
   484   8 o        1.609    -0.684    27.298     7.052
   485   1 h        0.804     0.333     0.631     1.247
   486   1 h        0.805     0.338     0.616     1.233
   487   8 o        1.608    -0.689    27.429     7.068
   488   1 h        0.804     0.338     0.616     1.233
   489   1 h        0.804     0.332     0.633     1.249
   490   8 o        1.605    -0.689    27.413     7.066
   491   1 h        0.801     0.369     0.547     1.162
   492   1 h        0.805     0.315     0.677     1.292
   493   8 o        1.608    -0.680    27.194     7.038
   494   1 h        0.803     0.334     0.629     1.245
   495   1 h        0.804     0.358     0.570     1.186
   496   8 o        1.607    -0.690    27.460     7.072
   497   1 h        0.804     0.339     0.615     1.232
   498   1 h        0.803     0.362     0.561     1.177
   499   8 o        1.607    -0.685    27.323     7.055
   500   1 h        0.802     0.369     0.547     1.162
   501   1 h        0.805     0.314     0.681     1.296
   502   8 o        1.608    -0.666    26.827     6.991
   503   1 h        0.805     0.325     0.651     1.267
   504   1 h        0.803     0.343     0.606     1.223
   505   8 o        1.609    -0.659    26.648     6.967
   506   1 h        0.805     0.330     0.637     1.253
   507   1 h        0.804     0.344     0.603     1.219
   508   8 o        1.608    -0.678    27.130     7.030
   509   1 h        0.804     0.336     0.623     1.240
   510   1 h        0.804     0.335     0.624     1.241
   511   8 o        1.608    -0.667    26.858     6.995
   512   1 h        0.804     0.330     0.637     1.254
   513   1 h        0.804     0.337     0.621     1.237
   514   8 o        1.609    -0.635    26.044     6.888
   515   1 h        0.805     0.325     0.651     1.267
   516   1 h        0.804     0.336     0.622     1.238
   517   8 o        1.608    -0.651    26.443     6.940
   518   1 h        0.803     0.346     0.598     1.215
   519   1 h        0.805     0.321     0.660     1.276
   520   8 o        1.610    -0.667    26.836     6.992
   521   1 h        0.805     0.345     0.600     1.217
   522   1 h        0.804     0.336     0.621     1.238
   523   8 o        1.608    -0.690    27.443     7.070
   524   1 h        0.804     0.341     0.610     1.227
   525   1 h        0.804     0.336     0.623     1.240
   526   8 o        1.607    -0.677    27.107     7.027
   527   1 h        0.803     0.329     0.639     1.256
   528   1 h        0.804     0.332     0.633     1.249
   529   8 o        1.608    -0.690    27.449     7.071
   530   1 h        0.803     0.363     0.560     1.175
   531   1 h        0.804     0.352     0.584     1.200
   532   8 o        1.609    -0.666    26.833     6.991
   533   1 h        0.804     0.355     0.578     1.194
   534   1 h        0.805     0.323     0.655     1.271
   535   8 o        1.606    -0.694    27.562     7.085
   536   1 h        0.802     0.366     0.553     1.168
   537   1 h        0.803     0.337     0.620     1.237
   538   8 o        1.607    -0.680    27.180     7.036
   539   1 h        0.804     0.330     0.637     1.254
   540   1 h        0.803     0.354     0.579     1.196
   541   8 o        1.609    -0.659    26.650     6.967
   542   1 h        0.804     0.336     0.622     1.239
   543   1 h        0.805     0.326     0.648     1.264
   544   8 o        1.606    -0.691    27.462     7.073
   545   1 h        0.803     0.321     0.662     1.278
   546   1 h        0.803     0.364     0.557     1.172
   547   8 o        1.607    -0.690    27.451     7.071
   548   1 h        0.804     0.336     0.623     1.240
   549   1 h        0.803     0.359     0.569     1.185
   550   8 o        1.608    -0.680    27.179     7.036
   551   1 h        0.803     0.331     0.635     1.252
   552   1 h        0.804     0.343     0.605     1.222
   553   8 o        1.608    -0.671    26.956     7.007
   554   1 h        0.804     0.348     0.592     1.208
   555   1 h        0.804     0.330     0.637     1.254
   556   8 o        1.607    -0.655    26.553     6.955
   557   1 h        0.805     0.316     0.676     1.291
   558   1 h        0.802     0.332     0.633     1.250
   559   8 o        1.607    -0.694    27.562     7.086
   560   1 h        0.803     0.344     0.602     1.218
   561   1 h        0.804     0.329     0.639     1.256
   562   8 o        1.607    -0.687    27.356     7.059
   563   1 h        0.802     0.354     0.578     1.195
   564   1 h        0.805     0.321     0.662     1.278
   565   8 o        1.607    -0.698    27.656     7.098
   566   1 h        0.804     0.338     0.617     1.234
   567   1 h        0.804     0.334     0.628     1.245
   568   8 o        1.608    -0.690    27.439     7.070
   569   1 h        0.805     0.324     0.654     1.270
   570   1 h        0.804     0.347     0.595     1.212
   571   8 o        1.609    -0.693    27.531     7.082
   572   1 h        0.804     0.338     0.617     1.234
   573   1 h        0.804     0.344     0.603     1.220
   574   8 o        1.608    -0.675    27.058     7.021
   575   1 h        0.804     0.338     0.617     1.234
   576   1 h        0.804     0.338     0.616     1.233
   577   8 o        1.607    -0.692    27.501     7.078
   578   1 h        0.803     0.349     0.590     1.207
   579   1 h        0.804     0.348     0.593     1.210
   580   8 o        1.608    -0.651    26.430     6.939
   581   1 h        0.806     0.306     0.704     1.318
   582   1 h        0.803     0.348     0.594     1.210
   583   8 o        1.608    -0.684    27.291     7.051
   584   1 h        0.804     0.320     0.663     1.279
   585   1 h        0.803     0.354     0.578     1.194
   586   8 o        1.608    -0.655    26.531     6.952
   587   1 h        0.805     0.323     0.654     1.271
   588   1 h        0.803     0.327     0.645     1.261
   589   8 o        1.606    -0.701    27.743     7.109
   590   1 h        0.805     0.320     0.663     1.279
   591   1 h        0.802     0.359     0.567     1.183
   592   8 o        1.607    -0.681    27.216     7.041
   593   1 h        0.803     0.366     0.552     1.167
   594   1 h        0.805     0.319     0.667     1.282
   595   8 o        1.605    -0.693    27.525     7.081
   596   1 h        0.806     0.309     0.695     1.310
   597   1 h        0.802     0.367     0.550     1.165
   598   8 o        1.608    -0.688    27.390     7.063
   599   1 h        0.806     0.312     0.685     1.300
   600   1 h        0.802     0.368     0.548     1.163
   601   8 o        1.609    -0.684    27.294     7.051
   602   1 h        0.804     0.345     0.600     1.217
   603   1 h        0.805     0.330     0.637     1.254
   604   8 o        1.608    -0.694    27.548     7.084
   605   1 h        0.805     0.323     0.655     1.271
   606   1 h        0.804     0.352     0.583     1.200
   607   8 o        1.607    -0.682    27.226     7.042
   608   1 h        0.803     0.326     0.648     1.265
   609   1 h        0.804     0.342     0.607     1.224
   610   8 o        1.609    -0.672    26.981     7.011
   611   1 h        0.804     0.339     0.614     1.231
   612   1 h        0.805     0.332     0.631     1.248
   613   8 o        1.609    -0.686    27.335     7.056
   614   1 h        0.804     0.337     0.621     1.237
   615   1 h        0.804     0.335     0.625     1.242
   616   8 o        1.609    -0.674    27.016     7.015
   617   1 h        0.805     0.332     0.633     1.249
   618   1 h        0.804     0.346     0.598     1.215
   619   8 o        1.608    -0.665    26.799     6.987
   620   1 h        0.803     0.350     0.589     1.206
   621   1 h        0.805     0.324     0.654     1.270
   622   8 o        1.608    -0.662    26.731     6.978
   623   1 h        0.806     0.309     0.694     1.308
   624   1 h        0.803     0.346     0.598     1.215
   625   8 o        1.608    -0.685    27.322     7.055
   626   1 h        0.805     0.329     0.641     1.257
   627   1 h        0.803     0.340     0.613     1.230
   628   8 o        1.607    -0.682    27.243     7.044
   629   1 h        0.803     0.337     0.621     1.238
   630   1 h        0.805     0.326     0.648     1.265
   631   8 o        1.609    -0.665    26.809     6.988
   632   1 h        0.805     0.339     0.614     1.230
   633   1 h        0.804     0.333     0.631     1.247
   634   8 o        1.607    -0.687    27.358     7.059
   635   1 h        0.801     0.366     0.552     1.167
   636   1 h        0.806     0.307     0.700     1.314
   637   8 o        1.609    -0.671    26.953     7.007
   638   1 h        0.805     0.338     0.618     1.234
   639   1 h        0.804     0.336     0.622     1.239
   640   8 o        1.607    -0.686    27.333     7.056
   641   1 h        0.802     0.353     0.581     1.198
   642   1 h        0.805     0.328     0.643     1.259
   643   8 o        1.606    -0.652    26.473     6.944
   644   1 h        0.806     0.308     0.699     1.313
   645   1 h        0.802     0.346     0.598     1.215
   646   8 o        1.607    -0.687    27.374     7.061
   647   1 h        0.803     0.366     0.552     1.167
   648   1 h        0.804     0.342     0.607     1.223
   649   8 o        1.608    -0.677    27.106     7.027
   650   1 h        0.805     0.321     0.660     1.276
   651   1 h        0.803     0.362     0.560     1.176
   652   8 o        1.608    -0.660    26.673     6.970
   653   1 h        0.803     0.329     0.640     1.257
   654   1 h        0.805     0.335     0.626     1.243
   655   8 o        1.608    -0.670    26.937     7.005
   656   1 h        0.804     0.334     0.627     1.244
   657   1 h        0.804     0.333     0.630     1.247
   658   8 o        1.608    -0.699    27.687     7.102
   659   1 h        0.803     0.358     0.570     1.186
   660   1 h        0.805     0.329     0.639     1.256
   661   8 o        1.608    -0.667    26.851     6.994
   662   1 h        0.802     0.348     0.592     1.209
   663   1 h        0.805     0.317     0.672     1.288
   664   8 o        1.608    -0.683    27.263     7.047
   665   1 h        0.804     0.348     0.593     1.210
   666   1 h        0.804     0.353     0.581     1.197
   667   8 o        1.607    -0.676    27.088     7.024
   668   1 h        0.802     0.349     0.592     1.208
   669   1 h        0.806     0.306     0.702     1.316
   670   8 o        1.607    -0.696    27.604     7.091
   671   1 h        0.804     0.340     0.613     1.230
   672   1 h        0.803     0.339     0.614     1.231
   673   8 o        1.607    -0.693    27.539     7.083
   674   1 h        0.805     0.329     0.639     1.256
   675   1 h        0.802     0.363     0.560     1.175
   676   8 o        1.608    -0.672    26.969     7.009
   677   1 h        0.804     0.332     0.633     1.249
   678   1 h        0.803     0.346     0.598     1.215
   679   8 o        1.607    -0.685    27.312     7.053
   680   1 h        0.804     0.329     0.641     1.258
   681   1 h        0.804     0.353     0.581     1.197
   682   8 o        1.609    -0.681    27.218     7.041
   683   1 h        0.805     0.335     0.625     1.242
   684   1 h        0.804     0.351     0.586     1.203
   685   8 o        1.608    -0.684    27.300     7.052
   686   1 h        0.804     0.348     0.593     1.210
   687   1 h        0.804     0.314     0.680     1.295
   688   8 o        1.606    -0.684    27.299     7.052
   689   1 h        0.803     0.326     0.649     1.265
   690   1 h        0.803     0.351     0.586     1.203
   691   8 o        1.607    -0.688    27.399     7.065
   692   1 h        0.805     0.328     0.641     1.258
   693   1 h        0.802     0.366     0.554     1.169
   694   8 o        1.606    -0.698    27.653     7.097
   695   1 h        0.804     0.347     0.595     1.212
   696   1 h        0.802     0.358     0.570     1.186
   697   8 o        1.607    -0.663    26.751     6.981
   698   1 h        0.804     0.338     0.618     1.235
   699   1 h        0.804     0.327     0.645     1.262
   700   8 o        1.610    -0.665    26.808     6.988
   701   1 h        0.805     0.338     0.616     1.233
   702   1 h        0.805     0.329     0.639     1.256
   703   8 o        1.608    -0.684    27.301     7.052
   704   1 h        0.804     0.317     0.671     1.287
   705   1 h        0.804     0.352     0.583     1.199
   706   8 o        1.607    -0.676    27.086     7.024
   707   1 h        0.802     0.356     0.576     1.192
   708   1 h        0.806     0.306     0.704     1.318
   709   8 o        1.609    -0.666    26.830     6.991
   710   1 h        0.805     0.333     0.629     1.245
   711   1 h        0.804     0.331     0.634     1.251
   712   8 o        1.608    -0.669    26.888     6.998
   713   1 h        0.803     0.353     0.581     1.198
   714   1 h        0.805     0.359     0.567     1.183
   715   8 o        1.608    -0.660    26.662     6.969
   716   1 h        0.804     0.348     0.592     1.209
   717   1 h        0.803     0.338     0.618     1.235
   718   8 o        1.610    -0.677    27.094     7.025
   719   1 h        0.804     0.345     0.599     1.216
   720   1 h        0.804     0.339     0.614     1.231
   721   8 o        1.607    -0.682    27.250     7.045
   722   1 h        0.803     0.349     0.591     1.208
   723   1 h        0.804     0.328     0.642     1.259
   724   8 o        1.608    -0.669    26.909     7.001
   725   1 h        0.804     0.348     0.593     1.209
   726   1 h        0.804     0.325     0.649     1.266
   727   8 o        1.606    -0.696    27.612     7.092
   728   1 h        0.803     0.340     0.613     1.230
   729   1 h        0.803     0.332     0.631     1.248
   730   8 o        1.609    -0.657    26.589     6.959
   731   1 h        0.805     0.339     0.616     1.232
   732   1 h        0.804     0.342     0.607     1.223
   733   8 o        1.606    -0.702    27.770     7.112
   734   1 h        0.804     0.336     0.623     1.240
   735   1 h        0.803     0.357     0.572     1.188
   736   8 o        1.607    -0.650    26.407     6.935
   737   1 h        0.805     0.323     0.656     1.272
   738   1 h        0.802     0.339     0.615     1.232
   739   8 o        1.607    -0.686    27.339     7.057
   740   1 h        0.802     0.366     0.553     1.168
   741   1 h        0.805     0.326     0.647     1.263
   742   8 o        1.606    -0.686    27.347     7.058
   743   1 h        0.803     0.356     0.574     1.190
   744   1 h        0.803     0.326     0.649     1.266
   745   8 o        1.607    -0.659    26.652     6.968
   746   1 h        0.806     0.312     0.687     1.302
   747   1 h        0.802     0.349     0.592     1.208
   748   8 o        1.607    -0.684    27.288     7.050
   749   1 h        0.803     0.360     0.565     1.181
   750   1 h        0.804     0.326     0.648     1.264
   751   8 o        1.608    -0.675    27.050     7.019
   752   1 h        0.806     0.318     0.670     1.285
   753   1 h        0.803     0.354     0.580     1.196
   754   8 o        1.609    -0.669    26.889     6.999
   755   1 h        0.803     0.359     0.567     1.183
   756   1 h        0.805     0.322     0.658     1.274

 Mol. C6AA /au·bohr⁶  :    2900790.207428
 Mol. C8AA /au·bohr⁸  :   52642635.927959
 Mol. α(0) /au        :       2393.496270


Wiberg/Mayer (AO) data.
largest (>0.10) Wiberg bond orders for each atom

 ---------------------------------------------------------------------------
     #   Z sym  total        # sym  WBO       # sym  WBO       # sym  WBO
 ---------------------------------------------------------------------------
     1   8 o    1.805 --     3 h    0.863     2 h    0.839
     2   1 h    0.888 --     1 o    0.839
     3   1 h    0.894 --     1 o    0.863
     4   8 o    1.849 --     5 h    0.820     6 h    0.806
     5   1 h    0.882 --     4 o    0.820
     6   1 h    0.876 --     4 o    0.806
     7   8 o    1.873 --     8 h    0.777     9 h    0.777
     8   1 h    0.869 --     7 o    0.777
     9   1 h    0.865 --     7 o    0.777
    10   8 o    1.859 --    12 h    0.808    11 h    0.806
    11   1 h    0.877 --    10 o    0.806
    12   1 h    0.878 --    10 o    0.808
    13   8 o    1.839 --    15 h    0.816    14 h    0.776
    14   1 h    0.873 --    13 o    0.776
    15   1 h    0.876 --    13 o    0.816
    16   8 o    1.881 --    18 h    0.827    17 h    0.792
    17   1 h    0.869 --    16 o    0.792
    18   1 h    0.887 --    16 o    0.827
    19   8 o    1.838 --    20 h    0.823    21 h    0.818
    20   1 h    0.882 --    19 o    0.823
    21   1 h    0.881 --    19 o    0.818
    22   8 o    1.840 --    23 h    0.847    24 h    0.804
    23   1 h    0.889 --    22 o    0.847
    24   1 h    0.878 --    22 o    0.804
    25   8 o    1.877 --    27 h    0.839    26 h    0.814
    26   1 h    0.877 --    25 o    0.814
    27   1 h    0.890 --    25 o    0.839
    28   8 o    1.823 --    30 h    0.833    29 h    0.796
    29   1 h    0.879 --    28 o    0.796
    30   1 h    0.888 --    28 o    0.833
    31   8 o    1.854 --    33 h    0.837    32 h    0.800
    32   1 h    0.873 --    31 o    0.800
    33   1 h    0.879 --    31 o    0.837
    34   8 o    1.883 --    35 h    0.832    36 h    0.807
    35   1 h    0.881 --    34 o    0.832
    36   1 h    0.872 --    34 o    0.807
    37   8 o    1.821 --    39 h    0.850    38 h    0.805
    38   1 h    0.871 --    37 o    0.805
    39   1 h    0.893 --    37 o    0.850
    40   8 o    1.874 --    42 h    0.821    41 h    0.821
    41   1 h    0.872 --    40 o    0.821
    42   1 h    0.886 --    40 o    0.821
    43   8 o    1.887 --    44 h    0.818    45 h    0.799
    44   1 h    0.882 --    43 o    0.818
    45   1 h    0.868 --    43 o    0.799
    46   8 o    1.876 --    47 h    0.843    48 h    0.799
    47   1 h    0.895 --    46 o    0.843
    48   1 h    0.876 --    46 o    0.799
    49   8 o    1.838 --    50 h    0.817    51 h    0.814
    50   1 h    0.885 --    49 o    0.817
    51   1 h    0.884 --    49 o    0.814
    52   8 o    1.869 --    54 h    0.831    53 h    0.824
    53   1 h    0.892 --    52 o    0.824
    54   1 h    0.880 --    52 o    0.831
    55   8 o    1.837 --    56 h    0.817    57 h    0.812
    56   1 h    0.886 --    55 o    0.817
    57   1 h    0.876 --    55 o    0.812
    58   8 o    1.798 --    59 h    0.866    60 h    0.821
    59   1 h    0.890 --    58 o    0.866
    60   1 h    0.883 --    58 o    0.821
    61   8 o    1.839 --    63 h    0.829    62 h    0.785
    62   1 h    0.874 --    61 o    0.785
    63   1 h    0.894 --    61 o    0.829
    64   8 o    1.901 --    66 h    0.832    65 h    0.800
    65   1 h    0.862 --    64 o    0.800
    66   1 h    0.879 --    64 o    0.832
    67   8 o    1.827 --    68 h    0.847    69 h    0.817
    68   1 h    0.888 --    67 o    0.847
    69   1 h    0.877 --    67 o    0.817
    70   8 o    1.867 --    72 h    0.846    71 h    0.817
    71   1 h    0.874 --    70 o    0.817
    72   1 h    0.884 --    70 o    0.846
    73   8 o    1.861 --    75 h    0.850    74 h    0.815
    74   1 h    0.880 --    73 o    0.815
    75   1 h    0.884 --    73 o    0.850
    76   8 o    1.860 --    77 h    0.840    78 h    0.813
    77   1 h    0.883 --    76 o    0.840
    78   1 h    0.871 --    76 o    0.813
    79   8 o    1.813 --    80 h    0.873    81 h    0.857
    80   1 h    0.897 --    79 o    0.873
    81   1 h    0.891 --    79 o    0.857
    82   8 o    1.843 --    84 h    0.802    83 h    0.796
    83   1 h    0.874 --    82 o    0.796
    84   1 h    0.882 --    82 o    0.802
    85   8 o    1.846 --    86 h    0.841    87 h    0.827
    86   1 h    0.895 --    85 o    0.841
    87   1 h    0.882 --    85 o    0.827
    88   8 o    1.863 --    89 h    0.812    90 h    0.802
    89   1 h    0.874 --    88 o    0.812
    90   1 h    0.881 --    88 o    0.802
    91   8 o    1.837 --    92 h    0.896    93 h    0.776
    92   1 h    0.905 --    91 o    0.896
    93   1 h    0.867 --    91 o    0.776
    94   8 o    1.836 --    95 h    0.823    96 h    0.815
    95   1 h    0.889 --    94 o    0.823
    96   1 h    0.885 --    94 o    0.815
    97   8 o    1.812 --    99 h    0.903    98 h    0.796
    98   1 h    0.870 --    97 o    0.796
    99   1 h    0.912 --    97 o    0.903
   100   8 o    1.865 --   101 h    0.851   102 h    0.801
   101   1 h    0.900 --   100 o    0.851
   102   1 h    0.869 --   100 o    0.801
   103   8 o    1.858 --   105 h    0.826   104 h    0.802
   104   1 h    0.875 --   103 o    0.802
   105   1 h    0.877 --   103 o    0.826
   106   8 o    1.866 --   107 h    0.839   108 h    0.804
   107   1 h    0.889 --   106 o    0.839
   108   1 h    0.872 --   106 o    0.804
   109   8 o    1.876 --   110 h    0.835   111 h    0.821
   110   1 h    0.882 --   109 o    0.835
   111   1 h    0.871 --   109 o    0.821
   112   8 o    1.860 --   114 h    0.858   113 h    0.818
   113   1 h    0.879 --   112 o    0.818
   114   1 h    0.891 --   112 o    0.858
   115   8 o    1.852 --   117 h    0.861   116 h    0.800
   116   1 h    0.878 --   115 o    0.800
   117   1 h    0.886 --   115 o    0.861
   118   8 o    1.872 --   119 h    0.818   120 h    0.783
   119   1 h    0.876 --   118 o    0.818
   120   1 h    0.870 --   118 o    0.783
   121   8 o    1.855 --   123 h    0.836   122 h    0.787
   122   1 h    0.865 --   121 o    0.787
   123   1 h    0.893 --   121 o    0.836
   124   8 o    1.826 --   125 h    0.845   126 h    0.815
   125   1 h    0.897 --   124 o    0.845
   126   1 h    0.878 --   124 o    0.815
   127   8 o    1.879 --   128 h    0.807   129 h    0.801
   128   1 h    0.875 --   127 o    0.807
   129   1 h    0.869 --   127 o    0.801
   130   8 o    1.859 --   132 h    0.827   131 h    0.803
   131   1 h    0.867 --   130 o    0.803
   132   1 h    0.892 --   130 o    0.827
   133   8 o    1.846 --   134 h    0.846   135 h    0.773
   134   1 h    0.889 --   133 o    0.846
   135   1 h    0.867 --   133 o    0.773
   136   8 o    1.838 --   137 h    0.832   138 h    0.823
   137   1 h    0.879 --   136 o    0.832
   138   1 h    0.881 --   136 o    0.823
   139   8 o    1.867 --   141 h    0.846   140 h    0.801
   140   1 h    0.873 --   139 o    0.801
   141   1 h    0.883 --   139 o    0.846
   142   8 o    1.875 --   143 h    0.840   144 h    0.803
   143   1 h    0.895 --   142 o    0.840
   144   1 h    0.884 --   142 o    0.803
   145   8 o    1.869 --   146 h    0.833   147 h    0.787
   146   1 h    0.896 --   145 o    0.833
   147   1 h    0.875 --   145 o    0.787
   148   8 o    1.862 --   149 h    0.831   150 h    0.818
   149   1 h    0.866 --   148 o    0.831
   150   1 h    0.888 --   148 o    0.818
   151   8 o    1.879 --   153 h    0.832   152 h    0.822
   152   1 h    0.873 --   151 o    0.822
   153   1 h    0.892 --   151 o    0.832
   154   8 o    1.856 --   155 h    0.812   156 h    0.803
   155   1 h    0.883 --   154 o    0.812
   156   1 h    0.877 --   154 o    0.803
   157   8 o    1.841 --   158 h    0.902   159 h    0.790
   158   1 h    0.908 --   157 o    0.902
   159   1 h    0.879 --   157 o    0.790
   160   8 o    1.857 --   161 h    0.832   162 h    0.822
   161   1 h    0.877 --   160 o    0.832
   162   1 h    0.876 --   160 o    0.822
   163   8 o    1.812 --   164 h    0.860   165 h    0.828
   164   1 h    0.890 --   163 o    0.860
   165   1 h    0.874 --   163 o    0.828
   166   8 o    1.838 --   168 h    0.844   167 h    0.816
   167   1 h    0.879 --   166 o    0.816
   168   1 h    0.887 --   166 o    0.844
   169   8 o    1.865 --   171 h    0.809   170 h    0.767
   170   1 h    0.863 --   169 o    0.767
   171   1 h    0.888 --   169 o    0.809
   172   8 o    1.847 --   174 h    0.844   173 h    0.814
   173   1 h    0.879 --   172 o    0.814
   174   1 h    0.885 --   172 o    0.844
   175   8 o    1.884 --   177 h    0.845   176 h    0.777
   176   1 h    0.872 --   175 o    0.777
   177   1 h    0.894 --   175 o    0.845
   178   8 o    1.861 --   179 h    0.821   180 h    0.787   362 h    0.104
   179   1 h    0.883 --   178 o    0.821
   180   1 h    0.875 --   178 o    0.787
   181   8 o    1.832 --   182 h    0.843   183 h    0.788
   182   1 h    0.898 --   181 o    0.843
   183   1 h    0.874 --   181 o    0.788
   184   8 o    1.849 --   186 h    0.824   185 h    0.789
   185   1 h    0.873 --   184 o    0.789
   186   1 h    0.881 --   184 o    0.824
   187   8 o    1.850 --   188 h    0.869   189 h    0.863
   188   1 h    0.892 --   187 o    0.869
   189   1 h    0.889 --   187 o    0.863
   190   8 o    1.823 --   192 h    0.863   191 h    0.821
   191   1 h    0.879 --   190 o    0.821
   192   1 h    0.895 --   190 o    0.863
   193   8 o    1.815 --   194 h    0.878   195 h    0.842
   194   1 h    0.898 --   193 o    0.878
   195   1 h    0.883 --   193 o    0.842
   196   8 o    1.813 --   197 h    0.844   198 h    0.831
   197   1 h    0.886 --   196 o    0.844
   198   1 h    0.889 --   196 o    0.831
   199   8 o    1.829 --   200 h    0.819   201 h    0.779
   200   1 h    0.889 --   199 o    0.819
   201   1 h    0.879 --   199 o    0.779
   202   8 o    1.854 --   203 h    0.855   204 h    0.831
   203   1 h    0.899 --   202 o    0.855
   204   1 h    0.879 --   202 o    0.831
   205   8 o    1.850 --   206 h    0.864   207 h    0.822
   206   1 h    0.894 --   205 o    0.864
   207   1 h    0.882 --   205 o    0.822
   208   8 o    1.806 --   210 h    0.828   209 h    0.824
   209   1 h    0.886 --   208 o    0.824
   210   1 h    0.888 --   208 o    0.828
   211   8 o    1.859 --   213 h    0.832   212 h    0.776
   212   1 h    0.866 --   211 o    0.776
   213   1 h    0.882 --   211 o    0.832
   214   8 o    1.874 --   215 h    0.841   216 h    0.800
   215   1 h    0.879 --   214 o    0.841
   216   1 h    0.872 --   214 o    0.800
   217   8 o    1.841 --   219 h    0.837   218 h    0.809
   218   1 h    0.876 --   217 o    0.809
   219   1 h    0.883 --   217 o    0.837
   220   8 o    1.866 --   222 h    0.844   221 h    0.814
   221   1 h    0.872 --   220 o    0.814
   222   1 h    0.895 --   220 o    0.844
   223   8 o    1.844 --   224 h    0.842   225 h    0.827
   224   1 h    0.879 --   223 o    0.842
   225   1 h    0.890 --   223 o    0.827
   226   8 o    1.873 --   228 h    0.820   227 h    0.818
   227   1 h    0.869 --   226 o    0.818
   228   1 h    0.875 --   226 o    0.820
   229   8 o    1.868 --   230 h    0.820   231 h    0.788
   230   1 h    0.890 --   229 o    0.820
   231   1 h    0.869 --   229 o    0.788
   232   8 o    1.871 --   234 h    0.834   233 h    0.786
   233   1 h    0.868 --   232 o    0.786
   234   1 h    0.883 --   232 o    0.834
   235   8 o    1.871 --   237 h    0.849   236 h    0.793
   236   1 h    0.875 --   235 o    0.793
   237   1 h    0.892 --   235 o    0.849
   238   8 o    1.814 --   239 h    0.882   240 h    0.848
   239   1 h    0.893 --   238 o    0.882
   240   1 h    0.882 --   238 o    0.848
   241   8 o    1.818 --   242 h    0.884   243 h    0.835
   242   1 h    0.902 --   241 o    0.884
   243   1 h    0.885 --   241 o    0.835
   244   8 o    1.854 --   246 h    0.862   245 h    0.807
   245   1 h    0.883 --   244 o    0.807
   246   1 h    0.897 --   244 o    0.862
   247   8 o    1.854 --   248 h    0.832   249 h    0.778
   248   1 h    0.886 --   247 o    0.832
   249   1 h    0.866 --   247 o    0.778
   250   8 o    1.795 --   251 h    0.838   252 h    0.835
   251   1 h    0.892 --   250 o    0.838
   252   1 h    0.888 --   250 o    0.835
   253   8 o    1.855 --   255 h    0.865   254 h    0.795
   254   1 h    0.870 --   253 o    0.795
   255   1 h    0.895 --   253 o    0.865
   256   8 o    1.856 --   257 h    0.831   258 h    0.813
   257   1 h    0.872 --   256 o    0.831
   258   1 h    0.877 --   256 o    0.813
   259   8 o    1.846 --   260 h    0.854   261 h    0.843
   260   1 h    0.884 --   259 o    0.854
   261   1 h    0.891 --   259 o    0.843
   262   8 o    1.822 --   264 h    0.873   263 h    0.807
   263   1 h    0.881 --   262 o    0.807
   264   1 h    0.891 --   262 o    0.873
   265   8 o    1.826 --   267 h    0.845   266 h    0.832
   266   1 h    0.878 --   265 o    0.832
   267   1 h    0.895 --   265 o    0.845
   268   8 o    1.800 --   270 h    0.882   269 h    0.832
   269   1 h    0.885 --   268 o    0.832
   270   1 h    0.898 --   268 o    0.882
   271   8 o    1.848 --   273 h    0.807   272 h    0.766
   272   1 h    0.867 --   271 o    0.766
   273   1 h    0.877 --   271 o    0.807
   274   8 o    1.870 --   275 h    0.826   276 h    0.825
   275   1 h    0.882 --   274 o    0.826
   276   1 h    0.873 --   274 o    0.825
   277   8 o    1.890 --   278 h    0.820   279 h    0.801
   278   1 h    0.888 --   277 o    0.820
   279   1 h    0.869 --   277 o    0.801
   280   8 o    1.825 --   282 h    0.855   281 h    0.819
   281   1 h    0.869 --   280 o    0.819
   282   1 h    0.892 --   280 o    0.855
   283   8 o    1.852 --   284 h    0.848   285 h    0.829
   284   1 h    0.893 --   283 o    0.848
   285   1 h    0.876 --   283 o    0.829
   286   8 o    1.849 --   287 h    0.838   288 h    0.789
   287   1 h    0.886 --   286 o    0.838
   288   1 h    0.877 --   286 o    0.789
   289   8 o    1.861 --   290 h    0.844   291 h    0.794
   290   1 h    0.888 --   289 o    0.844
   291   1 h    0.864 --   289 o    0.794
   292   8 o    1.861 --   293 h    0.876   294 h    0.783
   293   1 h    0.899 --   292 o    0.876
   294   1 h    0.863 --   292 o    0.783
   295   8 o    1.861 --   296 h    0.832   297 h    0.826
   296   1 h    0.886 --   295 o    0.832
   297   1 h    0.888 --   295 o    0.826
   298   8 o    1.794 --   299 h    0.856   300 h    0.830
   299   1 h    0.888 --   298 o    0.856
   300   1 h    0.884 --   298 o    0.830
   301   8 o    1.847 --   303 h    0.842   302 h    0.838
   302   1 h    0.897 --   301 o    0.838
   303   1 h    0.895 --   301 o    0.842
   304   8 o    1.844 --   305 h    0.899   306 h    0.806
   305   1 h    0.903 --   304 o    0.899
   306   1 h    0.874 --   304 o    0.806
   307   8 o    1.876 --   308 h    0.833   309 h    0.806
   308   1 h    0.883 --   307 o    0.833
   309   1 h    0.874 --   307 o    0.806
   310   8 o    1.834 --   311 h    0.850   312 h    0.847
   311   1 h    0.882 --   310 o    0.850
   312   1 h    0.889 --   310 o    0.847
   313   8 o    1.824 --   315 h    0.846   314 h    0.810
   314   1 h    0.883 --   313 o    0.810
   315   1 h    0.888 --   313 o    0.846
   316   8 o    1.868 --   318 h    0.835   317 h    0.812
   317   1 h    0.886 --   316 o    0.812
   318   1 h    0.887 --   316 o    0.835
   319   8 o    1.854 --   321 h    0.859   320 h    0.825
   320   1 h    0.879 --   319 o    0.825
   321   1 h    0.894 --   319 o    0.859
   322   8 o    1.880 --   323 h    0.828   324 h    0.783
   323   1 h    0.891 --   322 o    0.828
   324   1 h    0.873 --   322 o    0.783
   325   8 o    1.811 --   327 h    0.875   326 h    0.828
   326   1 h    0.880 --   325 o    0.828
   327   1 h    0.897 --   325 o    0.875
   328   8 o    1.850 --   330 h    0.866   329 h    0.808
   329   1 h    0.869 --   328 o    0.808
   330   1 h    0.897 --   328 o    0.866
   331   8 o    1.864 --   332 h    0.860   333 h    0.777
   332   1 h    0.894 --   331 o    0.860
   333   1 h    0.867 --   331 o    0.777
   334   8 o    1.826 --   336 h    0.861   335 h    0.817
   335   1 h    0.878 --   334 o    0.817
   336   1 h    0.891 --   334 o    0.861
   337   8 o    1.801 --   339 h    0.825   338 h    0.808
   338   1 h    0.879 --   337 o    0.808
   339   1 h    0.889 --   337 o    0.825
   340   8 o    1.798 --   341 h    0.851   342 h    0.835
   341   1 h    0.885 --   340 o    0.851
   342   1 h    0.885 --   340 o    0.835
   343   8 o    1.823 --   344 h    0.819   345 h    0.772
   344   1 h    0.901 --   343 o    0.819
   345   1 h    0.863 --   343 o    0.772
   346   8 o    1.847 --   348 h    0.808   347 h    0.808
   347   1 h    0.878 --   346 o    0.808
   348   1 h    0.877 --   346 o    0.808
   349   8 o    1.831 --   350 h    0.834   351 h    0.806
   350   1 h    0.887 --   349 o    0.834
   351   1 h    0.880 --   349 o    0.806
   352   8 o    1.812 --   354 h    0.885   353 h    0.826
   353   1 h    0.879 --   352 o    0.826
   354   1 h    0.899 --   352 o    0.885
   355   8 o    1.803 --   357 h    0.871   356 h    0.814
   356   1 h    0.881 --   355 o    0.814
   357   1 h    0.896 --   355 o    0.871
   358   8 o    1.790 --   360 h    0.854   359 h    0.830
   359   1 h    0.886 --   358 o    0.830
   360   1 h    0.898 --   358 o    0.854
   361   8 o    1.818 --   363 h    0.897   362 h    0.767
   362   1 h    0.874 --   361 o    0.767   178 o    0.104
   363   1 h    0.905 --   361 o    0.897
[...]
   370   8 o    1.866 --   372 h    0.851   371 h    0.807
   371   1 h    0.874 --   370 o    0.807
   372   1 h    0.891 --   370 o    0.851
   373   8 o    1.810 --   374 h    0.876   375 h    0.844
   374   1 h    0.896 --   373 o    0.876
   375   1 h    0.884 --   373 o    0.844
   376   8 o    1.889 --   377 h    0.829   378 h    0.798
   377   1 h    0.877 --   376 o    0.829
   378   1 h    0.879 --   376 o    0.798
   379   8 o    1.843 --   380 h    0.837   381 h    0.798
   380   1 h    0.893 --   379 o    0.837
   381   1 h    0.863 --   379 o    0.798
   382   8 o    1.829 --   383 h    0.870   384 h    0.811
   383   1 h    0.893 --   382 o    0.870
   384   1 h    0.874 --   382 o    0.811
   385   8 o    1.851 --   387 h    0.892   386 h    0.804
   386   1 h    0.874 --   385 o    0.804
   387   1 h    0.902 --   385 o    0.892
   388   8 o    1.780 --   389 h    0.844   390 h    0.843
   389   1 h    0.894 --   388 o    0.844
   390   1 h    0.891 --   388 o    0.843
   391   8 o    1.828 --   392 h    0.872   393 h    0.790
   392   1 h    0.896 --   391 o    0.872
   393   1 h    0.875 --   391 o    0.790
   394   8 o    1.833 --   396 h    0.849   395 h    0.797
   395   1 h    0.868 --   394 o    0.797
   396   1 h    0.887 --   394 o    0.849
   397   8 o    1.870 --   398 h    0.801   399 h    0.789
   398   1 h    0.881 --   397 o    0.801
   399   1 h    0.875 --   397 o    0.789
   400   8 o    1.830 --   401 h    0.855   402 h    0.803
   401   1 h    0.893 --   400 o    0.855
   402   1 h    0.884 --   400 o    0.803
   403   8 o    1.845 --   404 h    0.833   405 h    0.783
   404   1 h    0.892 --   403 o    0.833
   405   1 h    0.870 --   403 o    0.783
   406   8 o    1.876 --   407 h    0.818   408 h    0.791
   407   1 h    0.888 --   406 o    0.818
   408   1 h    0.870 --   406 o    0.791
   409   8 o    1.876 --   411 h    0.827   410 h    0.814
   410   1 h    0.881 --   409 o    0.814
   411   1 h    0.893 --   409 o    0.827
   412   8 o    1.898 --   414 h    0.804   413 h    0.796
   413   1 h    0.873 --   412 o    0.796
   414   1 h    0.871 --   412 o    0.804
   415   8 o    1.843 --   416 h    0.864   417 h    0.848
   416   1 h    0.891 --   415 o    0.864
   417   1 h    0.884 --   415 o    0.848
   418   8 o    1.843 --   419 h    0.844   420 h    0.818
   419   1 h    0.889 --   418 o    0.844
   420   1 h    0.890 --   418 o    0.818
   421   8 o    1.828 --   423 h    0.848   422 h    0.805
   422   1 h    0.874 --   421 o    0.805
   423   1 h    0.892 --   421 o    0.848
   424   8 o    1.831 --   425 h    0.887   426 h    0.831
   425   1 h    0.897 --   424 o    0.887
   426   1 h    0.883 --   424 o    0.831
   427   8 o    1.865 --   428 h    0.819   429 h    0.766
   428   1 h    0.886 --   427 o    0.819
   429   1 h    0.863 --   427 o    0.766
   430   8 o    1.867 --   432 h    0.840   431 h    0.790
   431   1 h    0.872 --   430 o    0.790
   432   1 h    0.882 --   430 o    0.840
   433   8 o    1.856 --   434 h    0.894   435 h    0.797
   434   1 h    0.905 --   433 o    0.894
   435   1 h    0.881 --   433 o    0.797
   436   8 o    1.866 --   438 h    0.813   437 h    0.811
   437   1 h    0.879 --   436 o    0.811
   438   1 h    0.867 --   436 o    0.813
   439   8 o    1.822 --   440 h    0.849   441 h    0.826
   440   1 h    0.895 --   439 o    0.849
   441   1 h    0.872 --   439 o    0.826
   442   8 o    1.857 --   443 h    0.866   444 h    0.835
   443   1 h    0.893 --   442 o    0.866
   444   1 h    0.882 --   442 o    0.835
   445   8 o    1.845 --   446 h    0.853   447 h    0.817
   446   1 h    0.890 --   445 o    0.853
   447   1 h    0.869 --   445 o    0.817
   448   8 o    1.854 --   450 h    0.859   449 h    0.837
   449   1 h    0.878 --   448 o    0.837
   450   1 h    0.887 --   448 o    0.859
   451   8 o    1.904 --   453 h    0.832   452 h    0.795
   452   1 h    0.869 --   451 o    0.795
   453   1 h    0.887 --   451 o    0.832
   454   8 o    1.838 --   456 h    0.850   455 h    0.816
   455   1 h    0.885 --   454 o    0.816
   456   1 h    0.893 --   454 o    0.850
   457   8 o    1.822 --   458 h    0.841   459 h    0.836
   458   1 h    0.890 --   457 o    0.841
   459   1 h    0.887 --   457 o    0.836
   460   8 o    1.828 --   461 h    0.892   462 h    0.803
   461   1 h    0.900 --   460 o    0.892
   462   1 h    0.878 --   460 o    0.803
   463   8 o    1.806 --   465 h    0.855   464 h    0.834
   464   1 h    0.889 --   463 o    0.834
   465   1 h    0.889 --   463 o    0.855
   466   8 o    1.818 --   467 h    0.845   468 h    0.816
   467   1 h    0.901 --   466 o    0.845
   468   1 h    0.876 --   466 o    0.816
   469   8 o    1.828 --   470 h    0.878   471 h    0.794
   470   1 h    0.898 --   469 o    0.878
   471   1 h    0.877 --   469 o    0.794
   472   8 o    1.860 --   473 h    0.802   474 h    0.789
   473   1 h    0.890 --   472 o    0.802
   474   1 h    0.880 --   472 o    0.789
   475   8 o    1.856 --   477 h    0.851   476 h    0.831
   476   1 h    0.882 --   475 o    0.831
   477   1 h    0.892 --   475 o    0.851
   478   8 o    1.825 --   480 h    0.866   479 h    0.817
   479   1 h    0.879 --   478 o    0.817
   480   1 h    0.887 --   478 o    0.866
   481   8 o    1.877 --   482 h    0.819   483 h    0.816
   482   1 h    0.887 --   481 o    0.819
   483   1 h    0.876 --   481 o    0.816
   484   8 o    1.819 --   486 h    0.846   485 h    0.835
   485   1 h    0.889 --   484 o    0.835
   486   1 h    0.885 --   484 o    0.846
   487   8 o    1.817 --   489 h    0.838   488 h    0.827
   488   1 h    0.885 --   487 o    0.827
   489   1 h    0.890 --   487 o    0.838
   490   8 o    1.837 --   492 h    0.881   491 h    0.758
   491   1 h    0.864 --   490 o    0.758
   492   1 h    0.901 --   490 o    0.881
   493   8 o    1.864 --   495 h    0.821   494 h    0.816
   494   1 h    0.889 --   493 o    0.816
   495   1 h    0.872 --   493 o    0.821
   496   8 o    1.877 --   497 h    0.840   498 h    0.767   597 h    0.107
   497   1 h    0.885 --   496 o    0.840
   498   1 h    0.869 --   496 o    0.767
   499   8 o    1.829 --   501 h    0.882   500 h    0.779
   500   1 h    0.864 --   499 o    0.779
   501   1 h    0.901 --   499 o    0.882
   502   8 o    1.850 --   503 h    0.861   504 h    0.817
   503   1 h    0.894 --   502 o    0.861
   504   1 h    0.882 --   502 o    0.817
   505   8 o    1.832 --   506 h    0.873   507 h    0.846
   506   1 h    0.891 --   505 o    0.873
   507   1 h    0.882 --   505 o    0.846
   508   8 o    1.832 --   510 h    0.846   509 h    0.839
   509   1 h    0.887 --   508 o    0.839
   510   1 h    0.888 --   508 o    0.846
   511   8 o    1.859 --   513 h    0.833   512 h    0.833
   512   1 h    0.891 --   511 o    0.833
   513   1 h    0.887 --   511 o    0.833
   514   8 o    1.883 --   515 h    0.875   516 h    0.842
   515   1 h    0.894 --   514 o    0.875
   516   1 h    0.887 --   514 o    0.842
   517   8 o    1.872 --   519 h    0.877   518 h    0.812
   518   1 h    0.880 --   517 o    0.812
   519   1 h    0.897 --   517 o    0.877
   520   8 o    1.846 --   521 h    0.853   522 h    0.845
   521   1 h    0.881 --   520 o    0.853
   522   1 h    0.887 --   520 o    0.845
   523   8 o    1.812 --   524 h    0.842   525 h    0.837
   524   1 h    0.884 --   523 o    0.842
   525   1 h    0.887 --   523 o    0.837
   526   8 o    1.846 --   528 h    0.842   527 h    0.815
   527   1 h    0.891 --   526 o    0.815
   528   1 h    0.890 --   526 o    0.842
   529   8 o    1.877 --   531 h    0.828   530 h    0.783
   530   1 h    0.868 --   529 o    0.783
   531   1 h    0.876 --   529 o    0.828
   532   8 o    1.834 --   534 h    0.888   533 h    0.829
   533   1 h    0.874 --   532 o    0.829
   534   1 h    0.895 --   532 o    0.888
   535   8 o    1.863 --   537 h    0.829   536 h    0.791
   536   1 h    0.866 --   535 o    0.791
   537   1 h    0.886 --   535 o    0.829
   538   8 o    1.839 --   539 h    0.859   540 h    0.814
   539   1 h    0.891 --   538 o    0.859
   540   1 h    0.875 --   538 o    0.814
   541   8 o    1.837 --   543 h    0.868   542 h    0.842
   542   1 h    0.887 --   541 o    0.842
   543   1 h    0.894 --   541 o    0.868
   544   8 o    1.846 --   545 h    0.844   546 h    0.802
   545   1 h    0.897 --   544 o    0.844
   546   1 h    0.867 --   544 o    0.802
   547   8 o    1.851 --   548 h    0.849   549 h    0.804
   548   1 h    0.887 --   547 o    0.849
   549   1 h    0.871 --   547 o    0.804
   550   8 o    1.833 --   552 h    0.842   551 h    0.833
   551   1 h    0.890 --   550 o    0.833
   552   1 h    0.882 --   550 o    0.842
   553   8 o    1.847 --   555 h    0.843   554 h    0.832
   554   1 h    0.879 --   553 o    0.832
   555   1 h    0.891 --   553 o    0.843
   556   8 o    1.857 --   557 h    0.873   558 h    0.810
   557   1 h    0.900 --   556 o    0.873
   558   1 h    0.890 --   556 o    0.810
   559   8 o    1.827 --   561 h    0.835   560 h    0.821
   560   1 h    0.881 --   559 o    0.821
   561   1 h    0.891 --   559 o    0.835
   562   8 o    1.815 --   564 h    0.868   563 h    0.801
   563   1 h    0.874 --   562 o    0.801
   564   1 h    0.897 --   562 o    0.868
   565   8 o    1.792 --   566 h    0.834   567 h    0.833
   566   1 h    0.886 --   565 o    0.834
   567   1 h    0.888 --   565 o    0.833
   568   8 o    1.795 --   569 h    0.853   570 h    0.826
   569   1 h    0.895 --   568 o    0.853
   570   1 h    0.880 --   568 o    0.826
   571   8 o    1.813 --   572 h    0.847   573 h    0.837
   572   1 h    0.886 --   571 o    0.847
   573   1 h    0.882 --   571 o    0.837
   574   8 o    1.831 --   575 h    0.854   576 h    0.835
   575   1 h    0.886 --   574 o    0.854
   576   1 h    0.885 --   574 o    0.835
   577   8 o    1.868 --   579 h    0.812   578 h    0.797
   578   1 h    0.878 --   577 o    0.797
   579   1 h    0.879 --   577 o    0.812
   580   8 o    1.845 --   581 h    0.895   582 h    0.808
   581   1 h    0.906 --   580 o    0.895
   582   1 h    0.879 --   580 o    0.808
   583   8 o    1.841 --   584 h    0.845   585 h    0.807
   584   1 h    0.897 --   583 o    0.845
   585   1 h    0.874 --   583 o    0.807
   586   8 o    1.867 --   587 h    0.860   588 h    0.829
   587   1 h    0.895 --   586 o    0.860
   588   1 h    0.893 --   586 o    0.829
   589   8 o    1.809 --   590 h    0.866   591 h    0.785
   590   1 h    0.897 --   589 o    0.866
   591   1 h    0.871 --   589 o    0.785
   592   8 o    1.852 --   594 h    0.867   593 h    0.790
   593   1 h    0.866 --   592 o    0.790
   594   1 h    0.898 --   592 o    0.867
   595   8 o    1.829 --   596 h    0.887   597 h    0.751
   596   1 h    0.905 --   595 o    0.887
   597   1 h    0.865 --   595 o    0.751   496 o    0.107
   598   8 o    1.812 --   599 h    0.891   600 h    0.784
   599   1 h    0.902 --   598 o    0.891
   600   1 h    0.865 --   598 o    0.784
   601   8 o    1.805 --   603 h    0.870   602 h    0.835
   602   1 h    0.881 --   601 o    0.835
   603   1 h    0.891 --   601 o    0.870
   604   8 o    1.802 --   605 h    0.856   606 h    0.820
   605   1 h    0.895 --   604 o    0.856
   606   1 h    0.876 --   604 o    0.820
   607   8 o    1.814 --   609 h    0.842   608 h    0.837
   608   1 h    0.894 --   607 o    0.837
   609   1 h    0.883 --   607 o    0.842
   610   8 o    1.823 --   612 h    0.861   611 h    0.843
   611   1 h    0.885 --   610 o    0.843
   612   1 h    0.890 --   610 o    0.861
   613   8 o    1.810 --   614 h    0.849   615 h    0.848
   614   1 h    0.887 --   613 o    0.849
   615   1 h    0.888 --   613 o    0.848
   616   8 o    1.823 --   617 h    0.865   618 h    0.833
   617   1 h    0.890 --   616 o    0.865
   618   1 h    0.880 --   616 o    0.833
   619   8 o    1.859 --   621 h    0.859   620 h    0.807
   620   1 h    0.878 --   619 o    0.807
   621   1 h    0.895 --   619 o    0.859
   622   8 o    1.822 --   623 h    0.900   624 h    0.805
   623   1 h    0.904 --   622 o    0.900
   624   1 h    0.880 --   622 o    0.805
   625   8 o    1.797 --   626 h    0.859   627 h    0.825
   626   1 h    0.892 --   625 o    0.859
   627   1 h    0.885 --   625 o    0.825
   628   8 o    1.803 --   630 h    0.876   629 h    0.813
   629   1 h    0.887 --   628 o    0.813
   630   1 h    0.894 --   628 o    0.876
   631   8 o    1.848 --   632 h    0.854   633 h    0.825
   632   1 h    0.885 --   631 o    0.854
   633   1 h    0.889 --   631 o    0.825
   634   8 o    1.822 --   636 h    0.892   635 h    0.775
   635   1 h    0.866 --   634 o    0.775
   636   1 h    0.906 --   634 o    0.892
   637   8 o    1.826 --   638 h    0.863   639 h    0.843
   638   1 h    0.886 --   637 o    0.863
   639   1 h    0.887 --   637 o    0.843
   640   8 o    1.825 --   642 h    0.866   641 h    0.803
   641   1 h    0.875 --   640 o    0.803
   642   1 h    0.892 --   640 o    0.866
   643   8 o    1.859 --   644 h    0.893   645 h    0.796
   644   1 h    0.905 --   643 o    0.893
   645   1 h    0.880 --   643 o    0.796
   646   8 o    1.873 --   648 h    0.829   647 h    0.800
   647   1 h    0.866 --   646 o    0.800
   648   1 h    0.883 --   646 o    0.829
   649   8 o    1.836 --   650 h    0.870   651 h    0.816
   650   1 h    0.897 --   649 o    0.870
   651   1 h    0.869 --   649 o    0.816
   652   8 o    1.857 --   654 h    0.847   653 h    0.831
   653   1 h    0.892 --   652 o    0.831
   654   1 h    0.888 --   652 o    0.847
   655   8 o    1.849 --   657 h    0.834   656 h    0.829
   656   1 h    0.888 --   655 o    0.829
   657   1 h    0.889 --   655 o    0.834
   658   8 o    1.818 --   660 h    0.859   659 h    0.808
   659   1 h    0.872 --   658 o    0.808
   660   1 h    0.892 --   658 o    0.859
   661   8 o    1.825 --   663 h    0.885   662 h    0.814
   662   1 h    0.879 --   661 o    0.814
   663   1 h    0.899 --   661 o    0.885
   664   8 o    1.857 --   666 h    0.821   665 h    0.818
   665   1 h    0.879 --   664 o    0.818
   666   1 h    0.875 --   664 o    0.821
   667   8 o    1.819 --   669 h    0.901   668 h    0.789
   668   1 h    0.878 --   667 o    0.789
   669   1 h    0.906 --   667 o    0.901
   670   8 o    1.809 --   671 h    0.839   672 h    0.818
   671   1 h    0.884 --   670 o    0.839
   672   1 h    0.885 --   670 o    0.818
   673   8 o    1.836 --   674 h    0.865   675 h    0.775
   674   1 h    0.892 --   673 o    0.865
   675   1 h    0.868 --   673 o    0.775
   676   8 o    1.857 --   677 h    0.849   678 h    0.820
   677   1 h    0.890 --   676 o    0.849
   678   1 h    0.880 --   676 o    0.820
   679   8 o    1.843 --   680 h    0.834   681 h    0.813
   680   1 h    0.892 --   679 o    0.834
   681   1 h    0.875 --   679 o    0.813
   682   8 o    1.831 --   683 h    0.851   684 h    0.841
   683   1 h    0.888 --   682 o    0.851
   684   1 h    0.877 --   682 o    0.841
   685   8 o    1.825 --   687 h    0.845   686 h    0.803
   686   1 h    0.879 --   685 o    0.803
   687   1 h    0.901 --   685 o    0.845
   688   8 o    1.863 --   689 h    0.819   690 h    0.804
   689   1 h    0.894 --   688 o    0.819
   690   1 h    0.877 --   688 o    0.804
   691   8 o    1.841 --   692 h    0.874   693 h    0.787
   692   1 h    0.892 --   691 o    0.874
   693   1 h    0.866 --   691 o    0.787
   694   8 o    1.876 --   695 h    0.822   696 h    0.782
   695   1 h    0.880 --   694 o    0.822
   696   1 h    0.872 --   694 o    0.782
   697   8 o    1.854 --   699 h    0.840   698 h    0.833
   698   1 h    0.886 --   697 o    0.833
   699   1 h    0.893 --   697 o    0.840
   700   8 o    1.812 --   702 h    0.869   701 h    0.859
   701   1 h    0.885 --   700 o    0.859
   702   1 h    0.892 --   700 o    0.869
   703   8 o    1.812 --   704 h    0.851   705 h    0.824
   704   1 h    0.899 --   703 o    0.851
   705   1 h    0.876 --   703 o    0.824
   706   8 o    1.813 --   708 h    0.900   707 h    0.794
   707   1 h    0.874 --   706 o    0.794
   708   1 h    0.906 --   706 o    0.900
   709   8 o    1.827 --   710 h    0.864   711 h    0.842
   710   1 h    0.889 --   709 o    0.864
   711   1 h    0.890 --   709 o    0.842
   712   8 o    1.884 --   714 h    0.851   713 h    0.826
   713   1 h    0.875 --   712 o    0.826
   714   1 h    0.871 --   712 o    0.851
   715   8 o    1.892 --   717 h    0.837   716 h    0.824
   716   1 h    0.879 --   715 o    0.824
   717   1 h    0.886 --   715 o    0.837
   718   8 o    1.840 --   720 h    0.842   719 h    0.840
   719   1 h    0.881 --   718 o    0.840
   720   1 h    0.885 --   718 o    0.842
   721   8 o    1.845 --   723 h    0.835   722 h    0.813
   722   1 h    0.878 --   721 o    0.813
   723   1 h    0.892 --   721 o    0.835
   724   8 o    1.857 --   726 h    0.835   725 h    0.826
   725   1 h    0.879 --   724 o    0.826
   726   1 h    0.894 --   724 o    0.835
   727   8 o    1.813 --   729 h    0.837   728 h    0.817
   728   1 h    0.885 --   727 o    0.817
   729   1 h    0.889 --   727 o    0.837
   730   8 o    1.851 --   731 h    0.858   732 h    0.849
   731   1 h    0.885 --   730 o    0.858
   732   1 h    0.883 --   730 o    0.849
   733   8 o    1.841 --   734 h    0.824   735 h    0.796
   734   1 h    0.887 --   733 o    0.824
   735   1 h    0.872 --   733 o    0.796
   736   8 o    1.888 --   737 h    0.860   738 h    0.810
   737   1 h    0.896 --   736 o    0.860
   738   1 h    0.885 --   736 o    0.810
   739   8 o    1.854 --   741 h    0.856   740 h    0.787
   740   1 h    0.866 --   739 o    0.787
   741   1 h    0.893 --   739 o    0.856
   742   8 o    1.850 --   744 h    0.840   743 h    0.798
   743   1 h    0.873 --   742 o    0.798
   744   1 h    0.894 --   742 o    0.840
   745   8 o    1.845 --   746 h    0.894   747 h    0.798
   746   1 h    0.903 --   745 o    0.894
   747   1 h    0.878 --   745 o    0.798
   748   8 o    1.849 --   750 h    0.856   749 h    0.796
   749   1 h    0.870 --   748 o    0.796
   750   1 h    0.894 --   748 o    0.856
   751   8 o    1.810 --   752 h    0.884   753 h    0.818
   752   1 h    0.899 --   751 o    0.884
   753   1 h    0.875 --   751 o    0.818
   754   8 o    1.825 --   756 h    0.884   755 h    0.817
   755   1 h    0.871 --   754 o    0.817
   756   1 h    0.896 --   754 o    0.884
 ---------------------------------------------------------------------------

Topologies differ in total number of bonds
Writing topology from bond orders to xtbtopo.mol

molecular dipole:
                 x           y           z       tot (Debye)
 q only:        2.105       1.144      -0.278
   full:        2.809       0.762       0.222       7.418
molecular quadrupole (traceless):
                xx          xy          yy          xz          yz          zz
 q only:       34.495      23.385      20.302     -92.252     -21.712     -54.797
  q+dip:       56.950      45.796      17.447    -107.196     -19.532     -74.398
   full:       58.811      46.400      17.014    -106.093     -18.366     -75.825


           -------------------------------------------------
          | TOTAL ENERGY            -1283.627459312038 Eh   |
          | GRADIENT NORM               0.100599428028 Eh/α |
          | HOMO-LUMO GAP               7.728311570914 eV   |
           -------------------------------------------------

------------------------------------------------------------------------
 * finished run on 2022/11/24 at 09:28:09.410     
------------------------------------------------------------------------
 total:
 * wall-time:     0 d,  0 h,  0 min, 22.884 sec
 *  cpu-time:     0 d,  0 h,  0 min, 37.070 sec
 * ratio c/w:     1.620 speedup
 SCF:
 * wall-time:     0 d,  0 h,  0 min, 21.841 sec
 *  cpu-time:     0 d,  0 h,  0 min, 35.316 sec
 * ratio c/w:     1.617 speedup

