756
 energy: -1283.365076634228 gnorm: 0.019090024243 xtb: 6.5.1 (579679a)
o           -3.05563368960716       -8.41425479525014       -4.43087705001633
h           -3.57234647866813       -7.75290988780805       -4.93071660654239
h           -3.55503468657414       -8.57918514554817       -3.62011802773592
o            1.30487060673793       -2.88276302624550       -1.24949701787515
h            1.03516502486037       -3.76488665300481       -1.56101003867399
h            1.13403960438735       -2.87283977156659       -0.28467565288862
o            3.37240906941795       -0.11934341292778       -2.94677198600695
h            3.51317678895796        0.70172103699648       -2.40730766925695
h            2.41124575459167       -0.32230082029761       -2.93966873126643
o            4.43836853032109        0.44409912939769        2.29501969527468
h            5.18636885892369        0.74215471044498        2.85000684548495
h            4.18741445750419        1.19938087732488        1.72732581794392
o            0.92489475839101       -0.97346863278428       -3.14047220923614
h           -0.03066246875517       -0.72589426515364       -3.10301698161144
h            1.03836650026316       -1.72480390307758       -2.53245397804627
o           -3.36835316119392       -5.52134600804584        1.12056126413785
h           -2.63680319966515       -5.09219882936094        1.62149706536203
h           -4.04688123464242       -5.77449858665883        1.77264308243917
o            3.41824942796482       -2.82712650510775        1.77314928859229
h            3.22688102261950       -3.60818501434303        1.23146277534868
h            4.26791183923592       -2.45808242304635        1.48206683799830
o           -1.26652663959531       -4.21331325760139        0.04018296147187
h           -0.70551873014392       -4.79412010571567       -0.48877007865334
h           -1.65328195541326       -3.58646749985810       -0.60139038700503
o            2.79088643916975       -5.02981080684912        0.27046453310723
h            2.98859778522687       -5.04942993392895       -0.68383188285633
h            3.34748432843017       -5.67857729785810        0.73573014484110
o            0.81256219241263        1.70900460084377        2.10633802358026
h            1.32847256434804        1.29135052679242        2.83458737751530
h            0.27775299823112        2.41214547990839        2.50573504012550
o            1.27481049992674        2.68845277507312        5.15287373953134
h            0.65529778430339        1.93602324188159        5.25309676283322
h            0.97344576598658        3.21426651288954        4.39861793410912
o           -1.48907320634793        0.32951500552868        2.95094677551968
h           -0.69966279998725        0.65853911080261        2.48972103291105
h           -1.54034443039128       -0.63804287990418        2.79951718746894
o            0.89243913080195       -5.39568503770407       -6.13818689951689
h            1.13807911981212       -4.83006023278124       -5.37930228532389
h            0.34156222191067       -6.11261082538990       -5.78743100125934
o           -1.06191603747874        3.27638484882648        3.22828696018918
h           -1.51902626796915        3.40093192237148        2.38029349686345
h           -1.06601856349772        4.10956301552683        3.74208745612031
o            4.02644534673842        2.07453893213040       -1.75912551149373
h            4.99342593652469        2.21759571685802       -1.80636069061099
h            3.74339518049889        2.15710134577028       -0.82499059775984
o           -1.19907614655331       -1.38066594490566       -6.34428870919538
h           -1.14975285492939       -2.12359125227950       -6.96761316096512
h           -0.31096851874926       -0.97013615829343       -6.32266911690117
o           -1.59923408422795       -0.37910196742816       -3.34151618648406
h           -1.46254731470896        0.09796824281094       -4.18193702891222
h           -2.12126627419523        0.23653402365529       -2.79601387949392
o           -7.86935809950391       -0.39086296533703       -3.65990671484480
h           -8.09242157630887       -0.29365563155532       -4.60727598565043
h           -8.39212345510348        0.26919692742470       -3.17839973261755
o           -5.29532883151514        0.19826471930542       -3.34775540560496
h           -6.21333530604512       -0.13185854506671       -3.44635348645725
h           -4.93332123460085       -0.28002550191991       -2.57692006322085
o           -2.07153951170849        3.22070848889198        0.69116541707563
h           -2.85421298199460        2.70509715102909        0.48663113015157
h           -1.62814976994509        3.39431293098535       -0.15933728561724
o           -3.45397368075069        2.47995942781671       -4.96642050332984
h           -3.49600780645076        3.19701062229081       -4.29364839814801
h           -3.88465655799274        2.83637405324942       -5.76969822490439
o            1.18361531898769       -0.41456551713776       -5.75910038898781
h            1.06502199849052       -0.50250338277920       -4.79498419543519
h            1.19083021511807        0.52543003675225       -5.99805800061775
o           -4.37478672882003       -3.79118576736509       -0.84014519385389
h           -3.90417212768219       -4.12289762058980       -0.06702396758178
h           -4.26193059039053       -2.82748129317480       -0.90955844071385
o           -4.34403230437364       -1.06519425697430       -1.11466549488439
h           -4.91644242236694       -0.89745006453707       -0.34334521394539
h           -3.46790806845742       -0.72224323369247       -0.84823092640366
o           -2.02069973412522       -2.22662533762036        2.25853294446001
h           -2.91531618512579       -2.53044270753279        2.48942652343809
h           -1.45418231458537       -2.96394535381363        2.51013564521724
o           -4.63978972303411        1.82367839370438       -0.15717758661756
h           -4.87932643801016        2.75870988335524       -0.26834273010373
h           -5.43864678111824        1.29728658224133       -0.36789125056819
o            1.33111413430305       -2.16253124896647       -8.11136712575096
h            2.05876881039332       -2.78283421921695       -8.20557724111080
h            0.53029254730088       -2.70474732006132       -8.08281409120007
o            3.81341097290297       -2.03967727526452       -1.20405153049149
h            2.89511738059973       -2.37022020159807       -1.12858106979357
h            3.77853080543890       -1.35631518416501       -1.89737538176712
o           -6.94838818454887       -2.39112836785837       -1.10404004957017
h           -7.62142846440607       -3.07521694399035       -1.27278719191444
h           -6.45791934925341       -2.37592861736819       -1.94480578426684
o            3.12225232642644        2.15071063936332        0.75775060599832
h            2.22294444516172        1.92423121827527        1.06414246417211
h            3.36682547073582        2.94152035329431        1.28383029419001
o           -7.13105847500132       -2.75006138545754       -6.13116354436871
h           -7.78483909084540       -3.44860833644820       -6.15403315624682
h           -6.81549664497806       -2.72031044031765       -5.19137466235931
o           -5.38211751176316       -1.13007954585479        3.76474581251817
h           -4.99120696623034       -2.01236744419820        3.63731328864101
h           -4.71239073849849       -0.63972538204805        4.27692235199974
o            3.31653851670110        4.27074924787263       -6.01564444948619
h            3.22005508675296        4.15520112889276       -5.04505745563416
h            4.01112084875974        4.92161960088637       -6.11273023877899
o            4.54710686423298       -4.44052361512145        3.92784492078600
h            5.12006630657518       -5.18403538774046        4.17197576923614
h            4.89024993579699       -4.13446206611674        3.06666374298391
o            5.54743882552483       -1.44953612241625        0.79438545669919
h            5.30799280143978       -0.65008246848720        1.30813602913518
h            5.01251762815342       -1.43197662484532       -0.01463219794220
o           -6.33444509170888       -3.60367858366133        1.24709467979829
h           -6.36060380868166       -4.54336534577966        0.99879764083438
h           -6.40131294320476       -3.10948992251046        0.40408484811013
o            1.40030175508395        3.69858966905579       -0.86314762581991
h            0.86268735746215        3.98725439197408       -0.11018892687681
h            1.37916616584505        2.72992724872562       -0.92707299788898
o            0.44698956962965       -1.47820167195660        3.53812084994376
h            0.58304843300629       -1.97531696193582        2.71358545864151
h            0.57540530051539       -2.10474088542850        4.26041617593136
o           -2.99813138894239        1.56097670697731       -2.23809498545589
h           -3.60161648195239        1.58799407577050       -1.46923282428911
h           -3.55413921225755        1.65502890375143       -3.01930119827814
o            5.91853788579519       -0.09044151820906       -3.69352239972600
h            4.98202051488280       -0.23036618682744       -3.49342471099031
h            6.35207836967274        0.01725601419917       -2.81802051935256
o            5.53640970464828       -6.60844819678741       -1.06056304980413
h            5.31889044022918       -5.65563968738626       -0.95946808448350
h            6.24523652038543       -6.57958601146520       -1.73521874211144
o            3.27604203325837        1.47912472397100       -5.09083606068698
h            4.13141045629991        1.90620241654833       -5.25344518040094
h            3.44845695646235        0.72560362368087       -4.50391992853965
o           -3.65185188679185       -2.36012072373493       -4.05344454833344
h           -3.51676163402505       -1.46538893234553       -4.42390730386295
h           -3.19244081491477       -2.39665822094494       -3.19625285906082
o           -1.69880109949043        1.31077433189030       -7.86193268319295
h           -1.39948348836009        1.24826082048995       -6.93469826711907
h           -0.96046687029082        0.94335262037829       -8.39178605973455
o            6.98676686008820       -0.17099111943584       -1.31766445355098
h            7.94947482367123       -0.25542787290193       -1.29481430427092
h            6.74671874735911        0.38450759412661       -0.53933170196221
o            8.51627765218488        1.26594087464949       -3.76021964233797
h            7.81506640554132        1.82325778384370       -3.38643549311642
h            8.58385216661546        0.48148881732889       -3.18503302360225
o            1.74102903047225       -3.68088926629784       -4.24286049136005
h            2.18375461259756       -4.12355308732906       -3.49192145382993
h            2.34704277474803       -3.01263379689661       -4.58752015738325
o           -9.58066554713395       -1.40828781994297       -1.27596375241958
h           -9.94116580918797       -2.30474227817260       -1.15452132808674
h           -9.92883348393174       -1.09286870750692       -2.13861370558590
o            1.19851115430545        4.75796845386944        3.39677943155667
h            1.52648970137691        5.64518348375624        3.63141387308827
h            0.79588545726016        4.84766148764810        2.50430260445837
o           -5.96552543173592        0.88081329778056       -6.08974498131121
h           -5.49177158508959        0.55078867309942       -5.31264361210832
h           -5.34542368206711        0.84959051657735       -6.84399343173430
o            3.22754478925778       -4.95978465284568       -2.39962907926925
h            3.87958180696398       -4.27917945729051       -2.63981445208573
h            3.49956190332093       -5.76669360118298       -2.87497149536853
o           -1.07929765306582        1.40011674250121       -5.23422736388359
h           -1.84074830732082        1.99861185287450       -5.08486780044066
h           -0.31825594997307        1.74077640949570       -4.73150417032515
o            5.04118706259323        7.38855085281175       -0.67489467928542
h            5.41892471814814        8.23955801025792       -0.46025284809919
h            4.10786992298378        7.54552665364828       -0.97225161069731
o            4.02904240959746        2.29393533287565        4.75074027354053
h            4.33487616902282        1.37241520147154        4.77496928319250
h            3.07044591133301        2.29237575852008        4.92314934114467
o            3.14580604444150        2.93338682224886        7.88607188015366
h            2.79841767307110        3.74589089916709        7.49948402311975
h            2.88771821448574        2.20596914903650        7.29332807934655
o            6.53259069772532        1.40880516749522        0.71741492454061
h            5.97902745178347        2.18695851470016        0.52762595344829
h            7.28661668606910        1.74790383193461        1.21973849023650
o           -3.84693606679282        4.12308490007247        2.62448590180768
h           -3.75859522438872        3.13793531377148        2.68347619483513
h           -3.85487751575597        4.48599662410218        3.53971218529591
o           -3.84588509609018        1.51283399824364        2.48008182830533
h           -3.00840210288931        1.05282545202184        2.67363404434799
h           -4.14859319100573        1.26892074177343        1.59591812893561
o           -6.16101126259948       -2.79870375954467       -3.66759127703178
h           -5.24915966219833       -2.45286733582995       -3.82115982228396
h           -5.99396459079755       -3.74436033320924       -3.51466676011955
o          -11.29283749678346       -0.38703704409172        0.44187202180460
h          -10.94175625895580       -0.35969154282900        1.34910955013339
h          -10.56764066756554       -0.68146405947563       -0.15679643635266
o            5.92354352233096       -4.09664005572602        1.68887387591100
h            6.24263439932675       -5.01004468088285        1.74822378470507
h            5.77109951557424       -3.94615089498792        0.73351771774622
o           -6.01154472586642        2.68237116033738       -2.69382250157518
h           -5.75819619467164        1.74457482624323       -2.86269239290776
h           -6.54468460120331        2.69825434336372       -1.88179522421232
o           -4.54613046762346        3.36940673359632       -7.27790274687735
h           -3.77146668419451        3.79431590097436       -7.66514429605051
h           -4.68927992894254        2.56913564164338       -7.79754206386686
o            2.52805332425488       -3.79850656168589        6.48073871933629
h            1.73881277307789       -3.22359572942431        6.48970688050430
h            2.23330106820091       -4.67876635761802        6.21564619673034
o           -8.69394128510176        2.28701632141751        5.25682888228699
h           -8.20007053312152        2.44763571781547        6.06582083633116
h           -8.56693381158482        1.35178680278502        5.03741235884380
o           -6.86858520925303        0.46620254464702       -0.98165704672448
h           -6.92581975814287       -0.49116883033060       -1.09549261066325
h           -7.69969548944480        0.83152327945385       -1.32255734349706
o            5.36073740814676        3.75541488068352        0.34765196374578
h            6.23069968023378        4.18121249087934        0.21980687460699
h            4.71036486418627        4.28500840754975       -0.16403269358160
o           -1.31382468710733       -4.96578167328920        2.71378229012315
h           -1.47072738225029       -5.69352524777157        3.33463896422223
h           -0.64492266286618       -5.29079435133553        2.09009116838733
o           -9.09958923076688        1.58073380084428       -2.11496215018023
h           -9.92837147277488        1.55898135386244       -1.62277301664385
h           -8.98300860678295        2.51124736611405       -2.39010707065300
o           -0.85172377587958       -3.79945989489727       -7.50843206238994
h           -1.74037408863339       -3.98871306153899       -7.14997298264628
h           -0.25066065374428       -4.43196896611470       -7.07188859439100
o           -2.15449367051258       -5.10024428381433       -3.58388313619800
h           -1.79977515042193       -4.26143017433728       -3.95588549408475
h           -3.12168798967886       -5.05215181377597       -3.66215118463635
o           -2.01309628143078       -2.61588810460557       -1.91055644374402
h           -1.98610809033497       -1.71499022128825       -1.57332639853152
h           -1.42210775386077       -2.65046874099706       -2.68925941289865
o            2.97389088389132        3.95798362588986       -3.36088867048640
h            3.48982220712464        3.29253473972834       -2.86424976506326
h            2.07484662320183        3.59890271720459       -3.35081248022162
o            2.98538679252483       -2.11060078068461        4.34457857992254
h            3.12454553891398       -2.48019101249520        3.45758057771592
h            2.92399106832046       -2.83574231380822        4.98280091701027
o           -4.63227466983091        4.62342298855230       -0.05322652586189
h           -4.15095021608728        4.45264418539699        0.76853058549778
h           -5.30420231879170        5.29434264060646        0.17891484140058
o           -2.56850772710141       -6.52350657226801       -1.30657286037993
h           -2.85741548159713       -5.97591798807206       -0.55592337312319
h           -2.45186171872373       -5.92925839230090       -2.06579335604152
o           -2.68368017461611        2.22264610938933        5.04284793523933
h           -2.35206332088241        2.64962482677573        5.85745412956243
h           -2.07767140633969        2.48521603402889        4.32172948134289
o           -0.39575098268338        0.55906060933205        5.38415228627408
h           -0.80923933242133        0.46651619671823        4.49817526987268
h            0.05191906098335       -0.28826674915521        5.55339119387252
o           -4.30745138596734       -3.38904593687424        2.89481560222742
h           -4.99764032573339       -3.58230188474465        2.22507169206413
h           -4.18451314067337       -4.14557326158598        3.48109535163424
o          -11.86507907719300        2.59234557598972       -3.24552746898965
h          -11.59566850568796        3.39965710358974       -2.80272712967113
h          -11.14733268688344        2.32009486154858       -3.83512951748797
o           -5.47330559830274        4.92377912358642       -4.91385005260754
h           -5.88689906283083        4.41943874637730       -5.61745645452891
h           -4.56342177881892        5.09486900891303       -5.20800741281637
o           -8.58171572971362       -4.39827319244126       -1.99646666907342
h           -8.78420213712774       -3.90413447798572       -2.82535058627207
h           -9.40890027297010       -4.43680792576598       -1.50156409348944
o           -8.08605084030001       -0.29606332343232        4.19760885545795
h           -7.52813831016141       -0.30244809903964        4.99700484459231
h           -7.58497863358795        0.25875621799334        3.54954704688345
o            0.84079570819350        4.82522253892979       -7.09992767818979
h            0.53114733022152        5.61185367234844       -6.61568361891650
h            1.77972250928240        4.74151266919628       -6.85262067143406
o            3.58865898725463        5.15623468501982       -0.95021904494159
h            2.78544392467466        4.62143426203684       -0.78517022215429
h            3.69991754403265        5.13080831777856       -1.90671175620103
o            1.03848443675253        2.09234480067855       -3.73837769256428
h            1.08027293337548        1.62011932498998       -2.89337142936160
h            1.83423970682482        1.85908516941979       -4.25719665092996
o            1.26889621597554        2.14338518784278       -6.77402480472568
h            2.17724033500219        2.30042524337337       -6.48730624702684
h            0.90026903617566        3.01969180484191       -6.96681429863934
o            9.39098726863155       -1.15437025660115       -5.15612466072990
h            8.47825227071251       -1.43310823344041       -5.38921749040408
h            9.38469554811550       -0.19341881505523       -5.17657462983257
o            7.62718761127196       -4.41634840326413       -5.03353084550362
h            7.32362932513501       -3.49879972189145       -5.13303809687200
h            8.59648258774370       -4.35187221774626       -4.96152650808391
o           -4.05851039776330        2.14984619114370        7.77710157746317
h           -3.42281660064109        1.41605304142285        7.73367497939226
h           -3.51841485357168        2.94305466975224        7.72041501462248
o            8.42271745876505       -0.17905187128794        2.69175092326708
h            7.71719153552165        0.46719258375513        2.95401046593576
h            8.68923245463841        0.06247632800373        1.78178486149113
o            6.61136914211651       -2.07779783272809        3.41267885888190
h            7.23278803936326       -1.41671591776122        3.06292972933026
h            6.26473340807618       -2.56230057017736        2.64675217954221
o            6.54390567647563        1.35995142392773        3.66552410252321
h            6.81695630284279        1.28503314047836        4.60119611941462
h            6.48486962295258        2.31238936266317        3.45179336905297
o           -4.78204223123606       -1.91871930838669       -7.33333237253490
h           -4.44082325709370       -1.32905839559394       -6.63739803990183
h           -5.66061179892485       -2.20433729088795       -7.04064620828976
o           -8.31117163611398       -1.15412596512368        1.07807685867929
h           -8.77640416445117       -1.88651888027428        1.50395690856729
h           -8.44762334475446       -1.28178027188014        0.12404344139185
o           -5.62476031725123       -0.56448559582847        1.22585337396883
h           -6.53303647438418       -0.87249818175222        1.07239921000618
h           -5.40834048662993       -0.83618317632159        2.14850411536830
o            1.00128986940319        5.88481341432407       -2.32198779857284
h            1.64405433856931        5.80330760718604       -3.04312984486736
h            0.98474393503861        5.03280582567130       -1.84935216172234
o           -1.85225884365283        0.52101519046193        7.62477588269573
h           -1.25088278254701        0.97805869455884        8.22106513227380
h           -1.43037193099445        0.61034392927423        6.73897903537733
o            8.63286970096775        2.55801750097460        2.20731554301172
h            8.51878018585280        2.87417635284262        3.12033737420408
h            9.57740818713622        2.36192708726747        2.07658078564119
o            2.31422701129265       -0.60641025613919        0.71677756159933
h            3.02080262293859       -0.17478037128440        1.20076164499698
h            2.31879848926845       -1.51921109645221        1.04285254794730
o            9.30727659819841       -1.00047803457855       -2.45049018875056
h           10.23689194765115       -0.79167747445069       -2.25673933282611
h            9.31426723754974       -1.33253925857102       -3.36519323008740
o            7.46399253191254        3.97130735235369       -5.15038035286297
h            7.97141400763543        4.03302305242818       -5.95859583247897
h            6.92277230212532        3.15394573928596       -5.22720657513534
o            4.66266137571219       -3.15954020256731       -3.82192530881302
h            4.36656581368285       -2.46835741429298       -4.43357164906624
h            5.54300476663617       -2.90496484318573       -3.48251454270275
o          -12.73077712487575        0.36896733026805       -1.88665576296147
h          -12.29189361569445        0.45155206160649       -1.02783232254098
h          -12.62788070452221        1.23707547052753       -2.31417973489697
o          -10.88345545746473        4.71935089035258       -0.97041336166813
h          -10.22287071555207        4.62140732763966       -1.68937871356423
h          -10.37520507971916        5.11887075908627       -0.24709052257548
o           -3.93522405720123        5.54308403262876        4.82116864250629
h           -4.65486639003512        5.18278889815590        5.38675483793272
h           -4.33835999789952        6.27340534937206        4.31374231538357
o           -2.39381909910866        5.89446836702874       -1.01111447469182
h           -3.26736759916316        5.48682471134836       -0.87145731164868
h           -2.08299786354577        6.17560688814524       -0.14664558619449
o            3.37032639211105       -1.83686538978086       -5.80115090048611
h            3.27766731090785       -2.60567584085287       -6.40429301272840
h            2.54593429609560       -1.30214270979094       -5.90886069649313
o           -5.45310026987735        7.11629562957122        3.20367942707200
h           -5.66982611537004        6.83651754732812        2.29688040820243
h           -6.25366500080356        6.90482262209070        3.69910751600792
o           -0.93951236423458        7.63644017721377       -2.88741766141374
h           -0.35245200410074        6.93314752726274       -2.54629226976235
h           -0.62598894572281        7.78842144451338       -3.78938007243261
o            5.06489820209340       -5.15559323157945       -5.51931129183437
h            6.02856738968733       -5.16566448904477       -5.60901086681222
h            4.89734845363840       -4.41660044744069       -4.88292934987622
o           -4.31854859043775        0.73357789394081       -8.23724624237257
h           -3.35496738223610        0.88250511422387       -8.13897459039004
h           -4.43234981337962       -0.21851614802697       -8.35438211870516
o           -1.68514341165740       -2.15832403395715        7.68368428863014
h           -1.95067370162245       -2.39380142611014        6.77022169747889
h           -1.83227986450653       -1.19654258618833        7.76527733636025
o           -4.38608039247210       -6.28148800482197       -5.52210972667479
h           -4.74983540602416       -5.91136408246074       -4.70835320757292
h           -3.94143870682478       -5.53645602744388       -5.96182010617960
o           -4.86277042594662       -5.08397973232321       -3.04866158865436
h           -5.57073280766356       -5.67891556042677       -2.71530510298185
h           -4.60025761710156       -4.57457787038390       -2.24453829365826
o           -7.24169176713724        3.27428851762093       -0.33254527284752
h           -6.75435111445140        3.57976557378003        0.45767350553865
h           -7.76861431615052        2.51587348958459       -0.00344256448077
o           -6.81941524401446       -6.45812019633440       -1.97332212702092
h           -7.54767739464881       -5.83224022730208       -2.13541777268202
h           -6.65224168552463       -6.36932586937249       -1.00933547675704
o            7.47802154891114       -1.70750307758279        6.24000582547085
h            6.63326319508533       -2.18889955962048        6.29945905535492
h            8.09177946446833       -2.31740743549788        5.82743667804765
o           -1.83169845906017        4.01816905720618       -7.88271547956504
h           -1.76258833587222        3.04144141562387       -7.94678824492056
h           -0.92526587875648        4.34481805920057       -7.84227729381664
o            5.43929270295850        5.69206341690729       -4.30529495486713
h            5.77638618098402        5.67671064853149       -3.39139361875639
h            6.05978544999109        5.12240599875829       -4.78004396862181
o          -12.94173702610380       -2.38571514276045        0.30820167220580
h          -12.38300596074105       -1.55810354684354        0.33141279025223
h          -13.66862485176526       -2.18636112975570       -0.28105058142469
o            3.52426202112947        3.91318260284637        2.61360876661692
h            2.63204714050615        4.15155640533083        2.95509048563512
h            3.95462993300101        3.41505615646088        3.32944289990420
o            0.46530261093078        1.95948099810534        8.12958968146067
h            1.14253877499876        2.45012402458476        8.60448761920086
h            0.95499683429813        1.39979636283078        7.50268263272315
o           -2.13021869566445       -2.67959094749567        5.07635626803052
h           -1.22903571097346       -3.00060496931263        4.88137681582022
h           -2.70546426759480       -3.45224196661108        5.00388784435378
o            1.61248330209862       -6.42581062553230        5.67670977853135
h            0.80825332491277       -6.40442736581623        6.20589182933559
h            1.37367176215463       -6.87599904806515        4.85347926420829
o           -1.23424699659030        3.70577657228905       -1.84682066425736
h           -1.98503134873443        3.16043257358448       -2.14242262153209
h           -1.61695501068375        4.59546204974663       -1.65545968981105
o            2.33984918551576        0.50609417864617        6.68118336243931
h            3.15411726767030        0.08539742167687        7.01111144042957
h            2.33796913809000        0.41929208729924        5.70474874843004
o           -4.58023564225926       -8.25231123297469       -1.93707456648367
h           -5.38400875958761       -7.76812032019638       -2.16271324824960