      -----------------------------------------------------------      
     |                   =====================                   |     
     |                           x T B                           |     
     |                   =====================                   |     
     |                         S. Grimme                         |     
     |          Mulliken Center for Theoretical Chemistry        |     
     |                    University of Bonn                     |     
      -----------------------------------------------------------      

   * xtb version 6.5.1 (579679a) compiled by 'ehlert@majestix' on 2022-07-11

   xtb is free software: you can redistribute it and/or modify it under
   the terms of the GNU Lesser General Public License as published by
   the Free Software Foundation, either version 3 of the License, or
   (at your option) any later version.
   
   xtb is distributed in the hope that it will be useful,
   but WITHOUT ANY WARRANTY; without even the implied warranty of
   MERCHANTABILITY or FITNESS FOR A PARTICULAR PURPOSE.  See the
   GNU Lesser General Public License for more details.
   
   Cite this work as:
   * C. Bannwarth, E. Caldeweyher, S. Ehlert, A. Hansen, P. Pracht,
     J. Seibert, S. Spicher, S. Grimme, WIREs Comput. Mol. Sci., 2020, 11,
     e01493. DOI: 10.1002/wcms.1493
   
   for GFN2-xTB:
   * C. Bannwarth, S. Ehlert and S. Grimme., J. Chem. Theory Comput., 2019,
     15, 1652-1671. DOI: 10.1021/acs.jctc.8b01176
   for GFN1-xTB:
   * S. Grimme, C. Bannwarth, P. Shushkov, J. Chem. Theory Comput., 2017,
     13, 1989-2009. DOI: 10.1021/acs.jctc.7b00118
   for GFN0-xTB:
   * P. Pracht, E. Caldeweyher, S. Ehlert, S. Grimme, ChemRxiv, 2019, preprint.
     DOI: 10.26434/chemrxiv.8326202.v1
   for GFN-FF:
   * S. Spicher and S. Grimme, Angew. Chem. Int. Ed., 2020, 59, 15665-15673.
     DOI: 10.1002/anie.202004239
   
   for ALPB and GBSA implicit solvation:
   * S. Ehlert, M. Stahn, S. Spicher, S. Grimme, J. Chem. Theory Comput.,
     2021, 17, 4250-4261. DOI: 10.1021/acs.jctc.1c00471
   
   for DFT-D4:
   * E. Caldeweyher, C. Bannwarth and S. Grimme, J. Chem. Phys., 2017,
     147, 034112. DOI: 10.1063/1.4993215
   * E. Caldeweyher, S. Ehlert, A. Hansen, H. Neugebauer, S. Spicher,
     C. Bannwarth and S. Grimme, J. Chem. Phys., 2019, 150, 154122.
     DOI: 10.1063/1.5090222
   * E. Caldeweyher, J.-M. Mewes, S. Ehlert and S. Grimme, Phys. Chem. Chem. Phys.
     2020, 22, 8499-8512. DOI: 10.1039/D0CP00502A
   
   for sTDA-xTB:
   * S. Grimme and C. Bannwarth, J. Chem. Phys., 2016, 145, 054103.
     DOI: 10.1063/1.4959605
   
   in the mass-spec context:
   * V. Asgeirsson, C. Bauer and S. Grimme, Chem. Sci., 2017, 8, 4879.
     DOI: 10.1039/c7sc00601b
   * J. Koopman and S. Grimme, ACS Omega 2019, 4, 12, 15120-15133.
     DOI: 10.1021/acsomega.9b02011
   
   for metadynamics refer to:
   * S. Grimme, J. Chem. Theory Comput., 2019, 155, 2847-2862
     DOI: 10.1021/acs.jctc.9b00143
   
   for SPH calculations refer to:
   * S. Spicher and S. Grimme, J. Chem. Theory Comput., 2021, 17, 1701-1714
     DOI: 10.1021/acs.jctc.0c01306
   
   with help from (in alphabetical order)
   P. Atkinson, C. Bannwarth, F. Bohle, G. Brandenburg, E. Caldeweyher
   M. Checinski, S. Dohm, S. Ehlert, S. Ehrlich, I. Gerasimov, C. Hölzer
   A. Katbashev, J. Koopman, C. Lavigne, S. Lehtola, F. März, M. Müller,
   F. Musil, H. Neugebauer, J. Pisarek, C. Plett, P. Pracht, F. Pultar,
   J. Seibert, P. Shushkov, S. Spicher, M. Stahn, M. Steiner, T. Strunk,
   J. Stückrath, T. Rose, and J. Unsleber
   
 * started run on 2022/11/03 at 00:49:15.946     

           -------------------------------------------------
          |                Calculation Setup                |
           -------------------------------------------------

          program call               : xtb cluster.xyz --gfn2 --ohess
          hostname                   : cn0272
          coordinate file            : cluster.xyz
          omp threads                :                     1

   ID    Z sym.   atoms
    1    1 H      1, 3, 5, 6, 8, 10-12, 14, 15, 17, 18, 20, 21, 23, 24, 26,
                  27, 29, 30, 32, 33, 35, 36, 38, 39, 41, 42, 44, 45, 47, 48,
                  50, 51, 53, 54, 56, 57, 59, 60, 62, 63, 65, 66, 68, 69, 71,
                  72, 74, 75, 77, 78, 80, 81, 83, 84, 86, 87, 89, 90, 92, 93,
                  95, 96, 98, 99, 101, 102, 104, 105, 107, 108, 110, 111,
                  113, 114, 116, 117, 119, 120, 122, 123, 125, 126, 128, 129,
                  131, 132, 134, 135, 137, 138, 140, 141, 143, 144, 146, 147,
                  149, 150, 152, 153, 155, 156, 158, 159, 161, 162, 164, 165,
                  167, 168, 170, 171, 173, 174, 176, 177, 179, 180, 182, 183,
                  185, 186, 188, 189, 191, 192, 194, 195, 197, 198, 200, 201,
                  203, 204, 206, 207, 209, 210, 212, 213, 215, 216, 218, 219,
                  221, 222, 224, 225, 227, 228, 230, 231, 233, 234, 236, 237,
                  239, 240, 242, 243, 245, 246, 248, 249, 251, 252, 254, 255,
                  257, 258, 260, 261, 263, 264, 266, 267, 269, 270, 272, 273,
                  275, 276, 278, 279, 281, 282, 284, 285, 287, 288, 290, 291,
                  293, 294, 296, 297, 299, 300, 302, 303, 305, 306, 308, 309,
                  311, 312, 314, 315, 317, 318, 320, 321, 323, 324, 326, 327,
                  329, 330, 332, 333, 335, 336, 338, 339, 341, 342, 344, 345,
                  347, 348, 350, 351, 353, 354, 356, 357, 359, 360, 362, 363,
                  365, 366, 368, 369, 371, 372, 374, 375, 377, 378, 380, 381,
                  383, 384, 386, 387, 389, 390, 392, 393, 395, 396, 398, 399,
                  401, 402, 404, 405, 407, 408, 410, 411, 413, 414, 416, 417,
                  419, 420, 422, 423, 425, 426, 428, 429, 431, 432, 434, 435,
                  437, 438, 440, 441, 443, 444, 446, 447, 449, 450, 452, 453,
                  455, 456, 458, 459, 461, 462, 464, 465, 467, 468, 470, 471,
                  473, 474, 476, 477, 479, 480, 482, 483, 485, 486, 488, 489,
                  491, 492, 494, 495, 497, 498, 500, 501, 503, 504, 506, 507,
                  509, 510, 512, 513, 515, 516, 518, 519, 521, 522, 524, 525,
                  527, 528, 530, 531, 533, 534, 536, 537, 539, 540, 542, 543,
                  545, 546, 548, 549, 551, 552, 554, 555, 557, 558, 560, 561,
                  563, 564, 566, 567, 569, 570, 572, 573, 575, 576, 578, 579,
                  581, 582, 584, 585, 587, 588, 590, 591, 593, 594, 596, 597,
                  599, 600, 602, 603, 605, 606, 608, 609, 611, 612
    2    6 C      2, 4
    3    8 O      7, 13, 16, 19, 22, 25, 28, 31, 34, 37, 40, 43, 46, 49, 52,
                  55, 58, 61, 64, 67, 70, 73, 76, 79, 82, 85, 88, 91, 94, 97,
                  100, 103, 106, 109, 112, 115, 118, 121, 124, 127, 130, 133,
                  136, 139, 142, 145, 148, 151, 154, 157, 160, 163, 166, 169,
                  172, 175, 178, 181, 184, 187, 190, 193, 196, 199, 202, 205,
                  208, 211, 214, 217, 220, 223, 226, 229, 232, 235, 238, 241,
                  244, 247, 250, 253, 256, 259, 262, 265, 268, 271, 274, 277,
                  280, 283, 286, 289, 292, 295, 298, 301, 304, 307, 310, 313,
                  316, 319, 322, 325, 328, 331, 334, 337, 340, 343, 346, 349,
                  352, 355, 358, 361, 364, 367, 370, 373, 376, 379, 382, 385,
                  388, 391, 394, 397, 400, 403, 406, 409, 412, 415, 418, 421,
                  424, 427, 430, 433, 436, 439, 442, 445, 448, 451, 454, 457,
                  460, 463, 466, 469, 472, 475, 478, 481, 484, 487, 490, 493,
                  496, 499, 502, 505, 508, 511, 514, 517, 520, 523, 526, 529,
                  532, 535, 538, 541, 544, 547, 550, 553, 556, 559, 562, 565,
                  568, 571, 574, 577, 580, 583, 586, 589, 592, 595, 598, 601,
                  604, 607, 610
    4    7 N      9

molecular fragmentation (1/2 indicates fragments):
111111111111222222222222222222222222222222222222222222222222222222222222
222222222222222222222222222222222222222222222222222222222222222222222222
222222222222222222222222222222222222222222222222222222222222222222222222
222222222222222222222222222222222222222222222222222222222222222222222222
222222222222222222222222222222222222222222222222222222222222222222222222
222222222222222222222222222222222222222222222222222222222222222222222222
222222222222222222222222222222222222222222222222222222222222222222222222
222222222222222222222222222222222222222222222222222222222222222222222222
222222222222222222222222222222222222
# atoms in fragment 1/2:    12   600
 fragment masses (1/2) :       62.09     3603.06
CMA distance (Bohr)    :   1.809
constraining FC (au)   :  0.0500

           -------------------------------------------------
          |                 G F N 2 - x T B                 |
           -------------------------------------------------

        Reference                      10.1021/acs.jctc.8b01176
      * Hamiltonian:
        H0-scaling (s, p, d)           1.850000    2.230000    2.230000
        zeta-weighting                 0.500000
      * Dispersion:
        s8                             2.700000
        a1                             0.520000
        a2                             5.000000
        s9                             5.000000
      * Repulsion:
        kExp                           1.500000    1.000000
        rExp                           1.000000
      * Coulomb:
        alpha                          2.000000
        third order                    shell-resolved
        anisotropic                    true
        a3                             3.000000
        a5                             4.000000
        cn-shift                       1.200000
        cn-exp                         4.000000
        max-rad                        5.000000


          ...................................................
          :                      SETUP                      :
          :.................................................:
          :  # basis functions                1224          :
          :  # atomic orbitals                1224          :
          :  # shells                          816          :
          :  # electrons                      1626          :
          :  max. iterations                   250          :
          :  Hamiltonian                  GFN2-xTB          :
          :  restarted?                      false          :
          :  GBSA solvation                  false          :
          :  PC potential                    false          :
          :  electronic temp.          300.0000000     K    :
          :  accuracy                    1.0000000          :
          :  -> integral cutoff          0.2500000E+02      :
          :  -> integral neglect         0.1000000E-07      :
          :  -> SCF convergence          0.1000000E-05 Eh   :
          :  -> wf. convergence          0.1000000E-03 e    :
          :  Broyden damping             0.4000000          :
          ...................................................

 iter      E             dE          RMSdq      gap      omega  full diag
   1  -1039.6382853 -0.103964E+04  0.406E+00    7.95       0.0  T
   2  -1039.7539808 -0.115695E+00  0.241E+00    8.22       1.0  T
   3  -1039.7785395 -0.245587E-01  0.226E-01    8.00       1.0  T
   4  -1039.7825858 -0.404625E-02  0.905E-02    8.01       1.0  T
   5  -1039.7831019 -0.516108E-03  0.292E-02    8.04       1.0  T
   6  -1039.7831302 -0.282871E-04  0.133E-02    8.05       1.0  T
   7  -1039.7831350 -0.482219E-05  0.187E-03    8.05       2.2  T
   8  -1039.7831354 -0.441981E-06  0.625E-04    8.05       6.5  T
   9  -1039.7831355 -0.186076E-07  0.199E-04    8.05      20.3  T

   *** convergence criteria satisfied after 9 iterations ***

         #    Occupation            Energy/Eh            Energy/eV
      -------------------------------------------------------------
         1        2.0000           -0.7406684             -20.1546
       ...           ...                  ...                  ...
       807        2.0000           -0.4617210             -12.5641
       808        2.0000           -0.4607903             -12.5387
       809        2.0000           -0.4587862             -12.4842
       810        2.0000           -0.4585546             -12.4779
       811        2.0000           -0.4570622             -12.4373
       812        2.0000           -0.4535441             -12.3416
       813        2.0000           -0.4490629             -12.2196 (HOMO)
       814                         -0.1532993              -4.1715 (LUMO)
       815                         -0.1377079              -3.7472
       816                         -0.1299414              -3.5359
       817                         -0.1266005              -3.4450
       818                         -0.1144693              -3.1149
       ...                                ...                  ...
      1224                          0.3749265              10.2023
      -------------------------------------------------------------
                  HL-Gap            0.2957636 Eh            8.0481 eV
             Fermi-level           -0.3011811 Eh           -8.1956 eV

 SCC (total)                   0 d,  0 h,  0 min, 17.299 sec
 SCC setup                      ...        0 min,  0.035 sec (  0.205%)
 Dispersion                     ...        0 min,  0.090 sec (  0.519%)
 classical contributions        ...        0 min,  0.021 sec (  0.119%)
 integral evaluation            ...        0 min,  0.719 sec (  4.155%)
 iterations                     ...        0 min,  6.691 sec ( 38.679%)
 molecular gradient             ...        0 min,  9.670 sec ( 55.896%)
 printout                       ...        0 min,  0.074 sec (  0.427%)

         :::::::::::::::::::::::::::::::::::::::::::::::::::::
         ::                     SUMMARY                     ::
         :::::::::::::::::::::::::::::::::::::::::::::::::::::
         :: total energy           -1033.459672583875 Eh    ::
         :: gradient norm              0.000564080521 Eh/a0 ::
         :: HOMO-LUMO gap              8.048138226476 eV    ::
         ::.................................................::
         :: SCC energy             -1039.783135465876 Eh    ::
         :: -> isotropic ES            5.742896137790 Eh    ::
         :: -> anisotropic ES         -1.310803103662 Eh    ::
         :: -> anisotropic XC         -0.097739999530 Eh    ::
         :: -> dispersion             -0.629812106414 Eh    ::
         :: repulsion energy           6.202771266071 Eh    ::
         :: add. restraining           0.000000000000 Eh    ::
         :: total charge               1.000000000000 e     ::
         :::::::::::::::::::::::::::::::::::::::::::::::::::::

      ----------------------------------------------------------- 
     |                       L-ANC optimizer                     |
      ----------------------------------------------------------- 
          low memory version by Sebastian Ehlert

          ...................................................
          :                      SETUP                      :
          :.................................................:
          :   energy convergence        0.5000000E-05 Eh    :
          :   grad. convergence         0.1000000E-02 Eh/a0 :
          :   optimization log               true           :
          :   writing optlog all                1     steps :
          :   Hessian reset                    20     steps :
          :   maximium step len.        1.0000000     a0    :
          :   LBFGS images                     20           :
          ...................................................
 * calculating model hessian...
Using Lindh-Hessian (1995)
 Shifting diagonal of input Hessian by   1.261631328612566E-002
 Lowest  eigenvalues of input Hessian
    0.010000    0.000000    0.000000    0.000000    0.000000    0.000000
    0.000000    0.012623    0.012634    0.012661    0.012683    0.012732
    0.012749    0.012763    0.012775    0.012794    0.012807    0.012824
 Highest eigenvalues
    1.442624    1.443748    1.443832    1.449826    1.453628    1.476208
 

........................................................................
.............................. CYCLE    1 ..............................
........................................................................
   1  -1039.7829903 -0.103978E+04  0.123E-03    8.05       0.0  T
   2  -1039.7829903 -0.191092E-07  0.753E-04    8.05       5.4  T
   3  -1039.7829903 -0.739828E-08  0.767E-05    8.05      52.7  T
     SCC iter.                  ...        0 min,  1.988 sec
     gradient                   ...        0 min,  9.491 sec
 * total energy  : -1033.4596725 Eh     change        0.8408165E-07 Eh
   gradient norm :     0.0004698 Eh/a0  converged?    E=F G=T D=F
   step length   :     0.0145898 a0

........................................................................
.............................. CYCLE    2 ..............................
........................................................................
   1  -1039.7830316 -0.103978E+04  0.663E-04    8.05       0.0  T
   2  -1039.7830316 -0.657610E-08  0.404E-04    8.05      10.0  T
   3  -1039.7830316 -0.236969E-08  0.442E-05    8.05      91.4  T
     SCC iter.                  ...        0 min,  1.984 sec
     gradient                   ...        0 min,  9.512 sec
 * total energy  : -1033.4596736 Eh     change       -0.1144935E-05 Eh
   gradient norm :     0.0001370 Eh/a0  converged?    E=T G=T D=F
   step length   :     0.0076571 a0

   *** GEOMETRY OPTIMIZATION CONVERGED AFTER 2 CYCLES ***

------------------------------------------------------------------------
 total energy gain   :        -0.0000011 Eh       -0.0007 kcal/mol
 total RMSD          :         0.0003950 a0        0.0002 Å
 total power (kW/mol):        -0.0013926 (step)   -0.0001 (real)
------------------------------------------------------------------------

 L-ANCopt (total)              0 d,  0 h,  0 min, 31.132 sec
 setup                          ...        0 min,  0.022 sec (  0.071%)
 model hessian                  ...        0 min,  4.626 sec ( 14.860%)
 ANC generation                 ...        0 min,  1.653 sec (  5.308%)
 coordinate transformation      ...        0 min,  0.014 sec (  0.043%)
 Rational function              ...        0 min,  0.002 sec (  0.007%)
 singlepoint calculation        ...        0 min, 24.795 sec ( 79.645%)
 optimization log               ...        0 min,  0.016 sec (  0.051%)
 hessian update                 ...        0 min,  0.000 sec (  0.000%)

================
 final structure:
================
612
 xtb: 6.5.1 (579679a)
H           -1.57503018689924        0.13886894827177       -0.79958371781820
C           -0.59481700998597        0.44310847627074       -1.15478589835581
H           -0.38042041477794       -0.04820500313094       -2.09913363770358
C            0.45433679778295        0.04634643058635       -0.13158373679895
H            1.45069926800038        0.19178404910374       -0.53107130361574
H            0.32210041319082       -1.00446647484695        0.10253542408495
O           -0.60975854396664        1.84719680202734       -1.37191226140488
H           -1.19324912632479        2.19549461780981       -0.65428464038602
N            0.30401582218045        0.83636853947303        1.09673606885742
H            0.44301601097534        1.84790860433117        0.92637394985424
H            1.02959520224857        0.49099411410826        1.77418391405044
H           -0.64742625569786        0.64357109437522        1.49836452584628
O            3.65613814180886        6.84149013742801        3.00747580737200
H            3.46012392878265        7.66567589058632        3.45157570841804
H            4.65000652397462        6.72561471958614        3.08489417019483
O            1.86626767116312        1.95744897831884       -3.99397054186194
H            1.81681429724753        2.20484742783741       -3.04731150018904
H            1.79804260917286        2.77665702391195       -4.52833856073453
O            7.95882733695306        3.98780716254435       -0.36077826986504
H            7.66692786245925        4.05309681743371       -1.29109641081058
H            7.37461252193816        4.58739746465026        0.13284304843128
O           -2.44024142244516        1.16399275997411        4.79862606341709
H           -2.69034279722844        0.21871493314097        4.78745140907201
H           -2.95451892360672        1.65208297131717        4.12768309313641
O           -4.42369405773437        4.24833475817099        1.07815969430245
H           -4.06171039236993        4.00196676955555        1.94856407844459
H           -4.70195859336826        3.40510328953934        0.68155257261959
O           -2.23881597996784       -3.38120693411729       -5.22973153522136
H           -1.40319895875617       -3.63417493961065       -5.63820144667383
H           -2.91165731159526       -4.01957416864348       -5.52831103699959
O            3.15089160251672        1.46830488580894        0.57747641747277
H            4.10450646941781        1.58883064919793        0.72311951627359
H            2.73153051235830        1.80118651730130        1.39318174562826
O            6.04190197034942        5.65724394294732        0.65309944721217
H            5.87257860611570        6.32444732170759       -0.03239310613462
H            5.17108346025307        5.24742028222842        0.78643216263383
O            2.12806129715432       -0.39550061536986        2.52786204126760
H            2.05949434176903       -1.20138085092496        1.97852612775109
H            3.05670652018111       -0.11660143535816        2.43770105634071
O            0.35452446928970       -3.62439085507660       -3.45495585347576
H            0.93193885679918       -4.40396613333975       -3.34496783057615
H            0.30524225258083       -3.45981371193561       -4.40844122739534
O            3.68136157485795        4.58261367805872       -1.92473147645582
H            4.13638041708421        3.97890271561479       -2.54170496296950
H            2.93511299160371        4.06975526512931       -1.56483118927000
O            5.98211531191234        1.72176337164345       -1.80564162358416
H            5.97592130753622        2.00595094394199       -0.87240544070389
H            5.11098034596468        1.31251916765742       -1.96868160261456
O           -1.82374588223625       -0.16626891267445        2.24128613484579
H           -2.67798865686377        0.28632880882355        2.32381639336179
H           -2.04221883242473       -1.09426392316520        2.08680981322670
O            0.24223220268239        2.38075179989738        6.72123680315297
H            0.29085761338834        1.82732720770558        5.92597032289492
H           -0.69816047215064        2.38522561222410        6.99951980207167
O           -0.52264438869764        3.37041589069679        3.20237226202356
H           -0.20127122472420        2.49548081020997        3.47404512667516
H           -0.36289052820679        3.95774968403700        3.96485279532452
O            3.36193507088949        0.06288988794776       -5.12308407413009
H            3.78404653157842        0.63553107876732       -5.77712853852327
H            2.68092997115309        0.60119102866203       -4.68296492964009
O           -2.43892913454680       -5.04390359481910        3.83580541033938
H           -1.70518122352981       -5.13320968885734        4.45179641938139
H           -3.28593899044685       -5.07620495014078        4.34246892501531
O           -0.31049632714960       -3.76400692115792        1.87324842877798
H            0.42131448795259       -4.24114588603257        1.45419602205859
H           -1.07453187667631       -3.88752421923174        1.27656934595020
O            2.29894674190281       -1.62716145248733        4.93727306782910
H            1.41587354924176       -1.69339507501594        4.51030555395010
H            2.89393860256421       -2.06101700000064        4.30937448934385
O            0.08482478899533       -0.70391873249584        6.78589546680203
H            0.02410842445857       -1.67845750626894        6.67940550751220
H            0.11356079935373       -0.32608439589671        5.89544581825161
O            2.27261080249644        2.35045359266872        3.00414454354034
H            3.12404723995180        2.64697232770999        3.35540337782715
H            1.95414900454260        1.66572935269284        3.60660900329293
O           -1.78379737961773        4.39395363814546       -1.88741205929209
H           -2.30266428321573        3.56694793566325       -1.95417181209161
H           -1.65906990616507        4.56711516140553       -0.93394703659927
O           -3.20143299128099        3.27761653444649        3.29856801109980
H           -2.24586875794415        3.31104973232507        3.09356485646359
H           -3.32506489484863        3.89439152797600        4.03438237967479
O           -2.33179275087455       -1.99519492674329       -1.12946747599486
H           -1.52887682894226       -2.43731322936729       -0.82959829844697
H           -2.88895136699674       -1.79051349913182       -0.35776197572433
O            1.56145010092731       -1.21214109072655       -2.74085142669765
H            2.27222966085250       -0.57752788528658       -2.55165635179910
H            2.00712898125747       -2.04157942236183       -2.99872925166825
O            7.19914879852231       -0.56177843403195       -2.40390609123585
H            7.77191082747271       -0.52514930806080       -3.19005251456848
H            6.92287310147241        0.35360493371062       -2.18760979635757
O           -2.17420638710287        2.24642764434496        0.68996646078019
H           -3.10762160748366        2.02336036057888        0.62219073006784
H           -2.11623454358225        3.19376371273076        0.89732897877045
O            1.88723262228145        2.72035360889772       -1.46438375522313
H            0.92811011902061        2.57653077571279       -1.34858523012039
H            2.31968234632804        2.33942366295530       -0.67762939471177
O            2.64015450454934       -3.22028687214532        6.98650085946460
H            2.43335764744600       -2.58031151507043        6.25880982414073
H            1.78045241005783       -3.53419347201856        7.27960408942404
O           -2.32414381575373       -4.45926719024495        0.16235626940278
H           -3.15301637547310       -3.95941096517631        0.10727664599644
H           -2.55768831260083       -5.30260506971441        0.60639371842433
O           -1.54073814734043       -0.57633643044737       -8.32455304677973
H           -2.20545398207381       -1.00137512664597       -8.86605310114120
H           -1.86421852151508       -0.66678519839846       -7.38817251868757
O            4.76211413927598        6.95944336233032       -1.32618664031740
H            4.39501440350669        6.07272858912086       -1.52612348186015
H            5.14944757652516        7.26061395659508       -2.14986516671584
O           -1.90034869279765        4.89533743057189       -5.14852908757797
H           -1.39542136465508        4.50530305522904       -5.87648511631107
H           -1.29960616741690        5.49460627872227       -4.67086027404242
O            6.39620710498718       -4.43831286659655       -4.22638869533353
H            6.41842032144997       -3.74854314816454       -4.91842228869030
H            7.29513189580198       -4.80944129143792       -4.17286156092187
O           -2.02346115214295       -4.46398836109869       -2.57998250442441
H           -2.02023408367988       -4.50120537495449       -1.60455547392977
H           -1.17795816521746       -4.05870413364206       -2.86844707680285
O           -9.53549370262447       -2.23150418993884        2.48022346436548
H          -10.12811996564932       -1.95699292584398        1.75701522110479
H           -9.26140507548274       -3.13136471617327        2.23661749941665
O           -8.59956676333646       -4.26503576563468        1.01243919009838
H           -8.13259849996793       -5.09899926648331        0.87766976586568
H           -7.98371963352340       -3.55956267021842        0.70598414179724
O           -0.02222798751931       -1.74006686972548        3.73023702479264
H           -0.11501995239488       -2.31410921121646        2.95487734662173
H           -0.90509183694191       -1.68409608948226        4.15044714976689
O           -1.01883260586314        2.46401814365550       -4.02815676918204
H           -1.31338931068423        3.38273156145481       -3.97101523802551
H           -0.90521605915171        2.15742467572301       -3.11103405940993
O           -0.36736270335662        6.18555732111823       -3.32036550088792
H           -0.68394586801385        6.93873729219316       -2.80569878994068
H           -0.56710547448887        5.41958839904774       -2.74970269095283
O           -6.79719882951531        0.19753871535419        1.05556060507381
H           -6.86039169844697       -0.64745622057601        0.57174294124615
H           -7.70111679288600        0.54952790791989        1.12747923147544
O            9.18641039077363        3.55385677826411        5.67221475721410
H            9.63096388685088        3.30901333365086        4.84761795136831
H            8.70840706847055        2.76441073100416        5.97004257239571
O           -4.61379129105058       -6.28302687024167       -1.41418376218429
H           -3.72680948626729       -6.69104115104942       -1.42507993243953
H           -4.85510343519883       -6.10308725929689       -2.34171739017190
O            3.68643086432240        4.33685077876643        1.10449461848283
H            3.90485305951323        4.19857217127420        2.04380008729106
H            2.75935800981809        4.07291624040961        0.97949712672570
O            5.04255552780403       -1.40462919572170       -3.69903717713869
H            4.47606300350397       -0.70498896178847       -4.07603440891243
H            5.76051265304612       -0.97315198147505       -3.18724254350711
O            0.25134412480650       -4.71426853416684        4.27844674909174
H            0.51211083765134       -5.62939033364891        4.04285288080744
H           -0.09784842989122       -4.33625444529271        3.43767738670453
O           -4.76461939571452       -5.12268465048025        5.04566311628547
H           -5.20376640333076       -5.63796858045475        4.34878309101056
H           -5.29934333146179       -4.30228467590095        5.12958183967541
O            4.02912866184592       -4.87557062262983       -1.42814398028752
H            4.00803857974380       -4.57372421141707       -0.49761657213533
H            4.92970519179041       -5.21529579432224       -1.57722228989199
O            2.03939512122437        4.15945606100411       -5.45763323653938
H            2.06380668478690        4.94804050436470       -4.85750489488238
H            1.23227277256688        4.17020599750037       -5.98591113369101
O            5.63284225309586        2.45616845971162        0.75928843453405
H            5.06340551861575        3.24213100701158        0.70439421871142
H            6.28988700682508        2.65037170052968        1.45208513338412
O            0.92340243025833       -1.00674800846456       -7.22792463701929
H            0.11150935006504       -0.87776870202106       -7.74685033916089
H            0.71978931357196       -0.71226150302066       -6.30861966649267
O           -2.72181189364261       -0.24465524270766       -3.12071354795968
H           -3.35537784682484       -0.58495568136737       -3.76483473045283
H           -2.54954573483443       -0.94760054998900       -2.46938911839123
O            0.40287830903987       -3.58626925342157       -6.21539116328308
H            0.50453014167413       -2.73731838944052       -6.67511808170685
H            1.32693156846732       -3.93260136141339       -6.13665904040838
O            2.59078337877232        3.72208856358670        5.85872607986524
H            2.56788701519037        2.78708356151355        5.61892322964738
H            2.36850094520430        4.22103079454149        5.05635609838420
O           -1.65031785419731        2.15887972634145       -8.49309023567164
H           -1.54401883312389        1.19155696036284       -8.53927967836964
H           -2.60027580444087        2.31401870839720       -8.32875452956071
O            3.66999812347944        0.29917910993824       -1.85760013714635
H            3.99077752932734       -0.57731590406580       -1.54479199005337
H            3.39231737560151        0.74618585406200       -1.04752919084002
O           -2.40593395196019        2.40999301583699        7.10461160516525
H           -2.46508895375916        1.96282520525232        6.22625806245941
H           -2.49887127339826        1.68724023363316        7.74083719037647
O            5.15572330407779        3.62568152126541        6.67083951113632
H            4.21123125318693        3.77096725574360        6.47214398101027
H            5.21699398572263        2.73311785294122        7.03225708384090
O            0.31008502707045       -0.17198781643133       -4.77235453345033
H            0.71442856360852       -0.68896056053079       -4.02928377382353
H            0.50118510344645        0.75207935063016       -4.55622331863517
O           -4.52076858818833       -3.45326576910534       -7.95345758157133
H           -4.32532726163987       -4.09210891300932       -7.24815164880672
H           -5.03282254068000       -3.92738296888746       -8.60777389034273
O           -2.05165238677008       -0.83926750096257       -5.79398788685508
H           -1.24986810929140       -0.60403297531166       -5.28521270945620
H           -2.24750315162295       -1.77466728451676       -5.56177999947929
O            0.00903194266774       -5.88828364789312       -1.05579179978057
H            0.61652015594776       -5.99435955016597       -1.80519463981481
H           -0.00405651238512       -4.92801981078880       -0.86274496614174
O            8.38419201344637       -5.38511680535389        1.65810361131605
H            7.70978174331030       -5.72037689623610        2.26974642986653
H            8.93535844391738       -4.80982639664008        2.22334498822101
O            1.72876743297699       -5.43199814421313        1.02565225513470
H            1.88941834448587       -6.08278400938747        0.31773392730147
H            2.58712184100898       -5.01864918065159        1.20147459844287
O           -4.34684666605771        0.58557808591805        2.65459211174733
H           -4.65782680126131        0.34030514014088        3.54791897574151
H           -4.86564881533744        1.37465085682864        2.42706459377774
O            7.36216986522246        2.98179687806413        2.77529617585619
H            7.09410215068503        3.55437366655487        3.52336725187813
H            8.33732025361001        2.99176948694057        2.79253393362003
O            8.35138909877250        2.35682846603553       -4.49319474770791
H            7.55401545705283        1.81106502240102       -4.65328065812218
H            8.01873971162514        3.16316404058624       -4.06438039969888
O           10.61429570561225        3.63100758166013       -1.18320039158955
H           11.00608409753285        3.16440666107487       -0.42488193312885
H            9.77966184937548        4.00176889041150       -0.85783901159511
O           -4.21817996691564       -1.20935070063629        0.59738218674236
H           -4.34335103004707       -0.56969598551680        1.31536145458330
H           -4.74824300635815       -0.90899267515476       -0.15571753432598
O            4.61724319159824        4.06360118988655       -6.14979740445149
H            4.77641788128864        3.30710187255562       -6.72970167833562
H            3.64765032808842        4.18496887044389       -6.12682373467970
O            0.11015539311410        0.89675931503946        4.32963896221122
H            0.26347499222385        0.06459453873176        3.84718665443185
H           -0.87250037256436        0.95295332985516        4.42286592976137
O           -8.44291801587290       -0.38954995669129       -1.39195123999835
H           -8.37692980156217        0.51541338966695       -1.02865040328671
H           -9.36196029267001       -0.47339378209670       -1.70057159974267
O           -6.78942534520956        0.29998573869121       -6.52017273242876
H           -7.73687963502159        0.12229513876966       -6.53421332862839
H           -6.67972465374525        1.22512949154559       -6.24943691378863
O            5.07639589403780       -7.07930527612559        0.80805824641431
H            4.28096874264823       -7.39605215719851        0.35182096789690
H            5.72224101847492       -6.89690085054564        0.10834747050783
O            6.62959126719541       -3.60754299496667        0.69265445719814
H            7.27780430635789       -4.30717333829067        0.92020867994272
H            6.65795499833704       -3.46902350614698       -0.27422613103262
O           -5.28506737189270        0.43996994693387        5.16123707204532
H           -6.23471843631940        0.44202911032905        4.96776337687623
H           -5.13160315879093        1.34221906240324        5.53185685354557
O            1.79133662644237        5.02095552043962        3.55241888261534
H            1.86529310429684        4.16652332983804        3.09048643287544
H            2.56426333681125        5.57298080575254        3.32462252957204
O           -5.65602441182500        4.63816152439069        4.06979611384101
H           -5.69471172676838        3.87262618710445        3.45492951342130
H           -5.32946583425295        5.38302822696578        3.54087984758903
O           -1.70745065263935        4.88749013246508        0.74558935809092
H           -1.07235863542501        5.46255070994966        1.20756481046167
H           -2.54505894928389        5.37941804610765        0.68681707812783
O            0.08539681576256        6.43991927558035        2.06193063319339
H            0.63716998311755        5.90444734970365        2.67394354224572
H            0.70619117746551        6.90843357563251        1.49447779000426
O            2.65162609388982       -3.81554296645158        3.29256678824262
H            3.11883068074936       -4.66148672261103        3.24578086516101
H            1.81153466823006       -4.01243897496937        3.74073860512163
O            7.17563231686178       -2.18042012518793        2.80633073250441
H            7.37263563178889       -1.23823065785940        2.65503929815904
H            6.96154918224859       -2.56411295809803        1.92963605177924
O           -4.71363063547013       -1.27943028055253       -4.91873397838935
H           -4.52022161867836       -1.06909272708491       -5.85038034825127
H           -5.66975022095359       -1.37638115601820       -4.83991854254935
O           -9.32552238290505        1.13288534768523        1.56451185430236
H           -9.66614295196074        0.73466114020460        2.38106028958249
H           -9.16977074926226        2.06484574075559        1.75303625662467
O            4.52352325800611        1.51550230323438       -7.24117787822282
H            3.54838927098971        1.62541235449231       -7.39567159057932
H            4.86115127301297        1.08034864371279       -8.02386943734323
O           -4.29819684756363        3.87350318099581       -4.09142213319733
H           -3.53680658433855        4.16396105183627       -4.60792877270074
H           -3.96064065133102        3.22123995712395       -3.44781938857156
O            7.25124007979635       -3.13284661243948        5.58172072941054
H            6.58066263092163       -2.76791299666679        6.17634469814853
H            7.80676138630553       -2.36444014981448        5.36626445549349
O            5.05319447970927       -1.69699862194116        6.69923940505671
H            4.89386540530701       -1.72249139666214        5.73123912175649
H            4.29293362486072       -2.13399837428648        7.10097398511950
O            0.12113870978296       -6.42717496125680       -5.31740294716636
H           -0.78853240265429       -6.53556827809428       -4.97069225407717
H            0.11843537509314       -5.63202011278036       -5.85749119452282
O            4.48210027349591        2.78742771962902       -3.80853376998840
H            4.57517991713509        3.33982063137571       -4.61466248595145
H            3.60461227256507        2.36811469097324       -3.84938236836194
O            6.48209066490909       -6.05610415912370       -1.43031131329954
H            6.61618454456876       -6.52783298820734       -2.25334225136016
H            7.27348003867287       -5.49523008821813       -1.30328520958563
O            5.44129149240276        1.49103128794303        4.44620986905207
H            6.19164781782229        1.51571225106612        5.07649378768003
H            4.63280859589814        1.26916283394883        4.95712776611468
O            2.29252366251147       -2.50016151252388        0.91448654422973
H            3.09558339081792       -2.35008318881551        0.38388581496682
H            2.53554836828897       -3.05973124876175        1.67646271813091
O            4.79865885352370       -0.11999911424109        2.46664462573346
H            5.13630582225697        0.53508113316533        3.11092665001802
H            4.77487332599058       -0.95975490308752        2.94961588973249
O           12.01693456906824       -0.49963278884210       -0.11334916048736
H           11.60894020634167       -0.74462407631218       -0.95302963575357
H           11.59455971878350       -1.05055122391515        0.56291243305903
O           -6.05031677759463       -2.81590496244131        5.40634704095313
H           -6.31841840975542       -2.24585941889169        4.67060188388182
H           -5.67424439807036       -2.24805513981919        6.08542982895998
O           -3.01505344332256       -3.45635196007795        6.62330558365004
H           -3.59935857381599       -2.76978974441622        7.00102913188098
H           -3.59786880701157       -4.15837999087732        6.31031450854810
O          -10.69753291041045        1.86558062277255       -4.49257094847995
H           -9.89991607455771        2.42604563076295       -4.48009834934263
H          -10.51892263102152        1.20623341998732       -5.18620746868997
O           -4.15243279031834       -3.03481692632038       -3.05212074074632
H           -3.25692714841621       -3.44797849055732       -2.98559783872243
H           -4.18625112274807       -2.53280183639999       -3.88705119574446
O           -2.79319952298296        5.02651182928889        5.38732875918280
H           -3.24062518015580        5.22024678797657        6.21003554948038
H           -1.85840461435135        4.83641640720368        5.59904977793315
O           -8.19296555153296        3.71103925344800        1.21839684105714
H           -7.68839226123218        4.50937132256969        0.93939779509434
H           -8.32801683906651        3.18893781429312        0.39645371575145
O           -5.37904024044490       -0.80409130291902       -1.84603286412019
H           -5.26999020514609       -0.01228928022412       -2.41016421713720
H           -4.74424507343696       -1.45418555670023       -2.18127138109602
O           -6.28245215908295        3.00468673783925       -2.06794405554758
H           -6.04902082464106        3.93232591182105       -2.25431025753820
H           -5.89555788802168        2.43709206354006       -2.77261757792063
O           -2.07990056030992       -0.07035600553535        8.21839514991702
H           -1.88773147250307       -0.38638829476823        9.10001523566535
H           -1.29754765545421       -0.29952524498700        7.66108576867863
O            6.45993438996936       -5.05782901935692        3.58062460399418
H            6.77871322659726       -4.44607024203416        4.26196367698988
H            5.75239879234841       -4.60704133274235        3.10988966715473
O            6.44102738388099       -0.52293214117167        0.39972101246995
H            5.91031433772992       -0.28306207132350        1.18603103016089
H            6.96633555028816        0.26718203226292        0.18109812825596
O           -5.33188567959481       -3.36206262801998        2.11662767866416
H           -5.29841504872484       -3.24803155177272        1.15493848383723
H           -5.94532397125146       -2.68910471438628        2.47550037756268
O            2.60254315688592        7.16449092069315        0.48415574379385
H            3.04426142118694        6.96504687754622        1.32868080973479
H            3.31904402866260        7.30202254691953       -0.15172775214907
O           -4.03148621539878       -5.29421749595689       -5.92444015297636
H           -3.41923384659490       -5.95200664144700       -5.55363792440529
H           -4.75619295289475       -5.27046826150365       -5.27184819714018
O          -10.79451308478816       -0.08847819564469       -2.62761970245235
H          -10.80931431959470        0.62265653750210       -3.29984496387628
H          -10.60594012547487       -0.91816986610496       -3.11971339093042
O           -7.75617885724028        1.31404385194776        4.38759542844158
H           -8.55236110223668        0.76938974360663        4.32926237924609
H           -8.05568459225442        2.23383070411920        4.53631297986687
O           -6.92234705611047       -1.45515457911261        3.15260911278083
H           -6.73064795469230       -0.71604652628054        2.53963142169004
H           -7.83496323730294       -1.72265880108321        2.96667779488397
O           -4.91467759778053       -3.75377356689603       -0.58086830059961
H           -4.56981774480993       -3.35204743709780       -1.39320903488719
H           -4.90440485487393       -4.71711531387489       -0.75875416051855
O           -5.54997099452972       -5.19205014236836       -3.71459285037951
H           -6.44800572202994       -5.10758298676905       -3.37080997385734
H           -5.08632494404271       -4.35648037524663       -3.46337803469696
O           10.20142685107980       -1.03435293908182       -2.29921413249907
H            9.92603944181833       -1.32363169570397       -3.17465520476951
H           10.03983595103841       -0.05989422851230       -2.30200955877866
O            0.23468678366823       -3.17698593649303       -0.78155994531852
H            0.46048073095575       -2.93165066902721       -1.68990790460888
H            1.00616009018326       -2.97557650335561       -0.22428035260112
O           -2.81681850669825       -2.71595738778797        2.55053136105244
H           -2.55005792600748       -3.58398170109018        2.90123800075086
H           -3.76100503277779       -2.81880009702218        2.31353092226241
O           10.97049644651711        1.80913980596538        0.80354989633571
H           10.05282276459888        1.57189264151001        0.57018804000395
H           11.51679524857748        1.06502921758750        0.48012435512784
O           -2.15919510076290       -7.41971963771988       -1.54954983645322
H           -2.03378855776359       -8.06598632714284       -0.85255440421267
H           -1.43726948778799       -6.76584256829416       -1.42597731553973
O           -4.54429832995146       -0.71427577392587       -7.58956695760540
H           -5.46031828577503       -0.44791318683979       -7.39111484143759
H           -4.56279372349223       -1.65649150448682       -7.81791460487768
O            0.88584380185141        5.52172171230516       -0.79128821937924
H            1.61871043143302        6.03983257134381       -0.41192337610567
H            0.13253976171908        6.13066966270389       -0.81338600037653
O            4.43596169125140       -1.92089554335595       -0.65611974487769
H            5.14599966121077       -1.42892257671374       -0.19812750371765
H            4.92072053670577       -2.53683252088272       -1.23588141725144
O            0.96591009095145        3.54584916919843        0.95656867047726
H            0.34790532878527        3.68899166307991        1.69324756191175
H            0.78488425500768        4.22702943008838        0.27300305614787
O            1.93954943639038        1.57209429181149       -7.48958702686549
H            1.57542637531087        0.67028841001157       -7.49043277740988
H            1.23189431501069        2.17446270110836       -7.20524967912923
O           -5.84106541981862        5.64768412855446       -2.29568195934819
H           -6.44521307911020        6.00176262298064       -2.94763277913770
H           -4.91780545483245        5.85538516062048       -2.59439536499975
O           -8.52135423527204        2.24045783865552       -0.97489949582761
H           -9.32380571843253        2.58460033760589       -1.41023675297048
H           -7.74664332629341        2.56489542697199       -1.48646096606844
O            8.35859515090065        1.37385078786702        0.05747320571153
H            8.11006728284145        2.32357683878379        0.08024985683822
H            8.68650150657317        1.26165475396685       -0.86320424197174
O           -4.65563711480287        6.78395143391177        2.55569759951914
H           -5.16084430766000        7.57110328144067        2.75508628904887
H           -3.74903234359083        6.91702782804019        2.93085049462685
O           10.33626326158025       -1.64664212085300        1.75684286100408
H            9.67802433288816       -1.74786135621094        1.03209220906213
H           10.21803262966831       -2.42188663224747        2.32505809020116
O            1.11948014063921       -6.93377951731965        3.10285079084348
H            1.33472189842411       -6.35940128205985        2.32624747488620
H            1.98433220691311       -7.15463860083434        3.46655599443472
O           10.91360171808973        0.02106632550815        3.76839755429550
H           11.86224813800766        0.14430822289921        3.73842550567152
H           10.68013182710921       -0.50358468603690        2.97125828708779
O           -2.32245538102119       -6.53965735614108       -4.19417642286998
H           -2.37767653728604       -7.25653982039652       -3.55364531480341
H           -2.25656511921409       -5.72937971055363       -3.63272807496903
O            6.43030498068479       -3.14580406893694       -1.91130121536450
H            6.85355078179344       -2.29177747743880       -2.08883025903455
H            6.38287948888261       -3.63150577909550       -2.76173245911192
O           -4.38592190980072       -1.18142372215107        7.13599505636320
H           -3.64630115211611       -0.73291453021481        7.57516712448533
H           -4.66961717716995       -0.57049286027773        6.42471531347567
O            8.80229340919000       -4.63881251800344       -0.98752784044218
H            8.77953454154204       -3.67859647292291       -0.78444800811459
H            9.00884007267275       -5.08680106313848       -0.15816878790628
O            8.90150331564445       -5.24687184318180       -3.64399779599584
H            8.98403074546984       -5.03301662024446       -2.69727288501959
H            9.72169010463322       -4.98509913871148       -4.06086953836028
O            5.03262687996674        0.89513473130705        7.51191237813754
H            5.09446600510313       -0.04171368902042        7.23830762347426
H            4.19419800068397        0.96270957971660        7.98132700712075
O            9.34804831066837       -3.57100546075359        3.41176522279643
H            9.36203702363142       -3.83386978795821        4.33234751627689
H            8.51644898195801       -3.04631913131074        3.29094391919452
O           -2.88716670193332       -6.56134996952227        1.67125774775664
H           -2.13295206109298       -7.14421634405661        1.44770979133005
H           -2.63566291901412       -6.10095801959988        2.49512792893213
O          -10.09355392402009       -0.08121341525177        3.92860835220590
H           -9.90268951692996       -0.97399092966277        3.57886931355058
H          -10.86446117045216       -0.15071465022841        4.49023579245863
O           -4.99256384291877        1.86071395920937       -0.08240908963875
H           -5.58283654041417        1.23485795860816        0.38245252919270
H           -5.55958403903076        2.28322186121054       -0.76410468829113
O           -9.78046000807921       -2.30124802852803       -3.68597298610495
H           -9.98547437668196       -2.89105032865948       -2.94909241901258
H           -8.80394313588450       -2.20006269577446       -3.67400544329375
O            5.17712592230786        5.92070401033774       -4.11531327868483
H            5.27441731998243        5.50360270529837       -4.97907168202342
H            4.24345271451405        6.15835932685737       -4.05204312116988
O            2.92958992304471       -4.20786985062933       -5.83041137344495
H            2.98761266474996       -3.90067882978552       -4.89502659848101
H            3.33000132359603       -3.49006994160270       -6.35289901545802
O           -9.50601868626045       -0.26879878580866       -5.75538465428927
H           -9.85047519647736       -1.14544246177118       -5.56857479090535
H           -8.87757812728006       -0.08394364573345       -5.01762722661651
O           -8.34525130654925        3.93493756227461        4.11841816947548
H           -8.48269397403955        4.04795348926261        3.17008014481695
H           -7.48146307314168        4.34173067879647        4.30520603889985
O           -5.48924050969910       -6.00116890261133        2.49825474852265
H           -5.44406760964809       -5.02655245657184        2.38627116260663
H           -4.64293885879321       -6.34391719136987        2.17203495555480
O            9.99646586018335        2.53685619900996        3.20519496587361
H           10.19242600994226        1.64155974016888        3.53868402950756
H           10.49448931560203        2.58110415708193        2.37235567752781
O           -3.37612491337124        6.30029942723414       -2.87511955232098
H           -2.79858611137019        5.60672568815957       -2.47641850284264
H           -3.24043297607711        6.23246092773309       -3.82225107912660
O          -11.40303705590817        0.93760212035544       -0.21529055828722
H          -11.18376071564142        0.58446976621424       -1.09824944392592
H          -10.56741191846093        1.08295672018533        0.26857623423232
O           -7.84768184825853        0.51020355600996       -3.84762791094274
H           -8.06352167056233        1.45813744996186       -3.80044721402768
H           -7.97528970281896        0.12266005225432       -2.95919172740980
O           -2.23962536177494        7.02869830791828        3.56335091299912
H           -1.43945194371432        6.84238746132293        3.05140565332446
H           -2.33548998198410        6.32318779909609        4.22519652428078
O            2.79197200276383       -7.14599972583333       -0.78920570384886
H            2.30859673599949       -7.61828508765949       -1.46754518403595
H            3.18127066498305       -6.35721163497713       -1.23189269959426
O            2.30731838315130        6.05848782720328       -3.68672350314952
H            2.67870302224189        5.56913255020833       -2.92036950647171
H            1.37736135256776        6.24565080763239       -3.46463211455229
O           -0.58792696052879       -7.72282971764062        0.96289218085280
H           -0.24171968584442       -7.05152954776015        0.34906269957644
H           -0.03332075899842       -7.68810138355455        1.75289323560021
O          -11.41916871670987       -1.61716316697339        0.55782868681523
H          -12.29727424388488       -1.94959332296674        0.74092229623932
H          -11.51639150757444       -0.66109509357508        0.33407313253597
O            4.41455509632245       -4.60956719974254        5.54657103289030
H            3.70988473320933       -4.23108785638336        6.11848647895038
H            5.19107886675441       -4.73072860989293        6.09422412846056
O            3.79699323288212       -6.39360476557592        3.52070073120042
H            4.50930429329119       -6.78260905410572        3.00608831902225
H            4.19282200970726       -5.98922655623010        4.30792355368884
O            3.18247467438859       -3.25313687877901       -3.36687719598447
H            3.94554898246172       -2.65097866746953       -3.45331784523432
H            3.41647295747777       -3.90208911799034       -2.67763438139846
O            8.58453282999404       -0.88203641214636       -4.71106747038053
H            7.89554615926513       -1.32784716792840       -5.23101185349128
H            8.71205925129409       -0.01143538007825       -5.09644825676782
O           -8.73368843224567        5.02794012100801       -2.17059007104834
H           -9.62558068532051        4.68901328175828       -2.02324100017295
H           -8.39027489736104        5.30153518166217       -1.31597602966882
O           -8.32738263359403        3.14388454193740       -4.14799795672585
H           -8.29839842491386        3.88639383926827       -3.52458318799836
H           -7.63224075782232        3.26863893435242       -4.81393387121860
O            4.48561491372360        3.78320767606068        3.59919302235576
H            4.85710081375595        4.51380542789960        4.09741046053986
H            5.00482497531438        2.98960662097141        3.86871838642833
O            8.63475631432975       -0.77167327131967        5.03900647260649
H            8.31679560471390       -0.39701690417058        4.19382135551531
H            9.59245260819854       -0.66170395744006        4.98276770780002
O           -6.82647689678606       -6.22435851307185        0.16046080057750
H           -6.09881982393562       -6.52385906689440       -0.40723908170038
H           -6.44754078880732       -6.25158113495933        1.06397299886086
O           -0.15680325134747        4.69189399094570        5.54475383849575
H            0.55563824089174        5.33119049616039        5.55530119740613
H            0.15153019141133        3.91191137101773        6.07155828399072
O           -6.16763798684392        2.98886589357822       -5.81907973572158
H           -5.68471195015916        2.97008493515858       -6.65784215382214
H           -5.50044030416622        3.28095588101293       -5.15813490952315
O           -6.18455031276918        2.50931706096731        2.53189206266698
H           -6.86449416987845        2.91898528611949        1.96108291592677
H           -6.68109148344652        1.97773463091805        3.17999040271691
O          -10.07366194165026       -3.45402386546637       -1.10597325996019
H          -10.59678535408806       -2.72648498313982       -0.74158369236738
H           -9.69186520454335       -3.87858669007174       -0.31172127712671
O            4.30511004640066       -4.58527230344597        1.22482726956775
H            4.59025658313758       -5.52574618419960        1.21716993686607
H            5.12993793220533       -4.07129051738190        1.07987815833885
O            6.91296168049227        4.06815289959417       -2.86718951359240
H            6.37637966361636        3.27848177124064       -2.66437998859842
H            6.31987585575562        4.75146111850919       -3.21278802978402
O            4.18939329267555       -6.12066939521853       -4.24555579366082
H            4.97295031830574       -5.55799522018516       -4.13652457970098
H            3.80238594246141       -5.83358831230805       -5.08303801521619
O          -10.88933108247848        3.15357809918634       -1.91615216190997
H          -11.09734814531673        2.83249184115808       -2.80341304957975
H          -11.41550276427411        2.62616460458639       -1.29644901171302
O            6.11904945164457        0.95059257356352       -4.88365126689553
H            5.56709654458739        1.53930105421151       -4.32668014751016
H            5.82612135116585        1.09174138991412       -5.78819670083467
O            2.15855806302500        0.77561320287086        7.85195869024363
H            1.62754366538820        1.58380892986333        7.77059074223934
H            1.52556736550251        0.06052593636722        7.66582264364961
O            7.87704606052634        0.38188744843277        2.68706543077567
H            8.35145456340609        0.52502072720770        1.85836729836232
H            7.49252125902323        1.25598296390711        2.90177941657885
O            4.88116725962612       -2.30999985204756        4.09098751570932
H            4.64049873248265       -3.20521285558286        4.39123917191421
H            5.81161425269633       -2.35130383377853        3.77766000504787
O           -5.30541419272996        1.16056249587029       -3.65775798219985
H           -4.59278943789388        1.25415654638362       -4.32181041776493
H           -6.10242788860490        0.82132487417747       -4.09853161127766
O            6.20659964676875        6.57414625401086        3.19834372504418
H            6.56788632362708        5.93226286357644        3.83677147272066
H            6.41234537290326        6.24471279096103        2.30450215078084
O           -3.56253275915098        6.78064941147424        0.06599133221572
H           -4.15694606079844        6.56770315999397       -0.65633022007084
H           -4.08764635876992        6.76375624976810        0.89031263467766
O           -4.99401753907186        2.88868767519546        6.12075457227544
H           -4.11779975671798        3.01785475821003        6.50824175545355
H           -5.16190122439426        3.59809206010009        5.47984221018908
O           -6.59397151762349        5.61483180917038        0.34546150141566
H           -5.78764674954163        5.23108160045987        0.75592747944498
H           -6.38331176137679        5.66266461745825       -0.59995937839121
O           -0.20262724315974        3.13222440933537       -6.57390048903379
H           -0.75963492327369        2.80642312391391       -7.33085358374066
H           -0.46844412194294        2.63068069246097       -5.78798549542059
O            2.97413702787594        0.92900762262915        5.31046987827596
H            2.73467278718179        0.02997379756561        5.00408553421447
H            2.82790974322027        0.88734038531372        6.27738214690334
O           -1.10646493326160        7.45988315243459       -0.92834630140520
H           -2.00602886162722        7.21548022928984       -0.63981918930209
H           -0.91361768958421        8.30477234221310       -0.52433495354571
O           -4.22373178371561        2.15592126480596       -7.63915557990898
H           -4.45000109009272        1.26863940922469       -7.94058113331527
H           -3.84384420337137        2.00740639598812       -6.74404951578058
O            9.52782379722866        1.49688048119152       -2.30288196496284
H           10.06157693888574        2.27438473217588       -2.00859434312670
H            9.12311721726796        1.78021467350113       -3.15596376132192
O            3.64023066907618       -1.86731723609403       -6.99375821688067
H            3.51741444239265       -1.29166762691330       -6.21484136389777
H            2.84177394951873       -1.72090747630451       -7.51218688206096
O           -3.20327354656360        1.47873004070160       -5.29622577090726
H           -2.92575455635770        0.56845151836222       -5.52467444575418
H           -2.45186310073382        1.83715591726870       -4.78658397491591
O           -3.24833215289450        2.18186454532538       -2.19405808310700
H           -3.01592096993348        1.30420078094550       -2.57790831376591
H           -3.81404199703597        1.98976756658016       -1.43395705253677
O            6.88471883475126        4.56515546102063        4.88411167758553
H            7.79369432903381        4.41405390397043        5.22983489925285
H            6.29758865857460        4.26048085985746        5.61061448190418
O            8.71238928352170       -2.00122403960310       -0.31412847249679
H            9.20124033091085       -1.59854324264651       -1.06745894449033
H            7.88309040910382       -1.50421865689610       -0.20653859027046
O           -7.13834208044118       -2.28268792056626       -0.01101234052168
H           -6.39098961636895       -2.73661332128945       -0.43911535931685
H           -7.65356969277259       -1.82099505100463       -0.69415693261793
O           -7.08081723658317       -2.23788957111345       -3.42041817748662
H           -6.62978150000898       -1.62509473412040       -2.80860948403385
H           -7.11124024264562       -3.08751680419134       -2.95939304680790
O           -7.57919401949665       -4.53511623164302       -1.97043120263179
H           -8.50656631729144       -4.30935732860281       -1.83114107651659
H           -7.32527743185910       -5.10778978644304       -1.22739421822924
O            1.67357489417270       -5.99100423711993       -3.21307453048457
H            1.16099043550419       -6.28330371227399       -4.00000633123225
H            2.61117405536455       -6.03759072975009       -3.47864906455385
O           -2.46270768004143       -1.48585205493650        4.80072905234893
H           -2.66109732292355       -2.14354094910261        5.48567886626093
H           -2.77960981083685       -1.86828856525755        3.94676156273446
O            6.34945757096219       -2.22618232736084       -5.81145244072417
H            5.72349913462896       -2.20921159320050       -6.54074346870450
H            5.84525674231785       -1.86369793920881       -5.03598304010195
O            7.47767180032962        1.37324493304792        6.18136778252413
H            7.90975215929024        0.52760624659678        5.94750111664641
H            6.93512623737818        1.22474371420021        6.96339911778398
O           -0.21644410371498       -3.34524540867564        6.58453939015112
H           -0.01661698376439       -3.79506385878589        5.74380046462486
H           -1.16588151090859       -3.46437197382258        6.73480153275635
 
 Bond Distances (Angstroems)
 ---------------------------
H1-C2=1.0861         C2-H1=1.0861         C2-H3=1.0859         C2-C4=1.5183         C2-O7=1.4209         H3-C2=1.0859         
C4-C2=1.5183         C4-H5=1.0833         C4-H6=1.0847         C4-N9=1.4682         H5-C4=1.0833         H6-C4=1.0847         
O7-C2=1.4209         O7-H8=0.9883         H8-O7=0.9883         N9-C4=1.4682         N9-H10=1.0352        N9-H11=1.0510        
N9-H12=1.0506        H10-N9=1.0352        H11-N9=1.0510        H12-N9=1.0506        O13-H14=0.9565       O13-H15=1.0036       
H14-O13=0.9565       H15-O13=1.0036       O16-H17=0.9797       O16-H18=0.9805       H17-O16=0.9797       H18-O16=0.9805       
O19-H20=0.9772       O19-H21=0.9718       H20-O19=0.9772       H21-O19=0.9718       O22-H23=0.9779       O22-H24=0.9762       
H23-O22=0.9779       H24-O22=0.9762       O25-H26=0.9743       O25-H27=0.9725       H26-O25=0.9743       H27-O25=0.9725       
O28-H29=0.9639       O28-H30=0.9744       H29-O28=0.9639       H30-O28=0.9744       O31-H32=0.9722       O31-H33=0.9757       
H32-O31=0.9722       H33-O31=0.9757       O34-H35=0.9715       O34-H36=0.9716       H35-O34=0.9715       H36-O34=0.9716       
O37-H38=0.9777       O37-H39=0.9738       H38-O37=0.9777       H39-O37=0.9738       O40-H41=0.9763       O40-H42=0.9688       
H41-O40=0.9763       H42-O40=0.9688       O43-H44=0.9758       O43-H45=0.9744       H44-O43=0.9758       H45-O43=0.9744       
O46-H47=0.9756       O46-H48=0.9762       H47-O46=0.9756       H48-O46=0.9762       O49-H50=0.9703       O49-H51=0.9658       
H50-O49=0.9703       H51-O49=0.9658       O52-H53=0.9701       O52-H54=0.9807       H53-O52=0.9701       H54-O52=0.9807       
O55-H56=0.9709       O55-H57=0.9756       H56-O55=0.9709       H57-O55=0.9756       O58-H59=0.9664       O58-H60=0.9733       
H59-O58=0.9664       H60-O58=0.9733       O61-H62=0.9622       O61-H63=0.9875       H62-O61=0.9622       H63-O61=0.9875       
O64-H65=0.9689       O64-H66=0.9773       H65-O64=0.9689       H66-O64=0.9773       O67-H68=0.9831       O67-H69=0.9677       
H68-O67=0.9831       H69-O67=0.9677       O70-H71=0.9822       O70-H72=0.9677       H71-O70=0.9822       H72-O70=0.9677       
O73-H74=0.9676       O73-H75=0.9660       H74-O73=0.9676       H75-O73=0.9660       O76-H77=0.9786       O76-H78=0.9771       
H77-O76=0.9786       H78-O76=0.9771       O79-H80=0.9779       O79-H81=0.9680       H80-O79=0.9779       H81-O79=0.9680       
O82-H83=0.9644       O82-H84=0.9736       H83-O82=0.9644       H84-O82=0.9736       O85-H86=0.9715       O85-H87=0.9763       
H86-O85=0.9715       H87-O85=0.9763       O88-H89=0.9734       O88-H90=0.9803       H89-O88=0.9734       H90-O88=0.9803       
O91-H92=0.9621       O91-H93=0.9715       H92-O91=0.9621       H93-O91=0.9715       O94-H95=0.9767       O94-H96=0.9752       
H95-O94=0.9767       H96-O94=0.9752       O97-H98=0.9909       O97-H99=0.9610       H98-O97=0.9909       H99-O97=0.9610       
O100-H101=0.9695     O100-H102=0.9813     H101-O100=0.9695     H102-O100=0.9813     O103-H104=0.9569     O103-H105=0.9948     
H104-O103=0.9569     H105-O103=0.9948     O106-H107=0.9803     O106-H108=0.9587     H107-O106=0.9803     H108-O106=0.9587     
O109-H110=0.9680     O109-H111=0.9737     H110-O109=0.9680     H111-O109=0.9737     O112-H113=0.9773     O112-H114=0.9740     
H113-O112=0.9773     H114-O112=0.9740     O115-H116=0.9761     O115-H117=0.9810     H116-O115=0.9761     H117-O115=0.9810     
O118-H119=0.9745     O118-H120=0.9717     H119-O118=0.9745     H120-O118=0.9717     O121-H122=0.9653     O121-H123=0.9853     
H122-O121=0.9653     H123-O121=0.9853     O124-H125=0.9692     O124-H126=0.9794     H125-O124=0.9692     H126-O124=0.9794     
O127-H128=0.9665     O127-H129=0.9737     H128-O127=0.9665     H129-O127=0.9737     O130-H131=0.9656     O130-H132=0.9758     
H131-O130=0.9656     H132-O130=0.9758     O133-H134=0.9758     O133-H135=0.9727     H134-O133=0.9758     H135-O133=0.9727     
O136-H137=0.9683     O136-H138=0.9697     H137-O136=0.9683     H138-O136=0.9697     O139-H140=0.9764     O139-H141=0.9752     
H140-O139=0.9764     H141-O139=0.9752     O142-H143=0.9742     O142-H144=0.9720     H143-O142=0.9742     H144-O142=0.9720     
O145-H146=0.9760     O145-H147=0.9816     H146-O145=0.9760     H147-O145=0.9816     O148-H149=0.9803     O148-H150=0.9858     
H149-O148=0.9803     H150-O148=0.9858     O151-H152=0.9716     O151-H153=0.9829     H152-O151=0.9716     H153-O151=0.9829     
O154-H155=0.9785     O154-H156=0.9740     H155-O154=0.9785     H156-O154=0.9740     O157-H158=0.9913     O157-H159=0.9647     
H158-O157=0.9913     H159-O157=0.9647     O160-H161=0.9721     O160-H162=0.9744     H161-O160=0.9721     H162-O160=0.9744     
O163-H164=0.9722     O163-H165=0.9866     H164-O163=0.9722     H165-O163=0.9866     O166-H167=0.9655     O166-H168=0.9737     
H167-O166=0.9655     H168-O166=0.9737     O169-H170=0.9708     O169-H171=0.9900     H170-O169=0.9708     H171-O169=0.9900     
O172-H173=0.9655     O172-H174=0.9706     H173-O172=0.9655     H174-O172=0.9706     O175-H176=0.9742     O175-H177=0.9765     
H176-O175=0.9742     H177-O175=0.9765     O178-H179=0.9844     O178-H180=0.9660     H179-O178=0.9844     H180-O178=0.9660     
O181-H182=0.9874     O181-H183=0.9674     H182-O181=0.9874     H183-O181=0.9674     O184-H185=0.9760     O184-H186=0.9649     
H185-O184=0.9760     H186-O184=0.9649     O187-H188=0.9914     O187-H189=0.9681     H188-O187=0.9914     H189-O187=0.9681     
O190-H191=0.9715     O190-H192=0.9566     H191-O190=0.9715     H192-O190=0.9566     O193-H194=0.9783     O193-H195=0.9835     
H194-O193=0.9783     H195-O193=0.9835     O196-H197=0.9705     O196-H198=0.9796     H197-O196=0.9705     H198-O196=0.9796     
O199-H200=0.9702     O199-H201=0.9769     H200-O199=0.9702     H201-O199=0.9769     O202-H203=0.9749     O202-H204=0.9688     
H203-O202=0.9749     H204-O202=0.9688     O205-H206=0.9772     O205-H207=0.9714     H206-O205=0.9772     H207-O205=0.9714     
O208-H209=0.9794     O208-H210=0.9754     H209-O208=0.9794     H210-O208=0.9754     O211-H212=0.9794     O211-H213=0.9720     
H212-O211=0.9794     H213-O211=0.9720     O214-H215=0.9728     O214-H216=0.9695     H215-O214=0.9728     H216-O214=0.9695     
O217-H218=0.9697     O217-H219=0.9687     H218-O217=0.9697     H219-O217=0.9687     O220-H221=0.9664     O220-H222=0.9774     
H221-O220=0.9664     H222-O220=0.9774     O223-H224=0.9740     O223-H225=0.9887     H224-O223=0.9740     H225-O223=0.9887     
O226-H227=0.9774     O226-H228=0.9731     H227-O226=0.9774     H228-O226=0.9731     O229-H230=0.9641     O229-H231=0.9702     
H230-O229=0.9641     H231-O229=0.9702     O232-H233=0.9701     O232-H234=0.9695     H233-O232=0.9701     H234-O232=0.9695     
O235-H236=0.9805     O235-H237=0.9772     H236-O235=0.9805     H237-O235=0.9772     O238-H239=0.9692     O238-H240=0.9874     
H239-O238=0.9692     H240-O238=0.9874     O241-H242=0.9741     O241-H243=0.9767     H242-O241=0.9741     H243-O241=0.9767     
O244-H245=0.9827     O244-H246=0.9702     H245-O244=0.9827     H246-O244=0.9702     O247-H248=0.9734     O247-H249=0.9732     
H248-O247=0.9734     H249-O247=0.9732     O250-H251=0.9827     O250-H252=0.9628     H251-O250=0.9827     H252-O250=0.9628     
O253-H254=0.9675     O253-H255=0.9723     H254-O253=0.9675     H255-O253=0.9723     O256-H257=0.9744     O256-H258=0.9806     
H257-O256=0.9744     H258-O256=0.9806     O259-H260=0.9745     O259-H261=0.9642     H260-O259=0.9745     H261-O259=0.9642     
O262-H263=0.9702     O262-H264=0.9635     H263-O262=0.9702     H264-O262=0.9635     O265-H266=0.9934     O265-H267=0.9571     
H266-O265=0.9934     H267-O265=0.9571     O268-H269=0.9648     O268-H270=0.9765     H269-O268=0.9648     H270-O268=0.9765     
O271-H272=0.9677     O271-H273=0.9724     H272-O271=0.9677     H273-O271=0.9724     O274-H275=0.9814     O274-H276=0.9645     
H275-O274=0.9814     H276-O274=0.9645     O277-H278=0.9795     O277-H279=0.9612     H278-O277=0.9795     H279-O277=0.9612     
O280-H281=0.9817     O280-H282=0.9734     H281-O280=0.9817     H282-O280=0.9734     O283-H284=0.9581     O283-H285=0.9783     
H284-O283=0.9581     H285-O283=0.9783     O286-H287=0.9803     O286-H288=0.9818     H287-O286=0.9803     H288-O286=0.9818     
O289-H290=0.9741     O289-H291=0.9761     H290-O289=0.9741     H291-O289=0.9761     O292-H293=0.9789     O292-H294=0.9690     
H293-O292=0.9789     H294-O292=0.9690     O295-H296=0.9652     O295-H297=0.9691     H296-O295=0.9652     H297-O295=0.9691     
O298-H299=0.9686     O298-H300=0.9618     H299-O298=0.9686     H300-O298=0.9618     O301-H302=0.9775     O301-H303=0.9646     
H302-O301=0.9775     H303-O301=0.9646     O304-H305=0.9749     O304-H306=0.9735     H305-O304=0.9749     H306-O304=0.9735     
O307-H308=0.9885     O307-H309=0.9748     H308-O307=0.9885     H309-O307=0.9748     O310-H311=0.9563     O310-H312=0.9771     
H311-O310=0.9563     H312-O310=0.9771     O313-H314=0.9848     O313-H315=0.9831     H314-O313=0.9848     H315-O313=0.9831     
O316-H317=0.9783     O316-H318=0.9685     H317-O316=0.9783     H318-O316=0.9685     O319-H320=0.9745     O319-H321=0.9841     
H320-O319=0.9745     H321-O319=0.9841     O322-H323=0.9561     O322-H324=0.9875     H323-O322=0.9561     H324-O322=0.9875     
O325-H326=0.9696     O325-H327=0.9620     H326-O325=0.9696     H327-O325=0.9620     O328-H329=0.9785     O328-H330=0.9737     
H329-O328=0.9785     H330-O328=0.9737     O331-H332=0.9690     O331-H333=0.9788     H332-O331=0.9690     H333-O331=0.9788     
O334-H335=0.9737     O334-H336=0.9678     H335-O334=0.9737     H336-O334=0.9678     O337-H338=0.9721     O337-H339=0.9755     
H338-O337=0.9721     H339-O337=0.9755     O340-H341=0.9787     O340-H342=0.9829     H341-O340=0.9787     H342-O340=0.9829     
O343-H344=0.9664     O343-H345=0.9787     H344-O343=0.9664     H345-O343=0.9787     O346-H347=0.9792     O346-H348=0.9690     
H347-O346=0.9792     H348-O346=0.9690     O349-H350=0.9696     O349-H351=0.9797     H350-O349=0.9696     H351-O349=0.9797     
O352-H353=0.9653     O352-H354=0.9881     H353-O352=0.9653     H354-O352=0.9881     O355-H356=0.9622     O355-H357=0.9878     
H356-O355=0.9622     H357-O355=0.9878     O358-H359=0.9676     O358-H360=0.9728     H359-O358=0.9676     H360-O358=0.9728     
O361-H362=0.9735     O361-H363=0.9789     H362-O361=0.9735     H363-O361=0.9789     O364-H365=0.9762     O364-H366=0.9781     
H365-O364=0.9762     H366-O364=0.9781     O367-H368=0.9587     O367-H369=0.9818     H368-O367=0.9587     H369-O367=0.9818     
O370-H371=0.9744     O370-H372=0.9697     H371-O370=0.9744     H372-O370=0.9697     O373-H374=0.9744     O373-H375=0.9689     
H374-O373=0.9744     H375-O373=0.9689     O376-H377=0.9777     O376-H378=0.9749     H377-O376=0.9777     H378-O376=0.9749     
O379-H380=0.9722     O379-H381=0.9819     H380-O379=0.9722     H381-O379=0.9819     O382-H383=0.9725     O382-H384=0.9718     
H383-O382=0.9725     H384-O382=0.9718     O385-H386=0.9568     O385-H387=0.9924     H386-O385=0.9568     H387-O385=0.9924     
O388-H389=0.9756     O388-H390=0.9834     H389-O388=0.9756     H390-O388=0.9834     O391-H392=0.9820     O391-H393=0.9837     
H392-O391=0.9820     H393-O391=0.9837     O394-H395=0.9563     O394-H396=0.9901     H395-O394=0.9563     H396-O394=0.9901     
O397-H398=0.9843     O397-H399=0.9684     H398-O397=0.9843     H399-O397=0.9684     O400-H401=0.9896     O400-H402=0.9639     
H401-O400=0.9896     H402-O400=0.9639     O403-H404=0.9571     O403-H405=0.9824     H404-O403=0.9571     H405-O403=0.9824     
O406-H407=0.9629     O406-H408=0.9880     H407-O406=0.9629     H408-O406=0.9880     O409-H410=0.9695     O409-H411=0.9805     
H410-O409=0.9695     H411-O409=0.9805     O412-H413=0.9701     O412-H414=0.9796     H413-O412=0.9701     H414-O412=0.9796     
O415-H416=0.9817     O415-H417=0.9650     H416-O415=0.9817     H417-O415=0.9650     O418-H419=0.9741     O418-H420=0.9566     
H419-O418=0.9741     H420-O418=0.9566     O421-H422=0.9779     O421-H423=0.9633     H422-O421=0.9779     H423-O421=0.9633     
O424-H425=0.9575     O424-H426=0.9907     H425-O424=0.9575     H426-O424=0.9907     O427-H428=0.9791     O427-H429=0.9767     
H428-O427=0.9791     H429-O427=0.9767     O430-H431=0.9776     O430-H432=0.9563     H431-O430=0.9776     H432-O430=0.9563     
O433-H434=0.9779     O433-H435=0.9822     H434-O433=0.9779     H435-O433=0.9822     O436-H437=0.9659     O436-H438=0.9818     
H437-O436=0.9659     H438-O436=0.9818     O439-H440=0.9641     O439-H441=0.9655     H440-O439=0.9641     H441-O439=0.9655     
O442-H443=0.9862     O442-H444=0.9739     H443-O442=0.9862     H444-O442=0.9739     O445-H446=0.9602     O445-H447=0.9866     
H446-O445=0.9602     H447-O445=0.9866     O448-H449=0.9649     O448-H450=0.9729     H449-O448=0.9649     H450-O448=0.9729     
O451-H452=0.9821     O451-H453=0.9696     H452-O451=0.9821     H453-O451=0.9696     O454-H455=0.9753     O454-H456=0.9714     
H455-O454=0.9753     H456-O454=0.9714     O457-H458=0.9867     O457-H459=0.9592     H458-O457=0.9867     H459-O457=0.9592     
O460-H461=0.9759     O460-H462=0.9765     H461-O460=0.9759     H462-O460=0.9765     O463-H464=0.9733     O463-H465=0.9776     
H464-O463=0.9733     H465-O463=0.9776     O466-H467=0.9680     O466-H468=0.9721     H467-O466=0.9680     H468-O466=0.9721     
O469-H470=0.9575     O469-H471=0.9847     H470-O469=0.9575     H471-O469=0.9847     O472-H473=0.9822     O472-H474=0.9743     
H473-O472=0.9822     H474-O472=0.9743     O475-H476=0.9733     O475-H477=0.9659     H476-O475=0.9733     H477-O475=0.9659     
O478-H479=0.9566     O478-H480=0.9867     H479-O478=0.9566     H480-O478=0.9867     O481-H482=0.9833     O481-H483=0.9579     
H482-O481=0.9833     H483-O481=0.9579     O484-H485=0.9610     O484-H486=0.9695     H485-O484=0.9610     H486-O484=0.9695     
O487-H488=0.9759     O487-H489=0.9752     H488-O487=0.9759     H489-O487=0.9752     O490-H491=0.9715     O490-H492=0.9606     
H491-O490=0.9715     H492-O490=0.9606     O493-H494=0.9654     O493-H495=0.9608     H494-O493=0.9654     H495-O493=0.9608     
O496-H497=0.9700     O496-H498=0.9707     H497-O496=0.9700     H498-O496=0.9707     O499-H500=0.9592     O499-H501=0.9859     
H500-O499=0.9592     H501-O499=0.9859     O502-H503=0.9777     O502-H504=0.9656     H503-O502=0.9777     H504-O502=0.9656     
O505-H506=0.9703     O505-H507=0.9801     H506-O505=0.9703     H507-O505=0.9801     O508-H509=0.9573     O508-H510=0.9904     
H509-O508=0.9573     H510-O508=0.9904     O511-H512=0.9680     O511-H513=0.9835     H512-O511=0.9680     H513-O511=0.9835     
O514-H515=0.9777     O514-H516=0.9743     H515-O514=0.9777     H516-O514=0.9743     O517-H518=0.9673     O517-H519=0.9782     
H518-O517=0.9673     H519-O517=0.9782     O520-H521=0.9828     O520-H522=0.9826     H521-O520=0.9828     H522-O520=0.9826     
O523-H524=0.9760     O523-H525=0.9686     H524-O523=0.9760     H525-O523=0.9686     O526-H527=0.9708     O526-H528=0.9662     
H527-O526=0.9708     H528-O526=0.9662     O529-H530=0.9662     O529-H531=0.9690     H530-O529=0.9662     H531-O529=0.9690     
O532-H533=0.9805     O532-H534=0.9612     H533-O532=0.9805     H534-O532=0.9612     O535-H536=0.9705     O535-H537=0.9730     
H536-O535=0.9705     H537-O535=0.9730     O538-H539=0.9656     O538-H540=0.9788     H539-O538=0.9656     H540-O538=0.9788     
O541-H542=0.9744     O541-H543=0.9827     H542-O541=0.9744     H543-O541=0.9827     O544-H545=0.9785     O544-H546=0.9719     
H545-O544=0.9785     H546-O544=0.9719     O547-H548=0.9747     O547-H549=0.9746     H548-O547=0.9747     H549-O547=0.9746     
O550-H551=0.9594     O550-H552=0.9775     H551-O550=0.9594     H552-O550=0.9775     O553-H554=0.9667     O553-H555=0.9707     
H554-O553=0.9667     H555-O553=0.9707     O556-H557=0.9828     O556-H558=0.9698     H557-O556=0.9828     H558-O556=0.9698     
O559-H560=0.9947     O559-H561=0.9695     H560-O559=0.9947     H561-O559=0.9695     O562-H563=0.9795     O562-H564=0.9788     
H563-O562=0.9795     H564-O562=0.9788     O565-H566=0.9758     O565-H567=0.9562     H566-O565=0.9758     H567-O565=0.9562     
O568-H569=0.9640     O568-H570=0.9837     H569-O568=0.9640     H570-O568=0.9837     O571-H572=0.9879     O571-H573=0.9858     
H572-O571=0.9879     H573-O571=0.9858     O574-H575=0.9763     O574-H576=0.9632     H575-O574=0.9763     H576-O574=0.9632     
O577-H578=0.9787     O577-H579=0.9761     H578-O577=0.9787     H579-O577=0.9761     O580-H581=0.9857     O580-H582=0.9668     
H581-O580=0.9857     H582-O580=0.9668     O583-H584=0.9842     O583-H585=0.9825     H584-O583=0.9842     H585-O583=0.9825     
O586-H587=0.9842     O586-H588=0.9728     H587-O586=0.9842     H588-O586=0.9728     O589-H590=0.9736     O589-H591=0.9723     
H590-O589=0.9736     H591-O589=0.9723     O592-H593=0.9764     O592-H594=0.9671     H593-O592=0.9764     H594-O592=0.9671     
O595-H596=0.9646     O595-H597=0.9719     H596-O595=0.9646     H597-O595=0.9719     O598-H599=0.9836     O598-H600=0.9756     
H599-O598=0.9836     H600-O598=0.9756     O601-H602=0.9701     O601-H603=0.9879     H602-O601=0.9701     H603-O601=0.9879     
O604-H605=0.9612     O604-H606=0.9935     H605-O604=0.9612     H606-O604=0.9935     O607-H608=0.9780     O607-H609=0.9633     
H608-O607=0.9780     H609-O607=0.9633     O610-H611=0.9742     O610-H612=0.9686     H611-O610=0.9742     H612-O610=0.9686     
 C  H  Rav=1.0850 sigma=0.0011  Rmin=1.0833  Rmax=1.0861     4
 C  C  Rav=1.5183 sigma=0.0000  Rmin=1.5183  Rmax=1.5183     1
 N  H  Rav=1.0456 sigma=0.0074  Rmin=1.0352  Rmax=1.0510     3
 N  C  Rav=1.4682 sigma=0.0000  Rmin=1.4682  Rmax=1.4682     1
 O  H  Rav=0.9739 sigma=0.0083  Rmin=0.9561  Rmax=1.0036   401
 O  C  Rav=1.4209 sigma=0.0000  Rmin=1.4209  Rmax=1.4209     1
 
 selected bond angles (degree)
 --------------------
H3-C2-H1=109.63                C4-C2-H1=109.27                C4-C2-H3=109.35                O7-C2-H1=108.50                
O7-C2-H3=108.44                O7-C2-C4=111.62                H5-C4-C2=110.61                H6-C4-C2=108.32                
H6-C4-H5=108.77                N9-C4-C2=110.64                N9-C4-H5=109.30                N9-C4-H6=109.16                
H8-O7-C2=104.09                H10-N9-C4=111.99               H11-N9-C4=106.96               H11-N9-H10=109.54              
H12-N9-C4=108.29               H12-N9-H10=111.34              H12-N9-H11=108.57              
 
 selected dihedral angles (degree)
 ---------------------------------
H5-C4-C2-H1=170.79            H5-C4-C2-H3= 50.80            H5-C4-C2-O7=290.80            H6-C4-C2-H1= 51.67            
H6-C4-C2-H3=291.67            H6-C4-C2-O7=171.68            N9-C4-C2-H1=292.05            N9-C4-C2-H3=172.05            
N9-C4-C2-O7= 52.06            H8-O7-C2-H1= 35.49            H8-O7-C2-H3=154.50            H8-O7-C2-C4=275.03            
H10-N9-C4-C2=297.85           H10-N9-C4-H5= 59.88           H10-N9-C4-H6=178.74           H11-N9-C4-C2=177.84           
H11-N9-C4-H5=299.87           H11-N9-C4-H6= 58.72           H12-N9-C4-C2= 61.00           H12-N9-C4-H5=183.03           
H12-N9-C4-H6=301.88           
 
 CMA Distance (Angstroems)
 ---------------------------
R(CMA):  0.9573
           -------------------------------------------------
          |                Final Singlepoint                |
           -------------------------------------------------

          ...................................................
          :                      SETUP                      :
          :.................................................:
          :  # basis functions                1224          :
          :  # atomic orbitals                1224          :
          :  # shells                          816          :
          :  # electrons                      1626          :
          :  max. iterations                   250          :
          :  Hamiltonian                  GFN2-xTB          :
          :  restarted?                      false          :
          :  GBSA solvation                  false          :
          :  PC potential                    false          :
          :  electronic temp.          300.0000000     K    :
          :  accuracy                    1.0000000          :
          :  -> integral cutoff          0.2500000E+02      :
          :  -> integral neglect         0.1000000E-07      :
          :  -> SCF convergence          0.1000000E-05 Eh   :
          :  -> wf. convergence          0.1000000E-03 e    :
          :  Broyden damping             0.4000000          :
          ...................................................

 iter      E             dE          RMSdq      gap      omega  full diag
   1  -1039.7830316 -0.103978E+04  0.125E-05    8.05       0.0  T
   2  -1039.7830316 -0.113687E-11  0.753E-06    8.05     536.9  T
   3  -1039.7830316  0.250111E-11  0.971E-07    8.05    4161.1  T

   *** convergence criteria satisfied after 3 iterations ***

         #    Occupation            Energy/Eh            Energy/eV
      -------------------------------------------------------------
         1        2.0000           -0.7406663             -20.1546
       ...           ...                  ...                  ...
       807        2.0000           -0.4617299             -12.5643
       808        2.0000           -0.4608315             -12.5399
       809        2.0000           -0.4588195             -12.4851
       810        2.0000           -0.4585627             -12.4781
       811        2.0000           -0.4571015             -12.4384
       812        2.0000           -0.4535459             -12.3416
       813        2.0000           -0.4490925             -12.2204 (HOMO)
       814                         -0.1533136              -4.1719 (LUMO)
       815                         -0.1377239              -3.7477
       816                         -0.1299669              -3.5366
       817                         -0.1266075              -3.4452
       818                         -0.1144844              -3.1153
       ...                                ...                  ...
      1224                          0.3748659              10.2006
      -------------------------------------------------------------
                  HL-Gap            0.2957789 Eh            8.0486 eV
             Fermi-level           -0.3012030 Eh           -8.1962 eV

 SCC (total)                   0 d,  0 h,  0 min, 12.560 sec
 SCC setup                      ...        0 min,  0.032 sec (  0.257%)
 Dispersion                     ...        0 min,  0.083 sec (  0.659%)
 classical contributions        ...        0 min,  0.021 sec (  0.164%)
 integral evaluation            ...        0 min,  0.681 sec (  5.418%)
 iterations                     ...        0 min,  2.038 sec ( 16.225%)
 molecular gradient             ...        0 min,  9.634 sec ( 76.706%)
 printout                       ...        0 min,  0.072 sec (  0.569%)

         :::::::::::::::::::::::::::::::::::::::::::::::::::::
         ::                     SUMMARY                     ::
         :::::::::::::::::::::::::::::::::::::::::::::::::::::
         :: total energy           -1033.459673644890 Eh    ::
         :: gradient norm              0.000135580573 Eh/a0 ::
         :: HOMO-LUMO gap              8.048553413519 eV    ::
         ::.................................................::
         :: SCC energy             -1039.783031621626 Eh    ::
         :: -> isotropic ES            5.743012046172 Eh    ::
         :: -> anisotropic ES         -1.310785949361 Eh    ::
         :: -> anisotropic XC         -0.097732656322 Eh    ::
         :: -> dispersion             -0.629808950315 Eh    ::
         :: repulsion energy           6.202667504057 Eh    ::
         :: add. restraining           0.000000000000 Eh    ::
         :: total charge               1.000000000000 e     ::
         :::::::::::::::::::::::::::::::::::::::::::::::::::::

           ------------------------------------------------- 
          |                Numerical Hessian                |
           ------------------------------------------------- 
step length          :   0.00500
SCC accuracy         :   0.30000
Hessian scale factor :   1.00000
frozen atoms in %    :   0.00000    0
RMS gradient         :   0.00014
estimated CPU  time    756.72 min
estimated wall time    758.57 min
