612
 energy: -1033.459672583875 gnorm: 0.000564080521 xtb: 6.5.1 (579679a)
H           -1.57497685230000        0.13883377370000       -0.79959850120000
C           -0.59477283090000        0.44308095680000       -1.15481261160000
H           -0.38039830360000       -0.04820928110000       -2.09917298480000
C            0.45440553890000        0.04632056420000       -0.13163893030000
H            1.45076065720000        0.19179561410000       -0.53112513580000
H            0.32220211130000       -1.00449654800000        0.10246871170000
O           -0.60974508670000        1.84717080870000       -1.37192296120000
H           -1.19327440560000        2.19543923350000       -0.65430908810000
N            0.30408216930000        0.83631975380000        1.09668899280000
H            0.44310035490000        1.84784971640000        0.92631626230000
H            1.02964084360000        0.49094566710000        1.77414758400000
H           -0.64736489910000        0.64353604020000        1.49831381970000
O            3.65616647720000        6.84149937450000        3.00744118020000
H            3.45997025340000        7.66561463090000        3.45158370540000
H            4.65000972480000        6.72568056620000        3.08524602900000
O            1.86624697820000        1.95745964450000       -3.99398717390000
H            1.81671584740000        2.20493148350000       -3.04735455560000
H            1.79800293010000        2.77661671200000       -4.52842575760000
O            7.95881675490000        3.98780955860000       -0.36076305190000
H            7.66688983160000        4.05312342800000       -1.29107070640000
H            7.37462547680000        4.58739936370000        0.13288352810000
O           -2.44018525890000        1.16400718110000        4.79856829230000
H           -2.69024493460000        0.21871735810000        4.78741826400000
H           -2.95458449540000        1.65208612520000        4.12771146740000
O           -4.42361914240000        4.24833097030000        1.07807979120000
H           -4.06174299890000        4.00195630670000        1.94852447030000
H           -4.70196213280000        3.40511839730000        0.68149821640000
O           -2.23882842080000       -3.38137360690000       -5.22943579280000
H           -1.40322574950000       -3.63412024030000       -5.63806514360000
H           -2.91166416620000       -4.01961755790000       -5.52832847460000
O            3.15087290300000        1.46828901690000        0.57746448620000
H            4.10449043380000        1.58874393320000        0.72312513990000
H            2.73152502590000        1.80118831850000        1.39316751010000
O            6.04186724100000        5.65725563900000        0.65316654510000
H            5.87263893880000        6.32431240060000       -0.03249149370000
H            5.17110545200000        5.24722609550000        0.78623802620000
O            2.12804506280000       -0.39558466200000        2.52788595500000
H            2.05939292140000       -1.20132351890000        1.97836006270000
H            3.05666404480000       -0.11663675510000        2.43761324240000
O            0.35441796050000       -3.62440425930000       -3.45491123770000
H            0.93194899230000       -4.40390340760000       -3.34503388690000
H            0.30509727130000       -3.45971850190000       -4.40837253220000
O            3.68140054100000        4.58265321940000       -1.92471653590000
H            4.13636673460000        3.97891747850000       -2.54170485700000
H            2.93505182130000        4.06989604280000       -1.56490284310000
O            5.98216585960000        1.72174265230000       -1.80562847970000
H            5.97595008200000        2.00600652390000       -0.87241320360000
H            5.11101046320000        1.31255050680000       -1.96867766410000
O           -1.82369398530000       -0.16625975210000        2.24118813090000
H           -2.67791955490000        0.28632451150000        2.32398190800000
H           -2.04218325950000       -1.09427730410000        2.08687069710000
O            0.24215403030000        2.38078674050000        6.72121285410000
H            0.29092648730000        1.82730659260000        5.92599421020000
H           -0.69823987730000        2.38502252270000        6.99948916120000
O           -0.52270029070000        3.37031762920000        3.20235994170000
H           -0.20136670420000        2.49538264300000        3.47407602610000
H           -0.36289564150000        3.95768901910000        3.96480071440000
O            3.36193563960000        0.06288714050000       -5.12304110770000
H            3.78405077820000        0.63550750770000       -5.77710013320000
H            2.68086945020000        0.60118341110000       -4.68300938540000
O           -2.43891865330000       -5.04391313260000        3.83577911140000
H           -1.70517978080000       -5.13320052260000        4.45178418800000
H           -3.28593093220000       -5.07563147350000        4.34248379920000
O           -0.31044289620000       -3.76395212440000        1.87317588500000
H            0.42127557270000       -4.24124135160000        1.45414116440000
H           -1.07459289720000       -3.88765014390000        1.27668247640000
O            2.29896841770000       -1.62713532060000        4.93726713810000
H            1.41588175300000       -1.69339645160000        4.51032667970000
H            2.89395628310000       -2.06100718020000        4.30938111550000
O            0.08477885090000       -0.70394335720000        6.78590304630000
H            0.02402544160000       -1.67846910980000        6.67935569490000
H            0.11356840050000       -0.32606165280000        5.89547588600000
O            2.27272492630000        2.35047045280000        3.00422100680000
H            3.12428764620000        2.64665531980000        3.35542593890000
H            1.95410068700000        1.66576453870000        3.60661604210000
O           -1.78376773870000        4.39388820600000       -1.88743367010000
H           -2.30260246000000        3.56686308210000       -1.95421776250000
H           -1.65905051590000        4.56704983170000       -0.93396332230000
O           -3.20141571220000        3.27758570440000        3.29848432720000
H           -2.24585133280000        3.31112487330000        3.09352030980000
H           -3.32512896950000        3.89431546110000        4.03432290370000
O           -2.33179339090000       -1.99522944400000       -1.12942559060000
H           -1.52879019870000       -2.43715944110000       -0.82954458680000
H           -2.88884646760000       -1.79036989390000       -0.35770267750000
O            1.56144979810000       -1.21208778560000       -2.74085257840000
H            2.27221786660000       -0.57746379820000       -2.55165482510000
H            2.00714292690000       -2.04146770280000       -2.99885979110000
O            7.19910306560000       -0.56181619790000       -2.40391684130000
H            7.77189388800000       -0.52515585510000       -3.19004049900000
H            6.92291179210000        0.35357066240000       -2.18752541860000
O           -2.17423449810000        2.24638504510000        0.68994521540000
H           -3.10764293880000        2.02328797800000        0.62219774750000
H           -2.11628716560000        3.19372507730000        0.89729094830000
O            1.88725123310000        2.72034275150000       -1.46441484990000
H            0.92812570700000        2.57651544540000       -1.34867656390000
H            2.31966399260000        2.33936599420000       -0.67766548370000
O            2.64016047010000       -3.22022177500000        6.98651080330000
H            2.43330730510000       -2.58035719420000        6.25873853480000
H            1.78048485910000       -3.53420182760000        7.27961211920000
O           -2.32411357030000       -4.45924489640000        0.16223945140000
H           -3.15304077740000       -3.95945058620000        0.10740900580000
H           -2.55746366080000       -5.30257395150000        0.60641976090000
O           -1.54083671210000       -0.57633532020000       -8.32448778420000
H           -2.20602995400000       -1.00094010420000       -8.86573625390000
H           -1.86445703820000       -0.66567500550000       -7.38803189150000
O            4.76219128150000        6.95946450760000       -1.32617406030000
H            4.39505136980000        6.07276162290000       -1.52608340870000
H            5.14953641230000        7.26058092640000       -2.14986665610000
O           -1.90024751140000        4.89503018860000       -5.14837914670000
H           -1.39536138340000        4.50539467040000       -5.87657379530000
H           -1.29973507150000        5.49468656220000       -4.67091266020000
O            6.39622770150000       -4.43828344040000       -4.22641050480000
H            6.41833313370000       -3.74854364760000       -4.91847443240000
H            7.29520135460000       -4.80929809940000       -4.17291477900000
O           -2.02355631220000       -4.46402630620000       -2.57999700840000
H           -2.02030868700000       -4.50131172160000       -1.60456321600000
H           -1.17806872490000       -4.05867865440000       -2.86843295980000
O           -9.53558592420000       -2.23154929560000        2.48026158590000
H          -10.12820729360000       -1.95707074720000        1.75704313400000
H           -9.26139429290000       -3.13137102010000        2.23661074980000
O           -8.59961170100000       -4.26507751620000        1.01246011240000
H           -8.13251713380000       -5.09898303100000        0.87777139210000
H           -7.98380487250000       -3.55954521650000        0.70606936110000
O           -0.02220639880000       -1.74008122320000        3.73025851820000
H           -0.11497672400000       -2.31416635730000        2.95492962660000
H           -0.90506528840000       -1.68413490490000        4.15047531840000
O           -1.01881697080000        2.46399335510000       -4.02813844790000
H           -1.31331621600000        3.38271226780000       -3.97091217360000
H           -0.90514047840000        2.15735371130000       -3.11103425690000
O           -0.36741661620000        6.18540739690000       -3.32036082440000
H           -0.68375054850000        6.93867936960000       -2.80567241350000
H           -0.56705299560000        5.41952760050000       -2.74954123180000
O           -6.79720220510000        0.19753171620000        1.05557547740000
H           -6.86046186650000       -0.64744981340000        0.57173938050000
H           -7.70109611100000        0.54957710430000        1.12754016200000
O            9.18641594900000        3.55384573510000        5.67225850730000
H            9.63097004540000        3.30902146780000        4.84765768490000
H            8.70841597620000        2.76439347530000        5.97006881880000
O           -4.61364386570000       -6.28274399860000       -1.41415694180000
H           -3.72702657680000       -6.69154977890000       -1.42524509540000
H           -4.85554953060000       -6.10360428370000       -2.34169182500000
O            3.68639301330000        4.33684757600000        1.10451037140000
H            3.90485548230000        4.19854422360000        2.04380142460000
H            2.75935047560000        4.07280660010000        0.97951819830000
O            5.04249545110000       -1.40462511410000       -3.69899916460000
H            4.47601441980000       -0.70498756490000       -4.07601906100000
H            5.76047273850000       -0.97314037580000       -3.18724736780000
O            0.25130990120000       -4.71426703080000        4.27847110980000
H            0.51212273790000       -5.62934985770000        4.04277545210000
H           -0.09762753340000       -4.33605667240000        3.43768437500000
O           -4.76460376960000       -5.12270103430000        5.04560222610000
H           -5.20388801410000       -5.63792504410000        4.34876676520000
H           -5.29951405290000       -4.30245474580000        5.12992455490000
O            4.02917244530000       -4.87555648090000       -1.42813804500000
H            4.00809309690000       -4.57372215610000       -0.49761412790000
H            4.92973507950000       -5.21531698570000       -1.57722187700000
O            2.03941319640000        4.15949658910000       -5.45764642200000
H            2.06377350190000        4.94805956400000       -4.85748674560000
H            1.23233048440000        4.17024776050000       -5.98598192910000
O            5.63283240040000        2.45622858320000        0.75929278800000
H            5.06356575760000        3.24232320360000        0.70445537980000
H            6.28992537090000        2.65025092480000        1.45209510510000
O            0.92331798630000       -1.00693955370000       -7.22792670750000
H            0.11153813120000       -0.87768373150000       -7.74693944610000
H            0.71991558790000       -0.71177648150000       -6.30879572560000
O           -2.72184060450000       -0.24469955530000       -3.12072678740000
H           -3.35537480010000       -0.58511269670000       -3.76482384920000
H           -2.54939476900000       -0.94762802100000       -2.46943076130000
O            0.40289854330000       -3.58638280570000       -6.21528657730000
H            0.50408525820000       -2.73745943180000       -6.67515916530000
H            1.32708427620000       -3.93249630230000       -6.13713632700000
O            2.59081001370000        3.72209617270000        5.85876903670000
H            2.56785088320000        2.78707041380000        5.61904075340000
H            2.36846919710000        4.22099912520000        5.05638797660000
O           -1.65029230020000        2.15889615100000       -8.49316511800000
H           -1.54402435120000        1.19154879910000       -8.53923861590000
H           -2.60027317560000        2.31408759180000       -8.32902087470000
O            3.67000839070000        0.29925499110000       -1.85763418380000
H            3.99051177010000       -0.57734014030000       -1.54482984590000
H            3.39225350870000        0.74626772880000       -1.04759227030000
O           -2.40594845800000        2.41002285290000        7.10453292550000
H           -2.46503962610000        1.96279171990000        6.22620589680000
H           -2.49882459990000        1.68729249010000        7.74079568420000
O            5.15573210360000        3.62571120380000        6.67083860490000
H            4.21124399620000        3.77100631450000        6.47213260070000
H            5.21698521240000        2.73315063960000        7.03226201150000
O            0.30997995300000       -0.17197813210000       -4.77237381190000
H            0.71460119920000       -0.68898708690000       -4.02949150170000
H            0.50103462380000        0.75208846630000       -4.55620430400000
O           -4.51990156980000       -3.45345174590000       -7.95401407940000
H           -4.32578576690000       -4.09143945230000       -7.24737861190000
H           -5.03319462030000       -3.92737772880000       -8.60699877390000
O           -2.05168449670000       -0.83943829820000       -5.79393715160000
H           -1.24987785790000       -0.60437489800000       -5.28510196800000
H           -2.24752136900000       -1.77491724490000       -5.56207112050000
O            0.00897844870000       -5.88826787490000       -1.05601012020000
H            0.61673854860000       -5.99433092280000       -1.80518556180000
H           -0.00359249060000       -4.92810358050000       -0.86246160350000
O            8.38415403920000       -5.38510027160000        1.65807442810000
H            7.70977654420000       -5.72043080530000        2.26970891870000
H            8.93532113240000       -4.80983602150000        2.22334354250000
O            1.72880919410000       -5.43200946610000        1.02563499870000
H            1.88943293490000       -6.08290667000000        0.31781229880000
H            2.58722169240000       -5.01886062960000        1.20160754620000
O           -4.34678954240000        0.58555921160000        2.65455856410000
H           -4.65787375900000        0.34022867040000        3.54783058500000
H           -4.86566076540000        1.37458582580000        2.42700822220000
O            7.36219986640000        2.98176045590000        2.77532862470000
H            7.09411912380000        3.55443241060000        3.52332264760000
H            8.33734993950000        2.99177856720000        2.79255610020000
O            8.35136286740000        2.35678101980000       -4.49311702020000
H            7.55396835820000        1.81110061100000       -4.65338165160000
H            8.01870405370000        3.16318207270000       -4.06443654930000
O           10.61426434970000        3.63100926190000       -1.18320493400000
H           11.00606446880000        3.16446206010000       -0.42486146490000
H            9.77963335210000        4.00178539580000       -0.85785282100000
O           -4.21816518280000       -1.20928167450000        0.59727949410000
H           -4.34342697280000       -0.56983538570000        1.31542874170000
H           -4.74844629520000       -0.90895436190000       -0.15567388630000
O            4.61720756870000        4.06355197770000       -6.14975594860000
H            4.77638656510000        3.30711378770000       -6.72973452290000
H            3.64762053770000        4.18498644710000       -6.12685255050000
O            0.11022441950000        0.89677981710000        4.32961118060000
H            0.26340054090000        0.06458779690000        3.84716388760000
H           -0.87242431270000        0.95326488860000        4.42263812910000
O           -8.44296939710000       -0.38968656700000       -1.39187748020000
H           -8.37712009480000        0.51528574770000       -1.02856612910000
H           -9.36190308150000       -0.47356893450000       -1.70079835270000
O           -6.78928227090000        0.30004802550000       -6.51968625810000
H           -7.73674884020000        0.12232243020000       -6.53391150000000
H           -6.67972141030000        1.22547341570000       -6.24978838310000
O            5.07639832130000       -7.07927094380000        0.80803057910000
H            4.28095709120000       -7.39609196520000        0.35187024120000
H            5.72222978660000       -6.89697601370000        0.10828135000000
O            6.62957748110000       -3.60753608630000        0.69262943100000
H            7.27782868310000       -4.30712610450000        0.92020725480000
H            6.65792506180000       -3.46905067650000       -0.27425207410000
O           -5.28500998510000        0.43996807220000        5.16121904350000
H           -6.23464235080000        0.44206495760000        4.96763601710000
H           -5.13151674890000        1.34228924310000        5.53164816960000
O            1.79135308570000        5.02095969750000        3.55240966580000
H            1.86511967350000        4.16654632890000        3.09040694000000
H            2.56426862440000        5.57294315780000        3.32447129070000
O           -5.65598783690000        4.63815735660000        4.06980980800000
H           -5.69469387010000        3.87256236700000        3.45501596260000
H           -5.32944233650000        5.38296891220000        3.54081702480000
O           -1.70745158640000        4.88742037640000        0.74555976800000
H           -1.07233873300000        5.46245948050000        1.20753537940000
H           -2.54504369380000        5.37937900430000        0.68679228170000
O            0.08536442470000        6.43984707560000        2.06191750900000
H            0.63714701700000        5.90435564400000        2.67390881970000
H            0.70614983370000        6.90841860570000        1.49450714950000
O            2.65150850160000       -3.81557242600000        3.29256742890000
H            3.11871372430000       -4.66151666520000        3.24579361500000
H            1.81140315100000       -4.01245610740000        3.74071501660000
O            7.17559107490000       -2.18041692820000        2.80633837090000
H            7.37267838710000       -1.23825262780000        2.65501226450000
H            6.96150884420000       -2.56412897840000        1.92965387440000
O           -4.71376904150000       -1.27950797170000       -4.91884539030000
H           -4.52028642180000       -1.06946568160000       -5.85051753570000
H           -5.66988012530000       -1.37658605130000       -4.84005488050000
O           -9.32557094090000        1.13283993650000        1.56443701020000
H           -9.66616212240000        0.73465531720000        2.38101520690000
H           -9.16969969660000        2.06478161250000        1.75295608300000
O            4.52350201030000        1.51547671240000       -7.24122168980000
H            3.54837561000000        1.62531956740000       -7.39576215050000
H            4.86115232930000        1.08021777810000       -8.02384327060000
O           -4.29821368280000        3.87334839830000       -4.09141525060000
H           -3.53703966970000        4.16430824060000       -4.60796701060000
H           -3.96025221970000        3.22104963040000       -3.44807345780000
O            7.25120199710000       -3.13285838210000        5.58172985910000
H            6.58064051660000       -2.76791526010000        6.17636320820000
H            7.80673062980000       -2.36446291460000        5.36626397460000
O            5.05318363130000       -1.69695095340000        6.69924964430000
H            4.89386375930000       -1.72248693170000        5.73125215700000
H            4.29295309070000       -2.13399080280000        7.10099544480000
O            0.12114849180000       -6.42723234180000       -5.31744814020000
H           -0.78849387170000       -6.53573298190000       -4.97071382350000
H            0.11833863450000       -5.63215969690000       -5.85765556850000
O            4.48206655030000        2.78739868860000       -3.80846808330000
H            4.57529467950000        3.33974065400000       -4.61461303290000
H            3.60457047320000        2.36810989050000       -3.84944660330000
O            6.48208534840000       -6.05604254160000       -1.43030912400000
H            6.61616053650000       -6.52780153970000       -2.25332502270000
H            7.27350405970000       -5.49520746030000       -1.30329258820000
O            5.44129712630000        1.49098871240000        4.44621628740000
H            6.19166149790000        1.51571574370000        5.07648759490000
H            4.63282012110000        1.26920505070000        4.95717330720000
O            2.29256494550000       -2.50027309850000        0.91448437320000
H            3.09563340670000       -2.35000927190000        0.38394887450000
H            2.53569699880000       -3.05957555440000        1.67662029560000
O            4.79866630590000       -0.12009973330000        2.46669427890000
H            5.13629390070000        0.53504754930000        3.11092012060000
H            4.77524604150000       -0.95989216990000        2.94961702660000
O           12.01690094040000       -0.49959461220000       -0.11332221720000
H           11.60893136340000       -0.74460686370000       -0.95300578500000
H           11.59453778270000       -1.05052093340000        0.56293606640000
O           -6.05036997320000       -2.81595216740000        5.40633874060000
H           -6.31835771390000       -2.24590083770000        4.67055597760000
H           -5.67440282040000       -2.24812130850000        6.08549231480000
O           -3.01508880110000       -3.45632051860000        6.62335223730000
H           -3.59945342630000       -2.76978719510000        7.00104013350000
H           -3.59785863430000       -4.15835637160000        6.31029640330000
O          -10.69733036270000        1.86553067460000       -4.49261664790000
H           -9.89988780350000        2.42625016190000       -4.48002305620000
H          -10.51876785220000        1.20672226020000       -5.18675713020000
O           -4.15244707450000       -3.03485115980000       -3.05221035280000
H           -3.25673652460000       -3.44746139210000       -2.98502988410000
H           -4.18584484980000       -2.53247587740000       -3.88694495690000
O           -2.79322251800000        5.02643034680000        5.38724233160000
H           -3.24067745620000        5.22018336790000        6.20992743690000
H           -1.85841667490000        4.83642910950000        5.59899235340000
O           -8.19286285330000        3.71100957510000        1.21835854080000
H           -7.68830267800000        4.50932460310000        0.93930840970000
H           -8.32795274850000        3.18884571460000        0.39645909300000
O           -5.37894447200000       -0.80422868720000       -1.84615658800000
H           -5.27020972120000       -0.01228419560000       -2.41013992980000
H           -4.74410555800000       -1.45414734080000       -2.18162182260000
O           -6.28240486390000        3.00448720010000       -2.06797449380000
H           -6.04900533360000        3.93213934680000       -2.25434675220000
H           -5.89564910200000        2.43690370070000       -2.77273811970000
O           -2.07996832950000       -0.07032254200000        8.21836099090000
H           -1.88776529540000       -0.38627247850000        9.10000214420000
H           -1.29758177110000       -0.29941752220000        7.66107146510000
O            6.45986587920000       -5.05785155620000        3.58060812530000
H            6.77868420630000       -4.44608564780000        4.26191744500000
H            5.75231320060000       -4.60706967000000        3.10989370870000
O            6.44100787940000       -0.52294966530000        0.39972123320000
H            5.91021596470000       -0.28298295150000        1.18594588320000
H            6.96633460660000        0.26713940350000        0.18105472970000
O           -5.33180457670000       -3.36200758810000        2.11663788960000
H           -5.29868154380000       -3.24805263840000        1.15492120850000
H           -5.94528035610000       -2.68915657380000        2.47565454720000
O            2.60259517620000        7.16448343130000        0.48415804110000
H            3.04432481220000        6.96502984260000        1.32867260680000
H            3.31906951570000        7.30204428520000       -0.15174473760000
O           -4.03122875860000       -5.29439738530000       -5.92424388360000
H           -3.41929906240000       -5.95271116560000       -5.55382017200000
H           -4.75625717290000       -5.27124488050000       -5.27203701960000
O          -10.79451906520000       -0.08837743720000       -2.62758251250000
H          -10.80925646530000        0.62276924860000       -3.29979360540000
H          -10.60571576760000       -0.91804317160000       -3.11962935400000
O           -7.75616356500000        1.31397475620000        4.38759328850000
H           -8.55236582980000        0.76935452330000        4.32920739430000
H           -8.05564680710000        2.23378646760000        4.53620475600000
O           -6.92238576230000       -1.45517804480000        3.15263302080000
H           -6.73072021010000       -0.71599448990000        2.53973885660000
H           -7.83500600070000       -1.72267605170000        2.96673037060000
O           -4.91453262290000       -3.75365279000000       -0.58080511300000
H           -4.56971798710000       -3.35206416860000       -1.39322877730000
H           -4.90420283550000       -4.71702837530000       -0.75848308280000
O           -5.54988804620000       -5.19202808450000       -3.71462288410000
H           -6.44793087690000       -5.10810946260000       -3.37074250430000
H           -5.08637424080000       -4.35671181540000       -3.46244261520000
O           10.20140478920000       -1.03438896200000       -2.29923388100000
H            9.92599625070000       -1.32363532120000       -3.17467667650000
H           10.03985259190000       -0.05992579760000       -2.30200343970000
O            0.23474027990000       -3.17703799690000       -0.78159852380000
H            0.46046330400000       -2.93152604310000       -1.68991203140000
H            1.00617226270000       -2.97549075450000       -0.22430010700000
O           -2.81668696510000       -2.71593462470000        2.55047352600000
H           -2.54994459520000       -3.58392048420000        2.90129072520000
H           -3.76096218440000       -2.81870837060000        2.31376348640000
O           10.97047771990000        1.80919167550000        0.80357282980000
H           10.05281097180000        1.57192915460000        0.57019438690000
H           11.51678838460000        1.06508600740000        0.48016779630000
O           -2.15912779300000       -7.41968942380000       -1.54959637080000
H           -2.03375947950000       -8.06603892230000       -0.85266420390000
H           -1.43733612730000       -6.76573625760000       -1.42575873990000
O           -4.54443047500000       -0.71400811950000       -7.58970552620000
H           -5.46035909850000       -0.44793704270000       -7.39051589400000
H           -4.56273580860000       -1.65608960970000       -7.81827544510000
O            0.88587014120000        5.52171083000000       -0.79120192390000
H            1.61874261200000        6.03996284050000       -0.41203997640000
H            0.13258069250000        6.13066261990000       -0.81357187560000
O            4.43597185470000       -1.92088044770000       -0.65612331780000
H            5.14599987110000       -1.42887759030000       -0.19814031990000
H            4.92072579880000       -2.53682130000000       -1.23587942540000
O            0.96581664690000        3.54583961620000        0.95658457050000
H            0.34822083810000        3.68926584180000        1.69354474120000
H            0.78481805660000        4.22710691120000        0.27310596820000
O            1.93950569190000        1.57194806380000       -7.48949843060000
H            1.57534092730000        0.67016101580000       -7.49024565630000