      -----------------------------------------------------------      
     |                   =====================                   |     
     |                           x T B                           |     
     |                   =====================                   |     
     |                         S. Grimme                         |     
     |          Mulliken Center for Theoretical Chemistry        |     
     |                    University of Bonn                     |     
      -----------------------------------------------------------      

   * xtb version 6.5.1 (579679a) compiled by 'ehlert@majestix' on 2022-07-11

   xtb is free software: you can redistribute it and/or modify it under
   the terms of the GNU Lesser General Public License as published by
   the Free Software Foundation, either version 3 of the License, or
   (at your option) any later version.
   
   xtb is distributed in the hope that it will be useful,
   but WITHOUT ANY WARRANTY; without even the implied warranty of
   MERCHANTABILITY or FITNESS FOR A PARTICULAR PURPOSE.  See the
   GNU Lesser General Public License for more details.
   
   Cite this work as:
   * C. Bannwarth, E. Caldeweyher, S. Ehlert, A. Hansen, P. Pracht,
     J. Seibert, S. Spicher, S. Grimme, WIREs Comput. Mol. Sci., 2020, 11,
     e01493. DOI: 10.1002/wcms.1493
   
   for GFN2-xTB:
   * C. Bannwarth, S. Ehlert and S. Grimme., J. Chem. Theory Comput., 2019,
     15, 1652-1671. DOI: 10.1021/acs.jctc.8b01176
   for GFN1-xTB:
   * S. Grimme, C. Bannwarth, P. Shushkov, J. Chem. Theory Comput., 2017,
     13, 1989-2009. DOI: 10.1021/acs.jctc.7b00118
   for GFN0-xTB:
   * P. Pracht, E. Caldeweyher, S. Ehlert, S. Grimme, ChemRxiv, 2019, preprint.
     DOI: 10.26434/chemrxiv.8326202.v1
   for GFN-FF:
   * S. Spicher and S. Grimme, Angew. Chem. Int. Ed., 2020, 59, 15665-15673.
     DOI: 10.1002/anie.202004239
   
   for ALPB and GBSA implicit solvation:
   * S. Ehlert, M. Stahn, S. Spicher, S. Grimme, J. Chem. Theory Comput.,
     2021, 17, 4250-4261. DOI: 10.1021/acs.jctc.1c00471
   
   for DFT-D4:
   * E. Caldeweyher, C. Bannwarth and S. Grimme, J. Chem. Phys., 2017,
     147, 034112. DOI: 10.1063/1.4993215
   * E. Caldeweyher, S. Ehlert, A. Hansen, H. Neugebauer, S. Spicher,
     C. Bannwarth and S. Grimme, J. Chem. Phys., 2019, 150, 154122.
     DOI: 10.1063/1.5090222
   * E. Caldeweyher, J.-M. Mewes, S. Ehlert and S. Grimme, Phys. Chem. Chem. Phys.
     2020, 22, 8499-8512. DOI: 10.1039/D0CP00502A
   
   for sTDA-xTB:
   * S. Grimme and C. Bannwarth, J. Chem. Phys., 2016, 145, 054103.
     DOI: 10.1063/1.4959605
   
   in the mass-spec context:
   * V. Asgeirsson, C. Bauer and S. Grimme, Chem. Sci., 2017, 8, 4879.
     DOI: 10.1039/c7sc00601b
   * J. Koopman and S. Grimme, ACS Omega 2019, 4, 12, 15120-15133.
     DOI: 10.1021/acsomega.9b02011
   
   for metadynamics refer to:
   * S. Grimme, J. Chem. Theory Comput., 2019, 155, 2847-2862
     DOI: 10.1021/acs.jctc.9b00143
   
   for SPH calculations refer to:
   * S. Spicher and S. Grimme, J. Chem. Theory Comput., 2021, 17, 1701-1714
     DOI: 10.1021/acs.jctc.0c01306
   
   with help from (in alphabetical order)
   P. Atkinson, C. Bannwarth, F. Bohle, G. Brandenburg, E. Caldeweyher
   M. Checinski, S. Dohm, S. Ehlert, S. Ehrlich, I. Gerasimov, C. Hölzer
   A. Katbashev, J. Koopman, C. Lavigne, S. Lehtola, F. März, M. Müller,
   F. Musil, H. Neugebauer, J. Pisarek, C. Plett, P. Pracht, F. Pultar,
   J. Seibert, P. Shushkov, S. Spicher, M. Stahn, M. Steiner, T. Strunk,
   J. Stückrath, T. Rose, and J. Unsleber
   
 * started run on 2022/11/24 at 09:07:52.367     

           -------------------------------------------------
          |                Calculation Setup                |
           -------------------------------------------------

          program call               : xtb solvent_cluster.coord --gfn2 --input xcontrol --opt 1
          hostname                   : cn0341
          coordinate file            : solvent_cluster.coord
          omp threads                :                     2

   ID    Z sym.   atoms
    1    8 o      1, 4, 7, 10, 13, 16, 19, 22, 25, 28, 31, 34, 37, 40, 43,
                  46, 49, 52, 55, 58, 61, 64, 67, 70, 73, 76, 79, 82, 85, 88,
                  91, 94, 97, 100, 103, 106, 109, 112, 115, 118, 121, 124,
                  127, 130, 133, 136, 139, 142, 145, 148, 151, 154, 157, 160,
                  163, 166, 169, 172, 175, 178, 181, 184, 187, 190, 193, 196,
                  199, 202, 205, 208, 211, 214, 217, 220, 223, 226, 229, 232,
                  235, 238, 241, 244, 247, 250, 253, 256, 259, 262, 265, 268,
                  271, 274, 277, 280, 283, 286, 289, 292, 295, 298, 301, 304,
                  307, 310, 313, 316, 319, 322, 325, 328, 331, 334, 337, 340,
                  343, 346, 349, 352, 355, 358, 361, 364, 367, 370, 373, 376,
                  379, 382, 385, 388, 391, 394, 397, 400, 403, 406, 409, 412,
                  415, 418, 421, 424, 427, 430, 433, 436, 439, 442, 445, 448,
                  451, 454, 457, 460, 463, 466, 469, 472, 475, 478, 481, 484,
                  487, 490, 493, 496, 499, 502, 505, 508, 511, 514, 517, 520,
                  523, 526, 529, 532, 535, 538, 541, 544, 547, 550, 553, 556,
                  559, 562, 565, 568, 571, 574, 577, 580, 583, 586, 589, 592,
                  595, 598, 601, 604, 607, 610, 613, 616, 619, 622, 625, 628,
                  631, 634, 637, 640, 643, 646, 649, 652, 655, 658, 661, 664,
                  667, 670, 673, 676, 679, 682, 685, 688, 691, 694, 697, 700,
                  703, 706, 709, 712, 715, 718, 721, 724, 727, 730, 733, 736,
                  739, 742, 745, 748, 751, 754
    2    1 h      2, 3, 5, 6, 8, 9, 11, 12, 14, 15, 17, 18, 20, 21, 23, 24,
                  26, 27, 29, 30, 32, 33, 35, 36, 38, 39, 41, 42, 44, 45, 47,
                  48, 50, 51, 53, 54, 56, 57, 59, 60, 62, 63, 65, 66, 68, 69,
                  71, 72, 74, 75, 77, 78, 80, 81, 83, 84, 86, 87, 89, 90, 92,
                  93, 95, 96, 98, 99, 101, 102, 104, 105, 107, 108, 110, 111,
                  113, 114, 116, 117, 119, 120, 122, 123, 125, 126, 128, 129,
                  131, 132, 134, 135, 137, 138, 140, 141, 143, 144, 146, 147,
                  149, 150, 152, 153, 155, 156, 158, 159, 161, 162, 164, 165,
                  167, 168, 170, 171, 173, 174, 176, 177, 179, 180, 182, 183,
                  185, 186, 188, 189, 191, 192, 194, 195, 197, 198, 200, 201,
                  203, 204, 206, 207, 209, 210, 212, 213, 215, 216, 218, 219,
                  221, 222, 224, 225, 227, 228, 230, 231, 233, 234, 236, 237,
                  239, 240, 242, 243, 245, 246, 248, 249, 251, 252, 254, 255,
                  257, 258, 260, 261, 263, 264, 266, 267, 269, 270, 272, 273,
                  275, 276, 278, 279, 281, 282, 284, 285, 287, 288, 290, 291,
                  293, 294, 296, 297, 299, 300, 302, 303, 305, 306, 308, 309,
                  311, 312, 314, 315, 317, 318, 320, 321, 323, 324, 326, 327,
                  329, 330, 332, 333, 335, 336, 338, 339, 341, 342, 344, 345,
                  347, 348, 350, 351, 353, 354, 356, 357, 359, 360, 362, 363,
                  365, 366, 368, 369, 371, 372, 374, 375, 377, 378, 380, 381,
                  383, 384, 386, 387, 389, 390, 392, 393, 395, 396, 398, 399,
                  401, 402, 404, 405, 407, 408, 410, 411, 413, 414, 416, 417,
                  419, 420, 422, 423, 425, 426, 428, 429, 431, 432, 434, 435,
                  437, 438, 440, 441, 443, 444, 446, 447, 449, 450, 452, 453,
                  455, 456, 458, 459, 461, 462, 464, 465, 467, 468, 470, 471,
                  473, 474, 476, 477, 479, 480, 482, 483, 485, 486, 488, 489,
                  491, 492, 494, 495, 497, 498, 500, 501, 503, 504, 506, 507,
                  509, 510, 512, 513, 515, 516, 518, 519, 521, 522, 524, 525,
                  527, 528, 530, 531, 533, 534, 536, 537, 539, 540, 542, 543,
                  545, 546, 548, 549, 551, 552, 554, 555, 557, 558, 560, 561,
                  563, 564, 566, 567, 569, 570, 572, 573, 575, 576, 578, 579,
                  581, 582, 584, 585, 587, 588, 590, 591, 593, 594, 596, 597,
                  599, 600, 602, 603, 605, 606, 608, 609, 611, 612, 614, 615,
                  617, 618, 620, 621, 623, 624, 626, 627, 629, 630, 632, 633,
                  635, 636, 638, 639, 641, 642, 644, 645, 647, 648, 650, 651,
                  653, 654, 656, 657, 659, 660, 662, 663, 665, 666, 668, 669,
                  671, 672, 674, 675, 677, 678, 680, 681, 683, 684, 686, 687,
                  689, 690, 692, 693, 695, 696, 698, 699, 701, 702, 704, 705,
                  707, 708, 710, 711, 713, 714, 716, 717, 719, 720, 722, 723,
                  725, 726, 728, 729, 731, 732, 734, 735, 737, 738, 740, 741,
                  743, 744, 746, 747, 749, 750, 752, 753, 755, 756

molecular fragmentation (1/2 indicates fragments):
111222222222222222222222222222222222222222222222222222222222222222222222
222222222222222222222222222222222222222222222222222222222222222222222222
222222222222222222222222222222222222222222222222222222222222222222222222
222222222222222222222222222222222222222222222222222222222222222222222222
222222222222222222222222222222222222222222222222222222222222222222222222
222222222222222222222222222222222222222222222222222222222222222222222222
222222222222222222222222222222222222222222222222222222222222222222222222
222222222222222222222222222222222222222222222222222222222222222222222222
222222222222222222222222222222222222222222222222222222222222222222222222
222222222222222222222222222222222222222222222222222222222222222222222222
222222222222222222222222222222222222
# atoms in fragment 1/2:     3   753
 fragment masses (1/2) :       18.02     4521.84
CMA distance (Bohr)    :  16.340
constraining FC (au)   :  0.0500

           -------------------------------------------------
          |                 G F N 2 - x T B                 |
           -------------------------------------------------

        Reference                      10.1021/acs.jctc.8b01176
      * Hamiltonian:
        H0-scaling (s, p, d)           1.850000    2.230000    2.230000
        zeta-weighting                 0.500000
      * Dispersion:
        s8                             2.700000
        a1                             0.520000
        a2                             5.000000
        s9                             5.000000
      * Repulsion:
        kExp                           1.500000    1.000000
        rExp                           1.000000
      * Coulomb:
        alpha                          2.000000
        third order                    shell-resolved
        anisotropic                    true
        a3                             3.000000
        a5                             4.000000
        cn-shift                       1.200000
        cn-exp                         4.000000
        max-rad                        5.000000


          ...................................................
          :                      SETUP                      :
          :.................................................:
          :  # basis functions                1512          :
          :  # atomic orbitals                1512          :
          :  # shells                         1008          :
          :  # electrons                      2016          :
          :  max. iterations                   250          :
          :  Hamiltonian                  GFN2-xTB          :
          :  restarted?                      false          :
          :  GBSA solvation                  false          :
          :  PC potential                    false          :
          :  electronic temp.          300.0000000     K    :
          :  accuracy                    1.0000000          :
          :  -> integral cutoff          0.2500000E+02      :
          :  -> integral neglect         0.1000000E-07      :
          :  -> SCF convergence          0.1000000E-05 Eh   :
          :  -> wf. convergence          0.1000000E-03 e    :
          :  Broyden damping             0.4000000          :
          ...................................................

 iter      E             dE          RMSdq      gap      omega  full diag
   1  -1291.0284235 -0.129103E+04  0.407E+00    8.45       0.0  T
   2  -1291.0963630 -0.679395E-01  0.242E+00    8.35       1.0  T
   3  -1291.1267120 -0.303490E-01  0.205E-01    8.03       1.0  T
   4  -1291.1315433 -0.483126E-02  0.449E-02    8.22       1.0  T
   5  -1291.1316081 -0.648239E-04  0.305E-02    8.19       1.0  T
   6  -1291.1316448 -0.366590E-04  0.400E-03    8.20       1.0  T
   7  -1291.1316468 -0.202445E-05  0.802E-04    8.20       4.5  T
   8  -1291.1316468 -0.390685E-07  0.415E-04    8.20       8.8  T
   9  -1291.1316468 -0.169359E-07  0.620E-05    8.20      58.7  T

   *** convergence criteria satisfied after 9 iterations ***

         #    Occupation            Energy/Eh            Energy/eV
      -------------------------------------------------------------
         1        2.0000           -0.6846006             -18.6289
       ...           ...                  ...                  ...
      1002        2.0000           -0.4126734             -11.2294
      1003        2.0000           -0.4124436             -11.2232
      1004        2.0000           -0.4119568             -11.2099
      1005        2.0000           -0.4108810             -11.1806
      1006        2.0000           -0.4092376             -11.1359
      1007        2.0000           -0.4088557             -11.1255
      1008        2.0000           -0.4074282             -11.0867 (HOMO)
      1009                         -0.1060074              -2.8846 (LUMO)
      1010                         -0.0930570              -2.5322
      1011                         -0.0818423              -2.2270
      1012                         -0.0805945              -2.1931
      1013                         -0.0720490              -1.9606
       ...                                ...                  ...
      1512                          0.4277631              11.6400
      -------------------------------------------------------------
                  HL-Gap            0.3014207 Eh            8.2021 eV
             Fermi-level           -0.2567178 Eh           -6.9856 eV

 SCC (total)                   0 d,  0 h,  0 min, 22.577 sec
 SCC setup                      ...        0 min,  0.042 sec (  0.186%)
 Dispersion                     ...        0 min,  0.119 sec (  0.526%)
 classical contributions        ...        0 min,  0.023 sec (  0.103%)
 integral evaluation            ...        0 min,  0.622 sec (  2.756%)
 iterations                     ...        0 min,  9.108 sec ( 40.343%)
 molecular gradient             ...        0 min, 12.589 sec ( 55.762%)
 printout                       ...        0 min,  0.073 sec (  0.323%)

         :::::::::::::::::::::::::::::::::::::::::::::::::::::
         ::                     SUMMARY                     ::
         :::::::::::::::::::::::::::::::::::::::::::::::::::::
         :: total energy           -1283.350708457636 Eh    ::
         :: gradient norm              0.043050662674 Eh/a0 ::
         :: HOMO-LUMO gap              8.202075803763 eV    ::
         ::.................................................::
         :: SCC energy             -1291.131646835385 Eh    ::
         :: -> isotropic ES            7.159654722987 Eh    ::
         :: -> anisotropic ES         -1.629994344375 Eh    ::
         :: -> anisotropic XC         -0.127365241159 Eh    ::
         :: -> dispersion             -0.792361344784 Eh    ::
         :: repulsion energy           7.625443045848 Eh    ::
         :: add. restraining           0.000000000000 Eh    ::
         :: total charge               0.000000000000 e     ::
         :::::::::::::::::::::::::::::::::::::::::::::::::::::

      ----------------------------------------------------------- 
     |                       L-ANC optimizer                     |
      ----------------------------------------------------------- 
          low memory version by Sebastian Ehlert

          ...................................................
          :                      SETUP                      :
          :.................................................:
          :   energy convergence        0.1000000E-05 Eh    :
          :   grad. convergence         0.8000000E-03 Eh/a0 :
          :   optimization log               true           :
          :   writing optlog all                1     steps :
          :   Hessian reset                    20     steps :
          :   maximium step len.        1.0000000     a0    :
          :   LBFGS images                     20           :
          ...................................................
 * calculating model hessian...
Using Lindh-Hessian (1995)
 Shifting diagonal of input Hessian by   1.000007946440661E-002
 Lowest  eigenvalues of input Hessian
    0.010000   -0.000000   -0.000000   -0.000000   -0.000000   -0.000000
   -0.000000   -0.000000   -0.000000   -0.000000   -0.000000   -0.000000
   -0.000000   -0.000000   -0.000000   -0.000000   -0.000000   -0.000000
 Highest eigenvalues
    0.304904    0.335554    1.214246    1.256143    1.419694    1.463099
 

........................................................................
.............................. CYCLE    1 ..............................
........................................................................
   1  -1291.1298117 -0.129113E+04  0.246E-02    8.19       0.0  T
   2  -1291.1298271 -0.154600E-04  0.152E-02    8.19       1.0  T
   3  -1291.1298329 -0.572758E-05  0.190E-03    8.19       1.9  T
   4  -1291.1298333 -0.408281E-06  0.568E-04    8.19       6.4  T
   5  -1291.1298333 -0.108816E-07  0.900E-05    8.19      40.4  T
     SCC iter.                  ...        0 min,  3.812 sec
     gradient                   ...        0 min, 12.324 sec
 * total energy  : -1283.3538028 Eh     change       -0.3094305E-02 Eh
   gradient norm :     0.0251885 Eh/a0  converged?    E=F G=F D=F
   step length   :     0.4639896 a0

........................................................................
.............................. CYCLE    2 ..............................
........................................................................
   1  -1291.1286543 -0.129113E+04  0.252E-02    8.19       0.0  T
   2  -1291.1287329 -0.786832E-04  0.147E-02    8.19       1.0  T
   3  -1291.1287444 -0.114740E-04  0.513E-03    8.19       1.0  T
   4  -1291.1287453 -0.897248E-06  0.639E-04    8.19       5.7  T
   5  -1291.1287453 -0.199352E-07  0.136E-04    8.19      26.8  T
     SCC iter.                  ...        0 min,  3.636 sec
     gradient                   ...        0 min, 12.658 sec
 * total energy  : -1283.3562177 Eh     change       -0.2414946E-02 Eh
   gradient norm :     0.0255367 Eh/a0  converged?    E=F G=F D=F
   step length   :     0.5729019 a0

........................................................................
.............................. CYCLE    3 ..............................
........................................................................
   1  -1291.1323144 -0.129113E+04  0.167E-02    8.19       0.0  T
   2  -1291.1323533 -0.388484E-04  0.909E-03    8.19       1.0  T
   3  -1291.1323582 -0.494366E-05  0.337E-03    8.19       1.1  T
   4  -1291.1323585 -0.227027E-06  0.266E-04    8.19      13.7  T
   5  -1291.1323585 -0.322916E-08  0.769E-05    8.19      47.3  T
     SCC iter.                  ...        0 min,  3.514 sec
     gradient                   ...        0 min, 12.598 sec
 * total energy  : -1283.3569732 Eh     change       -0.7555249E-03 Eh
   gradient norm :     0.0109080 Eh/a0  converged?    E=F G=F D=F
   step length   :     0.2993217 a0

........................................................................
.............................. CYCLE    4 ..............................
........................................................................
   1  -1291.1332798 -0.129113E+04  0.502E-03    8.19       0.0  T
   2  -1291.1332813 -0.147315E-05  0.289E-03    8.19       1.3  T
   3  -1291.1332815 -0.236711E-06  0.675E-04    8.19       5.4  T
   4  -1291.1332815 -0.332009E-07  0.115E-04    8.19      31.8  T
     SCC iter.                  ...        0 min,  2.832 sec
     gradient                   ...        0 min, 12.658 sec
 * total energy  : -1283.3572723 Eh     change       -0.2991094E-03 Eh
   gradient norm :     0.0077102 Eh/a0  converged?    E=F G=F D=F
   step length   :     0.0743022 a0

........................................................................
.............................. CYCLE    5 ..............................
........................................................................
   1  -1291.1333705 -0.129113E+04  0.148E-02    8.19       0.0  T
   2  -1291.1333743 -0.381373E-05  0.885E-03    8.19       1.0  T
   3  -1291.1333755 -0.119551E-05  0.110E-03    8.19       3.3  T
   4  -1291.1333756 -0.132031E-06  0.324E-04    8.19      11.2  T
   5  -1291.1333756 -0.406953E-08  0.366E-05    8.19      99.3  T
     SCC iter.                  ...        0 min,  3.482 sec
     gradient                   ...        0 min, 12.616 sec
 * total energy  : -1283.3575813 Eh     change       -0.3089189E-03 Eh
   gradient norm :     0.0095437 Eh/a0  converged?    E=F G=F D=F
   step length   :     0.2388309 a0

........................................................................
.............................. CYCLE    6 ..............................
........................................................................
   1  -1291.1362547 -0.129114E+04  0.503E-03    8.19       0.0  T
   2  -1291.1362551 -0.385543E-06  0.300E-03    8.19       1.2  T
   3  -1291.1362552 -0.142020E-06  0.323E-04    8.19      11.3  T
   4  -1291.1362552 -0.887053E-08  0.104E-04    8.19      34.9  T
     SCC iter.                  ...        0 min,  2.696 sec
     gradient                   ...        0 min, 12.649 sec
 * total energy  : -1283.3576111 Eh     change       -0.2979684E-04 Eh
   gradient norm :     0.0061525 Eh/a0  converged?    E=F G=F D=F
   step length   :     0.0632348 a0

........................................................................
.............................. CYCLE    7 ..............................
........................................................................
   1  -1291.1345695 -0.129113E+04  0.350E-03    8.19       0.0  T
   2  -1291.1345707 -0.115408E-05  0.201E-03    8.19       1.8  T
   3  -1291.1345708 -0.160303E-06  0.596E-04    8.19       6.1  T
   4  -1291.1345708 -0.150360E-07  0.669E-05    8.19      54.4  T
     SCC iter.                  ...        0 min,  2.755 sec
     gradient                   ...        0 min, 12.647 sec
 * total energy  : -1283.3576568 Eh     change       -0.4579126E-04 Eh
   gradient norm :     0.0035277 Eh/a0  converged?    E=F G=F D=F
   step length   :     0.0583903 a0

........................................................................
.............................. CYCLE    8 ..............................
........................................................................
   1  -1291.1349181 -0.129113E+04  0.236E-03    8.19       0.0  T
   2  -1291.1349183 -0.177378E-06  0.143E-03    8.19       2.5  T
   3  -1291.1349184 -0.589246E-07  0.234E-04    8.19      15.5  T
   4  -1291.1349184 -0.517184E-08  0.704E-05    8.19      51.7  T
     SCC iter.                  ...        0 min,  2.653 sec
     gradient                   ...        0 min, 12.724 sec
 * total energy  : -1283.3576684 Eh     change       -0.1151941E-04 Eh
   gradient norm :     0.0028674 Eh/a0  converged?    E=F G=F D=F
   step length   :     0.0321838 a0

........................................................................
.............................. CYCLE    9 ..............................
........................................................................
   1  -1291.1349556 -0.129113E+04  0.133E-03    8.19       0.0  T
   2  -1291.1349557 -0.290252E-07  0.801E-04    8.19       4.5  T
   3  -1291.1349557 -0.100995E-07  0.913E-05    8.19      39.8  T
     SCC iter.                  ...        0 min,  1.994 sec
     gradient                   ...        0 min, 12.555 sec
 * total energy  : -1283.3576781 Eh     change       -0.9733228E-05 Eh
   gradient norm :     0.0018511 Eh/a0  converged?    E=F G=F D=F
   step length   :     0.0201050 a0

........................................................................
.............................. CYCLE   10 ..............................
........................................................................
   1  -1291.1353073 -0.129114E+04  0.162E-03    8.19       0.0  T
   2  -1291.1353074 -0.104864E-06  0.971E-04    8.19       3.7  T
   3  -1291.1353075 -0.218931E-07  0.174E-04    8.19      20.9  T
     SCC iter.                  ...        0 min,  1.994 sec
     gradient                   ...        0 min, 12.827 sec
 * total energy  : -1283.3576824 Eh     change       -0.4267889E-05 Eh
   gradient norm :     0.0014549 Eh/a0  converged?    E=F G=F D=F
   step length   :     0.0288174 a0

........................................................................
.............................. CYCLE   11 ..............................
........................................................................
   1  -1291.1350261 -0.129114E+04  0.121E-03    8.19       0.0  T
   2  -1291.1350261 -0.168573E-07  0.740E-04    8.19       4.9  T
   3  -1291.1350261 -0.794012E-08  0.672E-05    8.19      54.1  T
     SCC iter.                  ...        0 min,  2.020 sec
     gradient                   ...        0 min, 13.068 sec
 * total energy  : -1283.3576835 Eh     change       -0.1097461E-05 Eh
   gradient norm :     0.0011003 Eh/a0  converged?    E=F G=F D=F
   step length   :     0.0154216 a0

........................................................................
.............................. CYCLE   12 ..............................
........................................................................
   1  -1291.1351706 -0.129114E+04  0.812E-04    8.19       0.0  T
   2  -1291.1351706 -0.124658E-07  0.484E-04    8.19       7.5  T
   3  -1291.1351706 -0.221166E-08  0.583E-05    8.19      62.4  T
     SCC iter.                  ...        0 min,  2.005 sec
     gradient                   ...        0 min, 13.064 sec
 * total energy  : -1283.3576845 Eh     change       -0.1028098E-05 Eh
   gradient norm :     0.0006153 Eh/a0  converged?    E=F G=T D=F
   step length   :     0.0136239 a0

........................................................................
.............................. CYCLE   13 ..............................
........................................................................
   1  -1291.1351764 -0.129114E+04  0.290E-04    8.19       0.0  T
   2  -1291.1351764 -0.197656E-08  0.174E-04    8.19      20.9  T
   3  -1291.1351764 -0.829004E-09  0.257E-05    8.19     141.6  T
     SCC iter.                  ...        0 min,  1.996 sec
     gradient                   ...        0 min, 13.031 sec
 * total energy  : -1283.3576847 Eh     change       -0.2083318E-06 Eh
   gradient norm :     0.0002461 Eh/a0  converged?    E=T G=T D=F
   step length   :     0.0032225 a0

   *** GEOMETRY OPTIMIZATION CONVERGED AFTER 13 CYCLES ***

------------------------------------------------------------------------
 total energy gain   :        -0.0069762 Eh       -4.3777 kcal/mol
 total RMSD          :         0.0512975 a0        0.0271 Å
 total power (kW/mol):        -1.4089333 (step)   -0.0823 (real)
------------------------------------------------------------------------

 L-ANCopt (total)              0 d,  0 h,  3 min, 42.537 sec
 setup                          ...        0 min,  0.031 sec (  0.014%)
 model hessian                  ...        0 min,  7.701 sec (  3.461%)
 ANC generation                 ...        0 min,  2.497 sec (  1.122%)
 coordinate transformation      ...        0 min,  0.001 sec (  0.001%)
 Rational function              ...        0 min,  0.000 sec (  0.000%)
 singlepoint calculation        ...        3 min, 32.209 sec ( 95.359%)
 optimization log               ...        0 min,  0.092 sec (  0.041%)
 hessian update                 ...        0 min,  0.000 sec (  0.000%)

================
 final structure:
================
$coord
       -7.21048669646200      -11.98285504161700       -8.28864767393800      o
       -7.36859000876200      -13.16467192921300       -9.64610423131200      h
       -6.53500492254700      -10.42577292040100       -9.04238334939000      h
        6.06350203105900       -4.11321827037700        4.60737866778300      o
        7.77097010366600       -4.10234519431200        3.91773126702400      h
        6.15210364802900       -5.23310267168300        6.06103056866000      h
        5.41516374399800        1.40888984269700       -4.82863899404900      o
        4.17039699551700        2.40513165796300       -3.87304897701000      h
        5.12556399041000        1.80512780519000       -6.61427931521500      h
        7.88428433205900       -0.92761279991500       -0.27413269912600      o
        9.61370520947900       -1.19532482896200       -0.90186798408500      h
        7.00402719516000        0.08263123003400       -1.49735518056800      h
        4.27889064601900       -3.40157401888400       -4.34405221343000      o
        3.74500080785800       -3.30957869089100       -2.57713655836200      h
        4.74284034843100       -1.66624472998000       -4.78176263507600      h
       -3.49879320967000       -9.28916385484900       -0.69574415933900      o
       -3.96620865813500      -10.71791000448500       -1.73945945277400      h
       -2.17505139563300       -8.37554524395100       -1.62637878751600      h
        9.99496268301500        0.56575603853400        4.40012592774700      o
       10.09785286087300       -0.86381979452400        5.56031315347900      h
        9.19228366313400       -0.06672704511200        2.87918087561100      h
        0.15954421114000       -6.80957719517300       -2.95551795517400      o
       -0.02607913934200       -5.01538249470500       -3.30937486467200      h
        1.34663881890900       -7.01049026766600       -1.56585507094500      h
        8.48794816636700       -9.57408809214500        2.98284406344300      o
        8.01501297278000       -7.91177526128000        2.38084543806700      h
        7.14822350472900      -10.17932143286000        4.06752674992100      h
        0.83081384751900        3.91476001859900        2.60554900488400      o
        0.63178643466300        2.25958424914200        3.39224568058700      h
       -0.85099865005500        4.67778470223800        2.66442513610700      h
       -0.53129571365200        6.47389931513700        7.40104643423300      o
       -0.47652412123700        7.68335374842100        6.00191817634000      h
       -0.41661955579900        7.41087110508100        8.97863417203500      h
       -0.31583909085600       -0.46678560129400        4.99196205332000      o
        0.56184014010700       -0.95829231191800        6.51938950248900      h
       -0.41722557106900       -2.05177835117100        4.04389398440900      h
        2.93769080836900       -7.08763220154200       -7.62375911523500      o
        2.81762898144900       -6.46221772624900       -9.34125567754000      h
        3.10618772034900       -5.60976081209500       -6.53710062201100      h
       -5.32414827443600        0.80374537541500        4.74248380060800      o
       -6.58066832180200       -0.27182365017000        5.53523692552500      h
       -3.64074729307200        0.11403652568100        5.04347302206400      h
       11.92584697063500        3.26084519108000       -0.08495347551400      o
       10.32365151083800        3.21707779147600        0.83789242020700      h
       12.39185806869300        5.04260823906200       -0.08100274868200      h
        2.29700237156800       -2.18636831749000       -9.68939052369700      o
        2.31980992966300       -1.83659074881600      -11.50087923921700      h
        1.82020445115100       -0.55476097139900       -8.91565727635400      h
       -4.47222936620500        1.88456590765100       -8.77548791476800      o
       -5.32312764630100        3.30843071809200       -7.95483104262600      h
       -5.42228102999000        0.36685840204100       -8.32445876529200      h
      -13.20939948496700       -2.22461031961200        1.94720322184700      o
      -14.57855369484300       -2.38807463268500        3.16606166296700      h
      -13.25026894069500       -3.77503851488300        0.97406792574600      h
       -9.12340626333800       -4.62041046227100       -0.08727654075700      o
       -8.99400422554100       -6.14615395226900       -1.11633747073700      h
       -9.68139230189100       -5.31018581354000        1.54021680580200      h
      -12.84571966244400        2.72067827083100        3.69596127278800      o
      -12.08169411474700        4.29425799589300        3.09695859946800      h
      -11.77519274940100        1.39609538985100        3.04169890274600      h
       -2.10825540953900        5.86455708149700       -4.38188506286200      o
       -3.89239576054300        5.62828410011400       -4.75646628485100      h
       -1.32328158904600        6.27543819721200       -5.97330936121500      h
       10.34800782331400        2.45401609717700       -4.70460684402800      o
        8.51715366283900        2.19299726239200       -4.69298888826000      h
       10.88844833940900        2.57005880184600       -2.91830939126100      h
       -1.23561867889000       -5.11808709826300        3.51632257497200      o
        0.05908026149900       -6.12410476047300        2.73556080187600      h
       -2.43859142284400       -4.62500739468700        2.12995687097400      h
       -6.99334915563100       -2.16191347904900       -7.12936989696000      o
       -8.33000456009800       -1.73340635650100       -5.93211071125800      h
       -6.35731823189100       -3.79274328020100       -6.60782426232800      h
       -3.40878339745700       -3.62086815125000        7.94278328248600      o
       -4.65709961535400       -4.89662733787900        8.35002519325900      h
       -2.54619966530700       -4.24794565756700        6.44314479688700      h
      -10.73056928428900       -1.37741154901500       -3.70669053126000      o
      -12.15075473084400       -2.27766463207400       -4.47538831165900      h
      -10.17752547265500       -2.49602208265700       -2.35660279336300      h
        7.54242277946700       -0.99391378250100      -14.22229350293700      o
        7.36713553753200       -1.27766375335200      -12.37887676503700      h
        9.36485091404000       -0.90926974942200      -14.46088311466700      h
        9.17520784056400      -10.79791535751200       -1.82320288082700      o
        8.94439665907000      -10.68265461520400        0.01408392246500      h
        7.47125631040900      -10.64460571529500       -2.52685934992700      h
      -14.39386654294300       -6.61271614959400       -0.67393704181500      o
      -14.32195152395600       -5.89093142116500       -2.37790509592200      h
      -14.44215826110900       -8.43809185716000       -0.88360323041800      h
        8.22365623912100        9.35920720006000        2.49521665556800      o
        9.87047094710800        8.76223475324700        1.84802473144800      h
        8.39272639020800        9.82333696028400        4.26203514451800      h
      -22.58649410407400       -0.88695921098300       -6.06579991173500      o
      -21.79317880515100        0.38849242218000       -4.93482491292200      h
      -23.32856203892800       -2.08397599152300       -4.89689899014200      h
      -13.18604635562000       -5.79527823228800        8.20777624533600      o
      -13.15173944379200       -7.56474792359700        8.71990802212500      h
      -12.61850047997100       -4.77050434177800        9.65148170180300      h
        6.75446997722500        6.50866079506100       -3.06423295815800      o
        7.19030730326500        5.62046756544300       -1.50659611885100      h
        4.93164841871700        6.35270704413900       -3.12965750606900      h
       10.65905957750300       -3.16035892736600        7.82183728492000      o
        9.03871806755300       -2.78111556362000        8.58493054217800      h
       11.89100194724900       -2.94034068187300        9.17960172003600      h
       10.77284558845200       -4.43754749041900        2.79597207748500      o
       10.91828584093000       -5.40389683657200        1.26444626381000      h
       12.46069993635000       -4.35469562051900        3.50791023352000      h
       -8.71753828159600       -9.21641371815600       -2.10114571004100      o
       -9.90002706049800      -10.06709748185300       -3.24289011606400      h
       -8.59934913454100      -10.25437798404300       -0.58892232103900      h
       -0.44598873485200        9.81874586447600        3.50710514563700      o
       -1.31630103946600        9.45843259931500        1.91467625895300      h
       -1.05489446693200       11.48820939244400        4.00443446455000      h
        2.91063006165500       -2.55228555890700        0.58334362478100      o
        3.36354748463700       -0.86930432724900        1.12655374288000      h
        3.71476102487900       -3.62008819237600        1.83035441602300      h
       -8.74117884336100        0.77814564726400        0.94565558656100      o
       -9.20003964342700       -0.98215577687500        0.87548321558600      h
       -7.44114407637200        0.93019348979600        2.23223729114900      h
       12.36551220927400       -2.02936387875000       -2.01468934473900      o
       12.53922820096200       -3.85094605539200       -1.80561180784700      h
       13.81805540094400       -1.23425407698000       -1.18959078929400      h
        8.06992805114100      -11.18351792459900       -7.41676182778500      o
        9.77741390455800      -11.42655943549000       -7.99494605569400      h
        8.04362434546000       -9.50415767846900       -6.63814988629700      h
        7.96689911864300        7.00734243134300       -8.08935430502100      o
        9.25839858065700        8.30558661175300       -8.16478589159300      h
        7.43652168632500        6.85178125624700       -6.34344667607200      h
       -6.99275204890700        2.76381155702000       -3.50133852331400      o
       -8.16798137282000        2.69974744152800       -4.91983055488800      h
       -7.67671596375900        1.73551572529800       -2.14826096949100      h
       -8.56130548070000       -1.21657584417000      -13.39563371355000      o
       -8.84101261399600        0.61057398743900      -13.30119527131600      h
       -6.73023034852300       -1.40391756025200      -13.31554298535100      h
       15.17199158841400       -3.71449252770200      -10.05083452905700      o
       16.48555728736300       -2.41427989158100       -9.92193124001600      h
       14.03805695146500       -3.37083946445500       -8.60900747757000      h
       15.49133486801800        1.77133405543500       -5.39450897946700      o
       16.06805311551000        3.16798635999600       -4.32807197780900      h
       13.66824743999800        1.84177363536000       -5.38705643851700      h
        7.01784546297400       -5.94899930639500       -0.35644511349600      o
        7.49339330189700       -6.41526385166300       -2.06491481814600      h
        7.17673570515900       -4.11169238545900       -0.22776740179700      h
      -16.06569632036000       -0.40792918199100       -2.17397897294400      o
      -17.11339586020800       -1.85341422286400       -1.70833123101300      h
      -14.84742882470000       -0.30037997418900       -0.80971638785100      h
       -6.55156874862700       11.49642515761200        1.59507701313500      o
       -5.81766836825200       12.95095214824600        0.79883356817000      h
       -8.29860769716400       11.96469846739100        1.99514061790900      h
       -6.27000463474200        6.34251979270600       -7.13424714641000      o
       -8.00959381285600        6.87387887586100       -7.39530018334500      h
       -5.25228997066100        7.31337348623000       -8.32892489616800      h
        8.28101620901100       -6.45972644629500       -5.33171550927900      o
        9.68038750777000       -5.43204775409300       -5.96136425193300      h
        6.80665191886700       -5.35337091941600       -5.34134055193500      h
        0.40951011859400        1.82277603349800       -7.54720205116100      o
       -1.37597173714500        1.77429195748100       -8.03805268692000      h
        1.00689376372700        3.49450846300500       -8.01828080310900      h
       13.19869503746200       11.06948046822700        7.98115940526200      o
       11.44483028201200       11.57204844875600        7.80213490674200      h
       13.27132129827300       10.05997578240600        9.54348323981300      h
        8.56057226344200        4.95163747418000        6.60390394761100      o
        8.63169416482500        4.96743784889800        8.44258918873400      h
        8.98204011317500        3.24982318892500        6.01640024308700      h
        3.26005372509800        5.05361230809500       12.97660343227900      o
        2.02287392243600        6.40468402875100       13.00661608550600      h
        3.13735128489800        4.31484438258000       11.27904613380400      h
       16.87086059310300       -3.13148013729800       -4.80370810869700      o
       17.12754182993400       -3.60756963139300       -3.05154806368700      h
       16.48061437995300       -1.33720992224800       -4.83583716598100      h
       -8.91406786584100        5.77092460624600        7.15254860384600      o
      -10.06441516118800        4.46403008908600        7.78928454654300      h
       -7.21897003038300        5.14776859572500        7.47897055364800      h
       -6.81299806495800       -0.54795173152400       10.07312324531900      o
       -5.68905220643800       -1.59467319155000        9.06920215505900      h
       -6.24713197804500        1.17347411848300        9.83698208687200      h
      -14.30856270089900       -4.48598807288100       -5.20908408724900      o
      -13.91702215359700       -6.00450382675200       -6.17169589921500      h
      -15.78255202557300       -3.73036958220800       -6.00579345983200      h
      -23.02905740299600        6.31016855164900        0.87512066410400      o
      -24.20655362212700        7.66853768036100        1.06737906670400      h
      -21.98051512039700        6.74068521179500       -0.59200999547900      h
       11.89168692736300       -8.07235119324700        7.09314539782000      o
       13.40682318246300       -7.89263617299100        8.12253457546500      h
       11.33897088170400       -6.31569227634600        6.86598738388700      h
      -10.21871425805400        2.51629123783600       -7.43107680571900      o
      -10.60922629517400        0.79528465263200       -7.98169983249100      h
      -11.79501744670600        3.10680016938000       -6.73791062809500      h
       -9.21481777297100        3.73536049394900      -12.33269332453900      o
      -10.91680577430700        4.36695258144700      -12.54533326356500      h
       -9.08608262456300        3.49173979981700      -10.50447093342600      h
       -3.23780430606600       -7.34239312059600       12.63375681978500      o
       -3.86274595907600       -9.01980919210300       13.12019958378400      h
       -4.40870823379700       -6.07467618865600       13.29148652797400      h
      -11.33134222585500        1.82508891198400        8.99241304907900      o
      -13.15301763042500        1.54172166279400        9.04274938496000      h
      -10.67193528818700        0.55107292497800        7.82828067177300      h
      -17.65176815345400        1.06601804469100        2.93893508387000      o
      -17.96878235754100        2.47037344310700        1.79657711028600      h
      -15.95154262524400        1.42905904573500        3.53305523332600      h
        9.29548429140700       10.83731450195000       -3.82128739451100      o
        8.20574265851900        9.46027241911300       -3.24346127061500      h
        9.43886755772500       12.02468744934400       -2.42036436032800      h
       -5.83217273924400       -7.81524061445900        3.79574327797100      o
       -4.29409682645800       -8.21955734946000        4.71596697239000      h
       -5.32678762953600       -7.56554660058500        2.05980079378300      h
      -15.31204590839800        1.94672358634600       -6.79823007662900      o
      -15.39748545203900        1.00477895705500       -5.23195148824000      h
      -17.02457314567900        1.98230244285300       -7.44550627364400      h
       -3.50299411883300       -1.67933192764200      -13.07165064538100      o
       -1.94423350769100       -1.49319094985300      -13.97088052574300      h
       -3.13970364807400       -2.60012104204900      -11.51169038216000      h
        2.42793307539300       -6.34482568298600      -12.85744621358100      o
        4.18153258286300       -6.59967259628700      -13.44434327242300      h
        1.81325589689900       -4.93727609648200      -13.83028395022100      h
       -2.14219012906900       -4.45033847391700       -9.02926022898300      o
       -0.37915479720300       -4.03232471724100       -9.39632880237500      h
       -2.39184837704500       -3.73337785905600       -7.35741075192800      h
        2.23467224045100        4.16449881519900       -2.18868844761000      o
        1.88510530913600        4.03020790027900       -0.37607840159300      h
        0.66186451152500        4.66920357972300       -2.97010860651900      h
        2.24661894220500       -3.27176192038200        8.67836027024300      o
        2.22806665294000       -4.64264442580200        7.44034318141300      h
        1.98139137214600       -4.16505830503800       10.26821787032200      h
      -12.29032860463400        3.28831616196100       -2.13628409731700      o
      -11.84629611805300        1.62051647551900       -2.80249670535700      h
      -11.13146948113400        3.58788272364500       -0.76746279441400      h
       -1.65409793478300       -9.61394360899000       -6.88378073181000      o
       -1.29437779714900       -9.75449233249400       -8.68462398384200      h
       -0.35991092474400       -8.54117093448000       -6.13761469115300      h
       -5.14805995310500        9.12736892001000        6.01826921417600      o
       -4.00598440567900       10.10744325464800        7.06160690786300      h
       -5.68486333974400       10.20498485630300        4.62769167991100      h
       -4.47308589715300        4.00304294765000        9.11586194104400      o
       -3.12277516668000        4.85327429489300        8.16248629258900      h
       -4.84274002099000        5.14654622649500       10.53132041218100      h
       -7.83754264686300       -6.06293113672300        8.06589348831800      o
       -7.51617515593900       -6.77507867174800        6.39455478207800      h
       -8.82566148382900       -7.26779250964000        8.98531622144900      h
      -19.96143803798400        7.99998172351500       -2.78972181212000      o
      -19.73148597976400        7.84076416114300       -4.58727744083300      h
      -19.33304128053400        9.69896784850500       -2.33850038567400      h
      -10.82926596505700        8.24633339648800       -8.43886042230900      o
      -11.65638758419100        8.48835258283800       -6.80755321194300      h
      -11.97737475775100        7.27226470653700       -9.47249058491300      h
      -23.32085986707000       -3.60059246725800       -1.62566652618400      o
      -21.56385089166500       -3.73569733325300       -1.05827291369200      h
      -23.93970487904200       -2.07904064433900       -0.81744717866400      h
      -11.19835720869800       -7.04052864252000        3.73456722346700      o
      -11.81805507893500       -6.52003447975100        5.38777147472300      h
      -12.70286414915100       -7.41541091637200        2.77814087135900      h
        1.91632209233600       12.12383197002800      -10.36473045213600      o
        2.69026736995500       10.77096059305300      -11.31290631177200      h
        3.26085277662900       12.75159145425100       -9.29164629976700      h
        3.58822076651600        9.97871801785300        0.49155994590500      o
        2.26967348332400        9.73982243284600        1.76762015718500      h
        5.15807136175900        9.42638256318900        1.26996504498300      h
        5.07834550033400        2.31822163692400       -9.74865019596600      o
        4.17139033071800        3.13198082359000      -11.09458488031000      h
        6.87982245590100        2.51418026485100      -10.05118044377000      h
        1.18221770716300        3.63826769823800      -13.54961168418300      o
       -0.64860669315200        3.81261341388700      -13.52066874793500      h
        1.84426040756200        4.94288644300400      -14.61557274588900      h
       17.48245972625500       -7.88556152960900       -8.22018207793000      o
       19.19887793213200       -7.33644778311100       -7.92847374488500      h
       16.61667791450400       -6.37608310096300       -8.87617618584000      h
       18.16411946121800        0.36890021351300       -9.48845850405600      o
       17.22731365459700        1.02314073095300       -8.03199246883700      h
       19.89441316393700        0.14412124209600       -8.92772812025200      h
       -1.58621697973200       11.88361203465200        8.89782857468200      o
        0.20160028229500       11.67087250499000        8.40953111628400      h
       -2.02228911915100       13.60547171188000        8.55410395356000      h
       16.10932178812800        0.50672227053000        0.14931030218500      o
       14.80949750070500        1.78887949115600        0.39691520058900      h
       17.36204202841200        1.21095013738900       -1.01062940894300      h
       15.62450564485700       -4.56413568489300        4.01677694502600      o
       16.38777980690300       -4.69993408069000        2.33387467613400      h
       16.47020590831900       -5.82280049921300        5.03333977956600      h
        7.27458938409400        4.21524328445300        1.34625533965700      o
        7.22527396037400        5.73251441643600        2.36260835603600      h
        6.30207833496100        2.92762265313500        2.25037871298600      h
      -11.60647729288300       -1.96135173495600       -9.45454385265900      o
      -11.25563106566600       -3.57055258194600       -8.60003332815200      h
      -10.31104503999300       -1.80007604295000      -10.77288555577800      h
      -18.61688588923900       -3.95278938101000        0.25920776546600      o
      -17.33329679793900       -5.28655644292000        0.18778116958400      h
      -18.39820620636600       -3.07785846410000        1.84479288206800      h
       -9.64443817124700       -1.82142932974900        5.79757110632500      o
      -10.90243499579000       -2.23337116715900        4.52435559022300      h
       -9.25334748284500       -3.35938377529700        6.72637938788200      h
        1.66879605673200       15.68455755581800       -4.35962684961200      o
        0.45327168499300       14.46037056694400       -5.03553404978100      h
        3.21134145994900       15.29060051730100       -5.27227369898700      h
       -4.57605912166400        1.28126118533500       15.05580662082900      o
       -4.95752842100600       -0.47369465838300       15.37049988353600      h
       -2.79268964883300        1.47339762351100       15.40060469586300      h
       13.28992646282600        6.76662808583300        5.44472002897500      o
       11.68848046909600        5.96801580986300        5.90957353741900      h
       13.33318594000100        8.37249376872300        6.36903587448200      h
        4.75575944646600        0.82674590514300        4.07444538470900      o
        4.05680544927400        1.58663509388100        5.58624783895700      h
        5.34831026507100       -0.85507742339500        4.53280342828800      h
       22.45589574049300       -2.53737167995500       -1.46792366814900      o
       24.16743051147000       -1.94606896146700       -1.61866072249600      h
       21.43963446577400       -1.10933960975600       -2.09224316233800      h
       16.35836362129400        6.32845939109300       -8.43916816607000      o
       15.77859587711700        5.46924019429700       -9.93902267455700      h
       14.91348850440000        6.71087961281600       -7.37202045378900      h
       11.53278956506900       -2.79802434008600       -6.81099330591000      o
       11.90410431336400       -2.12249771976200       -5.12914291026000      h
       10.18530090087400       -1.82997352701800       -7.57595172589200      h
      -20.39584404552800        2.20278011284900       -2.94229121296700      o
      -18.75703810968700        1.43509301722500       -2.58420038174000      h
      -21.46798417774000        1.85886274516000       -1.48746507342400      h
      -19.59236696886800        6.89489995979800        4.80802925772000      o
      -20.69249129809500        6.42546687626000        3.41666271411600      h
      -19.12433128967000        8.66523479259100        4.51332093446300      h
      -11.03205706099300       13.26734728775000        2.93316134332800      o
      -12.00057961787700       12.26809365863500        4.15330078998500      h
      -12.03038234844000       13.35038422852900        1.39575599771600      h
       -6.74908817775000        6.82399230231500       -0.83714793205600      o
       -5.57443318199300        6.24189995711500        0.47646531050900      h
       -6.87090512090400        5.39904784854100       -2.04066684668200      h
       10.22493868595200        2.42556806163600       -9.87739423685700      o
       10.41690268380000        2.62304762888000       -8.07140836456200      h
       10.54883353056400        4.08128999005000      -10.64276497557700      h
      -13.27820759550400       10.75824093858500        6.71949121264200      o
      -13.78824539833800        8.98170111353600        6.74298755298000      h
      -11.91743605894900       10.88944131764100        7.94046061125200      h
       -1.27351501820000       12.02160975624700       -6.30724894206500      o
       -0.61983205098400       12.04593014389900       -8.02901772460900      h
       -3.07223612859000       12.41951578059100       -6.33303778567500      h
       12.49596267231900       -0.58690234837400      -13.20453098343600      o
       11.70946709841600        0.37124785029500      -11.82317204635700      h
       13.50679486132900       -1.88424938838100      -12.38223050098600      h
      -15.49176372677100       -2.37578763928700      -12.38755700311100      o
      -14.11147364344400       -2.09021413939800      -11.11790200716500      h
      -14.67036442703500       -2.35475593943700      -14.00265515188600      h
       -1.11183157303500        0.32461028899800       10.36370442278600      o
       -2.43511189350800        1.58050578250500       10.08804999443900      h
       -1.71735657065100       -1.27909553426400        9.70182698780400      h
      -10.34409995679000       -6.65139857975000       -7.88987035043800      o
       -8.71266065098900       -6.79384413797400       -7.06375368378500      h
      -10.07538158159000       -6.98354819120500       -9.66675139026200      h
       -5.71191759732800       -6.81997557453600       -5.37813235323100      o
       -4.28154465613300       -7.80537953407100       -5.98229897822900      h
       -6.49860826294800       -7.77050137566400       -4.01200975132600      h
      -16.86032199078200        4.91004045166300       -0.18868789127500      o
      -18.04393337782500        5.64636449344000       -1.39694301111900      h
      -15.50223314357800        4.09174306696400       -1.11730333196900      h
      -11.52806533032100      -11.82925725417600       -5.32091433709800      o
      -12.83043377733200      -10.79405090403900       -6.12524066831600      h
      -10.14551203995400      -11.92487420604600       -6.52219146718400      h
       22.49078314759800        2.38423523093200        4.85491381224500      o
       21.45290917886400        0.98406321692700        4.18328976645700      h
       21.30611647446800        3.41704763863100        5.77719884788700      h
       -3.95004210498400        4.07966398405000      -13.18661996681400      o
       -4.07088930994500        2.98053053394600      -11.67606522302200      h
       -5.66548239147700        4.15989879421500      -13.78929944797700      h
       12.54819831581600        7.06887107904100       -4.92368995693400      o
       11.63312578000800        8.62115971593300       -4.53939504864600      h
       11.33254468436500        5.69369912305000       -4.95279013727800      h
      -23.77956674366500        1.09806157543500        0.80391527217200      o
      -23.25954596745100        0.62593352669800        2.52258709094900      h
      -24.06463593069000        2.90147369975800        0.88602183510300      h
        4.18728973180000        7.04780336819500        4.90236477338400      o
        5.57562669832000        6.15416924189100        5.70585026178200      h
        3.05223235613000        5.83518376621100        4.10331400635000      h
        0.87538177925500        0.93790690703500       14.95104292028700      o
        1.80553417677100        2.49904351993500       14.64976261092500      h
        0.17112786743700        0.48812317974500       13.30092166262000      h
       -6.44900374800700       -3.66140199183900       14.09097951960400      o
       -6.39914029733600       -2.50469787363900       12.64532020102300      h
       -8.20371655577200       -4.13432318369100       14.20034637202700      h
        1.75744769285800       -6.60254782735800       12.50613438075600      o
        2.36129415122600       -8.20477622262200       11.84935406370300      h
       -0.05689792906100       -6.81822493468400       12.76597362668200      h
        1.18945415417100        6.74492600721400       -8.49498011554800      o
        2.38607239491000        6.97255137286100       -9.89588076554900      h
        1.96876259856700        7.59534660011700       -7.06268977431100      h
        8.20388484474900        5.29877331312400       11.77280981915200      o
        6.49430486166400        5.56307712712400       12.39438879251900      h
        8.77193306341200        3.72358599592900       12.52202471946700      h
       -1.64218417473200      -15.48991162224200        0.05663886993200      o
       -2.60285200879600      -14.80899638015400       -1.33853497465100      h
       -2.76790622843500      -15.54889136638300        1.49371467757300      h
       -2.40653193468700        9.67592665036300       -1.12474241901500      o
       -2.08641998732100        8.33061043269300       -2.35405589877400      h
       -4.18421355974400        9.50735879712600       -0.71105889527500      h
       -2.41727959833300       14.51111039370800        4.28049382224000      o
       -4.11291253974100       14.51995948635400        5.00449968371700      h
       -2.59342524960400       14.85270426435200        2.47336020013400      h
       22.96220216870200       -0.14451839805100       -7.50024034139300      o
       22.61493855952900       -1.94248857537800       -7.22836712201100      h
       23.95809106744300        0.37100852784200       -6.05374979794100      h
       19.84361630902300       -1.33302023730200        2.92110465895700      o
       20.85976215493500       -2.04979625144900        1.56963125607500      h
       18.29870008832200       -0.70261278555300        2.11615599241700      h
      -11.97017093364900        7.73299153501000       13.27789011568600      o
      -13.66614930033100        7.15435913875100       12.90729468798400      h
      -11.02832135455000        6.20128088478300       13.61412175194400      h
        3.33036306681100      -11.98607310695900       -9.13821401452500      o
        3.09777569315800      -10.24123011710700       -8.59919828395500      h
        5.14447124995500      -12.20514212874500       -9.00467298519200      h
       -9.11104916469800       10.04925130116100        9.81748767586900      o
       -8.90914620594200        8.61099713185000        8.64905753527700      h
      -10.28677776176500        9.45835730450700       11.12545141886900      h
        2.83266420121700       -8.06467779964700        1.29195112276700      o
        4.42161549742300       -7.32402248917500        0.66580536983000      h
        2.96217272015800       -9.86801348682300        0.96411604742800      h
      -18.21826563182300       12.52219688408400       -1.46398753812700      o
      -18.48355121363300       12.61767091239000        0.33774299258400      h
      -16.39787942607400       12.66248267659900       -1.68426017096800      h
      -16.23316884005900        0.53232983594200        8.68707089548800      o
      -17.69648836667700        1.65865078915100        8.74200336140700      h
      -16.44559677545500       -0.58903245445600        7.23361883313000      h
       16.54397546372300       12.00715541763800        3.86462878488000      o
       15.53894929725400       11.93256690225100        5.38928842822900      h
       17.08223219814800       10.28560196974500        3.50628395577700      h
      -18.46910601203800       -3.10972184575700       -7.73330143513700      o
      -18.03388360376600       -2.74581551142200       -9.45730394858600      h
      -20.00655661299600       -2.13483360604000       -7.30931087855100      h
       15.33605821232800       11.65522543277800       -5.67348128867100      o
       14.86203881814600       12.12322251791400       -3.96984536939500      h
       16.93304444941600       10.78809746813400       -5.51857508484000      h
       11.77645198529500       10.45653771120100       -9.11075040091500      o
       11.08398843461300       12.08937007176000       -9.45888596781400      h
       13.14252784482800       10.73631898090300       -7.87813753126900      h
       12.06587530594200      -14.49053881888300        2.02236578098600      o
       10.38702363571000      -14.42149513454100        1.28552947966800      h
       12.70973565171700      -12.76076159735200        2.10354719078400      h
       -1.43249091183500      -10.95987345091100        3.51039040377500      o
        0.19054663970300      -11.70020122217600        3.17486307045800      h
       -2.09730752564800      -10.33345248225500        1.89078767878300      h
       -7.13501485456900      -11.52937094500200        8.16424697312200      o
       -5.72154315153300      -10.36742642380400        8.02202169212600      h
       -6.69752757686500      -12.91118679381600        7.04740304373600      h
      -16.62495375878400       -3.29199517813700        5.48064263022200      o
      -18.30733408215600       -4.03521719716400        5.63327398365500      h
      -15.50678252028400       -4.34931154146700        6.50900161828600      h
       13.90778325092800       -9.75579472935000        2.70449877834900      o
       13.48303985435800       -8.69503262970900        1.25885831091800      h
       12.84129458661900       -9.15550520935100        4.09597007721000      h
       17.60210128700500        0.39721180781700       10.62393022992000      o
       18.45018785841300       -0.88389333207600        9.60129338418700      h
       17.55978555012000        1.91481190763900        9.61818758840800      h
        8.20898038797100       -4.86514022371300       12.41827689043200      o
        9.42881250585100       -5.41974856364800       13.62742806427500      h
        6.83316210772200       -4.04548420977100       13.34286554830400      h
      -23.39491070137800       -7.52501433073700        1.91189081424200      o
      -22.05655868678100       -8.53219296252500        1.16679407803700      h
      -23.81355388249300       -6.25684351137800        0.65294186432000      h
       -5.74434477343200        7.32614052973500       12.64724429315000      o
       -6.95945131655900        6.29772415825300       13.54617465988600      h
       -6.70737088475800        8.61464736920100       11.73248837053200      h
      -12.30089064352500      -10.77905678921300        8.82585836908400      o
      -10.50224511385800      -11.12248828001400        8.80906003254900      h
      -12.92108300534300      -11.63097162716300        7.31321504367000      h
       -4.46604546442500      -14.59497294630500        4.73834921005500      o
       -3.65490361320500      -15.42369747898800        6.13621310503800      h
       -3.34062997529400      -13.11926730581700        4.37365882766800      h
      -19.20671609755100       -9.56245895789200       -0.40079316711400      o
      -17.89483256404500      -10.80083024958400       -0.70236051261900      h
      -19.39243135428800       -8.66362439705000       -1.99451104531600      h
       10.63409403627800       -6.82146101875200      -10.61349440941600      o
       11.28259024811500       -8.37121113197500       -9.90181284169300      h
       12.08744725406400       -5.74662225829600      -10.82961234161900      h
       12.89021772439700        7.53430930138600       11.51143423264300      o
       13.33097408569700        5.94427008636000       10.70607940503700      h
       11.11858257514700        7.31218691653500       11.91186720306200      h
        8.18067531945700       12.01487510347700        6.91883781457300      o
        7.97899092376000       13.71198623368700        6.31464414721800      h
        6.52518763863700       11.53493579920600        7.60859750530500      h
      -16.38501580018800       -8.41242279175000        3.93836469806000      o
      -17.67424167395300       -8.73696919176000        2.68315424381600      h
      -17.18632046755000       -8.30964622553900        5.58613235137900      h
       12.69319134537300        2.80793381427600        9.35935723844200      o
       11.92323227154500        1.78703072709500       10.63958074124300      h
       13.51668595736700        1.68339278203300        8.16546951942000      h
        6.88549422966500      -15.39673414575700       -4.69237383632100      o
        5.06529589196600      -15.41718952549100       -4.84820218087200      h
        7.44773796685800      -13.86519153695300       -5.56027467828100      h
      -15.02304590563900        5.94658363021900        6.92315690908600      o
      -14.14895133437900        4.58281443820900        6.05900853317100      h
      -16.64539698323400        6.12983468053800        6.07492859821700      h
      -13.31157960718100      -12.44762179860100        3.97841120043600      o
      -11.58877204133800      -11.99941885409100        3.49300527596400      h
      -14.33113147530200      -10.89857271247800        3.94523452576200      h
       -1.32228207973300      -13.59177388839400        9.27032466871300      o
       -1.77781876662700      -11.98450124708700        8.46918426181000      h
        0.33053382169100      -13.26417776361000        9.97252702487600      h
        5.22925330464900      -12.23762614156900        6.08122379257200      o
        6.89460604599700      -13.01939910532100        6.35417585687600      h
        4.37541831219300      -13.11039240707400        4.72552487516200      h
       12.47238005767700       -7.06068702706500       -1.49097505663800      o
       13.97078036327600       -7.62053553208200       -2.42120001641800      h
       11.10899640283100       -8.23465251870400       -1.95237798691500      h
       14.87144737455300        0.21031488994800        5.41765803088400      o
       15.24776358644000       -1.55609592861200        5.07572874843500      h
       13.26309347873300        0.56146817155400        4.58492727748700      h
      -11.25480468964200       -2.97224850988500       11.86735553848300      o
      -12.38493053254000       -1.71209753495500       12.61206548633600      h
       -9.98884601919600       -2.00746451595400       10.96016584008200      h
       -7.47414478486800       11.55879695340700      -10.53853865319200      o
       -8.78589187298000       10.38736204707700       -9.98416435033500      h
       -5.99197002380600       10.55436520892800      -10.92787893021000      h
       22.07575969477600       -6.45716819294200        2.74822143793600      o
       23.30728877503200       -7.72193924451700        2.36262101908900      h
       20.79358248859700       -7.27953802020900        3.79122089637800      h
        3.23202554546700       11.15965630155800        7.57932751513200      o
        3.37304780575800        9.64395754364000        6.51014320078700      h
        3.12444448009700       12.63074072173800        6.44333448077500      h
      -13.79907509782300        7.65677142249100       -4.29433518741900      o
      -13.11510142178100        6.06113456368100       -3.67942485831700      h
      -13.95453291587000        8.72099887153100       -2.80563048136300      h
        7.22940957534700      -15.42588808256800        0.19752248991200      o
        7.27278316683500      -15.33027105662100       -1.68712223461800      h
        7.28192292257600      -17.18329532565300        0.61613386410400      h
      -14.45189029173300        9.14270025095200        0.72030428707400      o
      -12.85809048030500        8.62773204237800        1.49531095648400      h
      -15.45418840390100        7.58158518073900        0.61358432446600      h
       -8.45835616519100      -11.82719073604900        2.34270980502800      o
       -7.77748267395300      -10.27884979940400        3.12033710254300      h
       -7.34779205459400      -13.17150627750000        2.85964428705800      h
      -17.12951006398100       -3.63820699513800       11.55775555283700      o
      -16.49665257120100       -3.35227283065800       13.22735545968100      h
      -16.79580365036800       -2.06807447735000       10.63512625901600      h
       -7.10679111740400       14.18885942321100        6.54672752774800      o
       -8.51152082952300       14.27022871315400        5.38344276245000      h
       -7.56062551270600       12.92705789984200        7.78747543252300      h
       -9.14893117005800        3.32074740418700       13.52424785524600      o
       -7.61364909368900        2.45595700276300       14.03520812534500      h
       -9.66662139110100        2.63250543589100       11.89045922268100      h
      -17.70629158762400        7.32484978700700       -7.52085200826700      o
      -16.32285181717700        7.37668715904400       -6.28238182211400      h
      -16.86561978910400        7.27909162045200       -9.13577630962400      h
      -13.88287890847800        0.81441953930500       14.06005478277700      o
      -14.86183052933900        2.08146248782500       13.14832360219000      h
      -12.37941687517000        1.69800186614200       14.59830757636900      h
       -2.61613438075600       14.74654643965600       -0.81278829479600      o
       -1.34701695533900       15.66238931034200       -1.73246710733600      h
       -2.34431236425400       12.95898995111800       -1.21181611828900      h
       20.73115107157100        4.72522818743200       -6.64563336829700      o
       19.10680312623400        5.23531611014400       -7.41043727804900      h
       21.59136141942300        3.64510044762700       -7.82408538114400      h
      -14.72056512972600       -7.57412639027600      -12.12586578058900      o
      -15.34591613970700       -5.84904739349500      -12.16951695392200      h
      -12.96801270523200       -7.47562216467900      -12.63888754951400      h
      -17.60497058150200       11.45250735868700        3.80035688570600      o
      -16.34528093043900       10.67044871731600        2.65375391584300      h
      -16.63001134553700       11.92712762071400        5.26174955363700      h
      -20.11374543947700       -7.13724023855400       -4.93363656253900      o
      -21.73482027402300       -6.52542085689800       -4.39327532573900      h
      -19.39363972934100       -5.77836008618400       -5.94679557772400      h
      -21.32730671174300       -5.12538043679400        5.75825070468800      o
      -22.17261885988800       -6.03630416299400        4.36000170188700      h
      -21.12593070949400       -6.31000343117500        7.12212814568000      h
      -20.37430948865800        3.55354350203900        8.73210881680700      o
      -20.22291083464200        4.92974524850100        7.52546176115000      h
      -21.38439735127700        2.28840476100600        7.86227470942300      h
      -15.26084389076000       -9.02418047914600       -7.33285676561400      o
      -17.01778101292600       -9.07837522818000       -6.88259327791200      h
      -15.14169108872900       -8.65911696092200       -9.14913403138300      h
      -17.61989800733300        2.34354016251600      -13.39176311261000      o
      -18.85347534548300        2.63258158693400      -12.06473990908100      h
      -17.02016961065200        0.63335245452500      -13.10309763518600      h
        6.42225902205200       -0.63751539644800        9.41105439508100      o
        5.76276391166200        1.02777599683700        9.08019490576700      h
        4.95546112355600       -1.77127469234000        9.24031422797700      h
        9.29348450139400        0.40609487527900       13.36550328485400      o
        8.34758806208000        0.01047878890300       14.85910148614500      h
        8.22581546777000       -0.19690203789200       11.95208921827100      h
        2.25658568057100       -1.17135062436400      -14.65314790378600      o
        1.83828043914800        0.61856753349500      -14.40344819692400      h
        4.04413124460400       -1.18041107624300      -15.03515752302000      h
        7.26354928346700       -2.61400024917900       -9.48843709648400      o
        7.76826362455600       -4.35149327335000       -9.70847004328900      h
        5.41914224507700       -2.52863664134000       -9.30858543902700      h
       -5.21696901469300       -8.09249735788000      -10.97947523841100      o
       -3.86130451108200       -9.01579880359900      -11.78473814936800      h
       -4.36828689029500       -6.68305494136300      -10.13870236789800      h
       17.64097664306300        4.18590602551600        6.26916117748500      o
       16.88596364042600        2.57618547119700        5.73546922556700      h
       16.15579052282000        5.23787377201400        6.55700842095900      h
       17.96424036815200       -5.42343344647900       -0.33193946334700      o
       19.68461036439900       -5.50690610798400        0.29139243965200      h
       17.63773091780200       -7.01007648911400       -1.19248399695000      h
        4.37881878295400       -2.82928264075400       14.99731815044400      o
        3.21014780756100       -1.40174423557100       15.13660304998700      h
        3.32477442530300       -4.24021895347500       14.48995498200400      h
        6.81350606864700       -7.56758135015100        8.40021940682000      o
        8.41896237926000       -8.25181165305600        7.86412990271000      h
        7.16223403439500       -6.62423911091700        9.94401104348300      h
        2.71192764915900       15.31380605224800        4.86072000297200      o
        3.30973270185500       15.38422718240000        3.11422293372900      h
        0.88973858287100       15.43175818004700        4.76259943463900      h
       13.61279311567500       -2.41156730355300       11.88707226005900      o
       12.38374735112400       -1.49013471308300       12.87661705531300      h
       15.04968914934100       -1.26755775522200       11.57823843677600      h
       -0.71584460980100        8.24356992607700       12.29667154310400      o
       -2.39507715014100        7.75503403812200       12.84496840794000      h
       -0.89587881006100        9.96752747689900       11.71411956326300      h
        3.30319143910300      -11.44349356187400       10.73969712077200      o
        3.95964544375900      -11.61599862019800        9.01230359331800      h
        4.62777755245900      -11.99866410586100       11.83632346408800      h
       18.02427079406200        7.26482382576300        2.26327809626600      o
       17.27922752236200        6.52693063039000        0.73036753676800      h
       18.01755131805900        5.98490626505800        3.59974416493300      h
       22.24059289376900        9.15407211300000        0.53899537104100      o
       20.64395222916400        8.50830673336200        1.29323716102200      h
       22.60018454137700       10.70996642505000        1.38597300288400      h
       -4.78404834383900      -12.14500945581100       12.85590891830800      o
       -3.41897932443300      -12.95890205769600       11.91734733045800      h
       -6.17306222002100      -12.11269855549000       11.66718089454600      h
       23.67933708281400        4.17033136628000        0.31771192265500      o
       23.42524296773400        3.59608166496000        2.07272223186600      h
       23.49048349091900        5.99220104488200        0.33462097747700      h
       16.07287858344500       -6.57089378595000        9.67803653656600      o
       15.18773769832800       -5.45441718565200       10.82080037112700      h
       17.42513364746600       -5.51613640465200        9.00226197456000      h
        2.15334363876500       -7.76694842971900        6.40392611598600      o
        3.68138661117100       -8.24688132196000        7.28643937458700      h
        2.47383750635800       -8.03167860104200        4.61480164397100      h
       16.54249161745900       -9.23091682605600       -3.40114335241800      o
       15.68104933893000      -10.86097099164800       -3.41578395583400      h
       16.87875435936200       -8.73752784331700       -5.15429408058800      h
       18.25817285761700       -8.95289440819900        5.16385790746200      o
       17.86815306160400       -9.24567931736100        6.91034998178100      h
       16.80193568446200       -9.53050579195300        4.16389286928200      h
        1.75698486836000      -14.25827214136100       -4.93602771252900      o
        1.99822027499800      -13.58723381594300       -6.65168528575900      h
       -0.01318904028500      -14.55587133147000       -4.68180705459600      h
        4.38552907640100      -10.17196060975900       -3.24375203915600      o
        3.38763217206300      -11.67582016676200       -3.56564585088200      h
        4.06605221906200       -9.02588346880200       -4.61874733317100      h
      -16.12231184726300        4.98703880038200       11.77527693536900      o
      -17.92349016263500        4.77699482381400       11.67903027560200      h
      -15.58889774893200        5.28390519898800       10.02004803626700      h
       19.89970791791000        9.11853510693200       -4.08618378216000      o
       20.76389861631600        7.93436098047800       -5.17682658132400      h
       20.94567318066500        9.35746753139000       -2.59495589927700      h
       -3.91583932423700      -13.11928625050900       -4.18737262066000      o
       -5.49071491998700      -13.24282444166300       -5.09557357302200      h
       -2.92406858885100      -11.91674900353800       -5.20402503312400      h
        9.14890195754100       13.86312086974400        0.30648112751500      o
[...]
   382   8 o      384   1 h                                       0.9665152
   385   8 o      386   1 h                                       0.9791294
   385   8 o      387   1 h                                       0.9699548
   388   8 o      389   1 h                                       0.9756734
   388   8 o      390   1 h                                       0.9776821
   391   8 o      392   1 h                                       0.9796504
   391   8 o      393   1 h                                       0.9685386
   394   8 o      395   1 h                                       0.9718439
   394   8 o      396   1 h                                       0.9803531
   397   8 o      398   1 h                                       0.9683364
   397   8 o      399   1 h                                       0.9680140
   400   8 o      401   1 h                                       0.9741910
   400   8 o      402   1 h                                       0.9695378
   403   8 o      404   1 h                                       0.9863968
   403   8 o      405   1 h                                       0.9818003
   406   8 o      407   1 h                                       0.9850937
   406   8 o      408   1 h                                       0.9723433
   409   8 o      410   1 h                                       0.9650378
   409   8 o      411   1 h                                       0.9731692
   412   8 o      413   1 h                                       0.9776069
   412   8 o      414   1 h                                       0.9779193
   415   8 o      416   1 h                                       0.9671398
   415   8 o      417   1 h                                       0.9731507
   418   8 o      419   1 h                                       0.9604284
   418   8 o      420   1 h                                       0.9891411
   421   8 o      422   1 h                                       0.9679882
   421   8 o      423   1 h                                       0.9651172
   424   8 o      425   1 h                                       0.9564571
   424   8 o      426   1 h                                       0.9848635
   427   8 o      428   1 h                                       0.9708979
   427   8 o      429   1 h                                       0.9776578
   430   8 o      431   1 h                                       0.9605573
   430   8 o      432   1 h                                       0.9839706
   433   8 o      434   1 h                                       0.9711874
   433   8 o      435   1 h                                       0.9682860
   436   8 o      437   1 h                                       0.9766265
   436   8 o      438   1 h                                       0.9794422
   439   8 o      440   1 h                                       0.9751087
   439   8 o      441   1 h                                       0.9806124
   442   8 o      443   1 h                                       0.9766536
   442   8 o      444   1 h                                       0.9636867
   445   8 o      446   1 h                                       0.9551067 (min)
   445   8 o      447   1 h                                       0.9785597
   448   8 o      449   1 h                                       0.9701082
   448   8 o      450   1 h                                       0.9712200
   451   8 o      452   1 h                                       0.9674252
   451   8 o      453   1 h                                       0.9792564
   454   8 o      455   1 h                                       0.9690380
   454   8 o      456   1 h                                       0.9755376
   457   8 o      458   1 h                                       0.9611174
   460   8 o      461   1 h                                       0.9679091
   460   8 o      462   1 h                                       0.9732159
   463   8 o      464   1 h                                       0.9654786
   463   8 o      465   1 h                                       0.9633673
   466   8 o      467   1 h                                       0.9715970
   466   8 o      468   1 h                                       0.9683186
   469   8 o      470   1 h                                       0.9592442
   469   8 o      471   1 h                                       0.9824400
   472   8 o      473   1 h                                       0.9675391
   472   8 o      474   1 h                                       0.9711218
   475   8 o      476   1 h                                       0.9575115
   475   8 o      477   1 h                                       0.9711670
   478   8 o      479   1 h                                       0.9667915
   478   8 o      480   1 h                                       0.9779036
   481   8 o      482   1 h                                       0.9715355
   481   8 o      483   1 h                                       0.9736136
   484   8 o      485   1 h                                       0.9764103
   484   8 o      486   1 h                                       0.9814975
   487   8 o      488   1 h                                       0.9804307
   487   8 o      489   1 h                                       0.9659779
   490   8 o      491   1 h                                       0.9841945
   490   8 o      492   1 h                                       0.9654657
   493   8 o      494   1 h                                       0.9791856
   493   8 o      495   1 h                                       0.9828893
   496   8 o      497   1 h                                       0.9726987
   496   8 o      498   1 h                                       0.9762641
   499   8 o      500   1 h                                       0.9785857
   499   8 o      501   1 h                                       0.9694858
   502   8 o      503   1 h                                       0.9757935
   502   8 o      504   1 h                                       0.9696097
   505   8 o      506   1 h                                       0.9561865
   505   8 o      507   1 h                                       0.9769189
   508   8 o      509   1 h                                       0.9843814
   508   8 o      510   1 h                                       0.9852001
   511   8 o      512   1 h                                       0.9746048
   511   8 o      513   1 h                                       0.9718710
   514   8 o      515   1 h                                       0.9988576 (max)
   514   8 o      516   1 h                                       0.9564026
   517   8 o      518   1 h                                       0.9766189
   517   8 o      519   1 h                                       0.9833405
   520   8 o      521   1 h                                       0.9851303
   520   8 o      522   1 h                                       0.9624276
   523   8 o      524   1 h                                       0.9568940
   523   8 o      525   1 h                                       0.9797529
   526   8 o      527   1 h                                       0.9661099
   526   8 o      528   1 h                                       0.9667540
   529   8 o      530   1 h                                       0.9708685
   529   8 o      531   1 h                                       0.9773240
   532   8 o      533   1 h                                       0.9829603
   532   8 o      534   1 h                                       0.9637426
   535   8 o      536   1 h                                       0.9750366
   535   8 o      537   1 h                                       0.9657785
   538   8 o      539   1 h                                       0.9606041
   538   8 o      540   1 h                                       0.9798312
   541   8 o      542   1 h                                       0.9876808
   541   8 o      543   1 h                                       0.9606261
   544   8 o      545   1 h                                       0.9712770
   544   8 o      546   1 h                                       0.9677341
   547   8 o      548   1 h                                       0.9918555
   547   8 o      549   1 h                                       0.9629686
   550   8 o      551   1 h                                       0.9604526
   550   8 o      552   1 h                                       0.9745484
   553   8 o      554   1 h                                       0.9899201
   553   8 o      555   1 h                                       0.9618873
   556   8 o      557   1 h                                       0.9718510
   556   8 o      558   1 h                                       0.9725156
   559   8 o      560   1 h                                       0.9602056
   559   8 o      561   1 h                                       0.9823805
   562   8 o      563   1 h                                       0.9708995
   562   8 o      564   1 h                                       0.9711151
   565   8 o      566   1 h                                       0.9638579
   565   8 o      567   1 h                                       0.9851880
   568   8 o      569   1 h                                       0.9586828
   568   8 o      570   1 h                                       0.9901784
   571   8 o      572   1 h                                       0.9816397
   571   8 o      573   1 h                                       0.9672996
   574   8 o      575   1 h                                       0.9645020
   574   8 o      576   1 h                                       0.9816874
   577   8 o      578   1 h                                       0.9669272
   577   8 o      579   1 h                                       0.9777169
   580   8 o      581   1 h                                       0.9823434
   580   8 o      582   1 h                                       0.9750757
   583   8 o      584   1 h                                       0.9693024
   583   8 o      585   1 h                                       0.9706590
   586   8 o      587   1 h                                       0.9790577
   586   8 o      588   1 h                                       0.9698779
   589   8 o      590   1 h                                       0.9661005
   589   8 o      591   1 h                                       0.9750080
   592   8 o      593   1 h                                       0.9775584
   592   8 o      594   1 h                                       0.9676731
   595   8 o      596   1 h                                       0.9669316
   595   8 o      597   1 h                                       0.9855785
   598   8 o      599   1 h                                       0.9698707
   598   8 o      600   1 h                                       0.9676580
   601   8 o      602   1 h                                       0.9821305
   601   8 o      603   1 h                                       0.9562355
   604   8 o      605   1 h                                       0.9828163
   604   8 o      606   1 h                                       0.9792462
   607   8 o      608   1 h                                       0.9949595
   607   8 o      609   1 h                                       0.9565506
   610   8 o      611   1 h                                       0.9767202
   610   8 o      612   1 h                                       0.9676101
   613   8 o      614   1 h                                       0.9863710
   613   8 o      615   1 h                                       0.9692992
   616   8 o      617   1 h                                       0.9665135
   616   8 o      618   1 h                                       0.9754358
   619   8 o      620   1 h                                       0.9676973
   619   8 o      621   1 h                                       0.9719828
   622   8 o      623   1 h                                       0.9756648
   622   8 o      624   1 h                                       0.9800561
   625   8 o      626   1 h                                       0.9595595
   625   8 o      627   1 h                                       0.9835001
   628   8 o      629   1 h                                       0.9831834
   628   8 o      630   1 h                                       0.9593604
   631   8 o      632   1 h                                       0.9701433
   631   8 o      633   1 h                                       0.9621965
   634   8 o      635   1 h                                       0.9609523
   634   8 o      636   1 h                                       0.9834000
   637   8 o      638   1 h                                       0.9669034
   637   8 o      639   1 h                                       0.9721452
   640   8 o      641   1 h                                       0.9642539
   640   8 o      642   1 h                                       0.9847941
   643   8 o      644   1 h                                       0.9738197
   643   8 o      645   1 h                                       0.9804890
   646   8 o      647   1 h                                       0.9743044
   646   8 o      648   1 h                                       0.9878152
   649   8 o      650   1 h                                       0.9597271
   649   8 o      651   1 h                                       0.9758637
   652   8 o      653   1 h                                       0.9582835
   652   8 o      654   1 h                                       0.9796921
   655   8 o      656   1 h                                       0.9765206
   655   8 o      657   1 h                                       0.9734482
   658   8 o      659   1 h                                       0.9720855
   658   8 o      660   1 h                                       0.9822461
   661   8 o      662   1 h                                       0.9810375
   661   8 o      663   1 h                                       0.9673193
   664   8 o      665   1 h                                       0.9685010
   664   8 o      666   1 h                                       0.9727092
   667   8 o      668   1 h                                       0.9863996
   667   8 o      669   1 h                                       0.9698910
   670   8 o      671   1 h                                       0.9688468
   670   8 o      672   1 h                                       0.9687101
   673   8 o      674   1 h                                       0.9871323
   673   8 o      675   1 h                                       0.9711988
   676   8 o      677   1 h                                       0.9798955
   676   8 o      678   1 h                                       0.9763555
   679   8 o      680   1 h                                       0.9825444
   679   8 o      681   1 h                                       0.9762173
   682   8 o      684   1 h                                       0.9556913
   685   8 o      686   1 h                                       0.9794251
   685   8 o      687   1 h                                       0.9782215
   688   8 o      689   1 h                                       0.9825582
   688   8 o      690   1 h                                       0.9848023
   691   8 o      692   1 h                                       0.9782461
   691   8 o      693   1 h                                       0.9748658
   694   8 o      695   1 h                                       0.9846503
   694   8 o      696   1 h                                       0.9814012
   697   8 o      698   1 h                                       0.9825692
   697   8 o      699   1 h                                       0.9791867
   700   8 o      701   1 h                                       0.9677628
   700   8 o      702   1 h                                       0.9674126
   703   8 o      704   1 h                                       0.9797429
   703   8 o      705   1 h                                       0.9729176
   706   8 o      707   1 h                                       0.9720093
   706   8 o      708   1 h                                       0.9665028
   709   8 o      710   1 h                                       0.9780948
   709   8 o      711   1 h                                       0.9651436
   712   8 o      713   1 h                                       0.9558802
   712   8 o      714   1 h                                       0.9908895
   715   8 o      716   1 h                                       0.9707051
   715   8 o      717   1 h                                       0.9872564
   718   8 o      719   1 h                                       0.9730156
   718   8 o      720   1 h                                       0.9789133
   721   8 o      722   1 h                                       0.9699829
   721   8 o      723   1 h                                       0.9635073
   724   8 o      725   1 h                                       0.9775925
   724   8 o      726   1 h                                       0.9560387
   727   8 o      728   1 h                                       0.9621188
   727   8 o      729   1 h                                       0.9840869
   730   8 o      731   1 h                                       0.9674974
   730   8 o      732   1 h                                       0.9915734
   733   8 o      734   1 h                                       0.9718664
   733   8 o      735   1 h                                       0.9817193
   736   8 o      737   1 h                                       0.9740248
   736   8 o      738   1 h                                       0.9647151
   739   8 o      740   1 h                                       0.9741538
   739   8 o      741   1 h                                       0.9720069
   742   8 o      743   1 h                                       0.9653524
   742   8 o      744   1 h                                       0.9805153
   745   8 o      746   1 h                                       0.9718367
   745   8 o      747   1 h                                       0.9726972
   748   8 o      749   1 h                                       0.9670504
   748   8 o      750   1 h                                       0.9724245
   751   8 o      752   1 h                                       0.9649864
   751   8 o      753   1 h                                       0.9675389
   754   8 o      755   1 h                                       0.9732023
   754   8 o      756   1 h                                       0.9626558

 * 1 distinct bonds (by element types)

   Z      Z             #   av. dist./Å        max./Å        min./Å
   1 H    8 O         500     0.9735739     0.9988576     0.9551067


optimized geometry written to: xtbopt.coord


           -------------------------------------------------
          | TOTAL ENERGY            -1283.357684704250 Eh   |
          | GRADIENT NORM               0.004079115743 Eh/α |
          | HOMO-LUMO GAP               8.192544511951 eV   |
           -------------------------------------------------

------------------------------------------------------------------------
 * finished run on 2022/11/24 at 09:12:14.458     
------------------------------------------------------------------------
 total:
 * wall-time:     0 d,  0 h,  4 min, 22.091 sec
 *  cpu-time:     0 d,  0 h,  6 min, 28.660 sec
 * ratio c/w:     1.483 speedup
 SCF:
 * wall-time:     0 d,  0 h,  0 min, 22.585 sec
 *  cpu-time:     0 d,  0 h,  0 min, 36.718 sec
 * ratio c/w:     1.626 speedup
 ANC optimizer:
 * wall-time:     0 d,  0 h,  3 min, 58.443 sec
 *  cpu-time:     0 d,  0 h,  5 min, 50.161 sec
 * ratio c/w:     1.469 speedup

