      -----------------------------------------------------------      
     |                   =====================                   |     
     |                           x T B                           |     
     |                   =====================                   |     
     |                         S. Grimme                         |     
     |          Mulliken Center for Theoretical Chemistry        |     
     |                    University of Bonn                     |     
      -----------------------------------------------------------      

   * xtb version 6.5.1 (579679a) compiled by 'ehlert@majestix' on 2022-07-11

   xtb is free software: you can redistribute it and/or modify it under
   the terms of the GNU Lesser General Public License as published by
   the Free Software Foundation, either version 3 of the License, or
   (at your option) any later version.
   
   xtb is distributed in the hope that it will be useful,
   but WITHOUT ANY WARRANTY; without even the implied warranty of
   MERCHANTABILITY or FITNESS FOR A PARTICULAR PURPOSE.  See the
   GNU Lesser General Public License for more details.
   
   Cite this work as:
   * C. Bannwarth, E. Caldeweyher, S. Ehlert, A. Hansen, P. Pracht,
     J. Seibert, S. Spicher, S. Grimme, WIREs Comput. Mol. Sci., 2020, 11,
     e01493. DOI: 10.1002/wcms.1493
   
   for GFN2-xTB:
   * C. Bannwarth, S. Ehlert and S. Grimme., J. Chem. Theory Comput., 2019,
     15, 1652-1671. DOI: 10.1021/acs.jctc.8b01176
   for GFN1-xTB:
   * S. Grimme, C. Bannwarth, P. Shushkov, J. Chem. Theory Comput., 2017,
     13, 1989-2009. DOI: 10.1021/acs.jctc.7b00118
   for GFN0-xTB:
   * P. Pracht, E. Caldeweyher, S. Ehlert, S. Grimme, ChemRxiv, 2019, preprint.
     DOI: 10.26434/chemrxiv.8326202.v1
   for GFN-FF:
   * S. Spicher and S. Grimme, Angew. Chem. Int. Ed., 2020, 59, 15665-15673.
     DOI: 10.1002/anie.202004239
   
   for ALPB and GBSA implicit solvation:
   * S. Ehlert, M. Stahn, S. Spicher, S. Grimme, J. Chem. Theory Comput.,
     2021, 17, 4250-4261. DOI: 10.1021/acs.jctc.1c00471
   
   for DFT-D4:
   * E. Caldeweyher, C. Bannwarth and S. Grimme, J. Chem. Phys., 2017,
     147, 034112. DOI: 10.1063/1.4993215
   * E. Caldeweyher, S. Ehlert, A. Hansen, H. Neugebauer, S. Spicher,
     C. Bannwarth and S. Grimme, J. Chem. Phys., 2019, 150, 154122.
     DOI: 10.1063/1.5090222
   * E. Caldeweyher, J.-M. Mewes, S. Ehlert and S. Grimme, Phys. Chem. Chem. Phys.
     2020, 22, 8499-8512. DOI: 10.1039/D0CP00502A
   
   for sTDA-xTB:
   * S. Grimme and C. Bannwarth, J. Chem. Phys., 2016, 145, 054103.
     DOI: 10.1063/1.4959605
   
   in the mass-spec context:
   * V. Asgeirsson, C. Bauer and S. Grimme, Chem. Sci., 2017, 8, 4879.
     DOI: 10.1039/c7sc00601b
   * J. Koopman and S. Grimme, ACS Omega 2019, 4, 12, 15120-15133.
     DOI: 10.1021/acsomega.9b02011
   
   for metadynamics refer to:
   * S. Grimme, J. Chem. Theory Comput., 2019, 155, 2847-2862
     DOI: 10.1021/acs.jctc.9b00143
   
   for SPH calculations refer to:
   * S. Spicher and S. Grimme, J. Chem. Theory Comput., 2021, 17, 1701-1714
     DOI: 10.1021/acs.jctc.0c01306
   
   with help from (in alphabetical order)
   P. Atkinson, C. Bannwarth, F. Bohle, G. Brandenburg, E. Caldeweyher
   M. Checinski, S. Dohm, S. Ehlert, S. Ehrlich, I. Gerasimov, C. Hölzer
   A. Katbashev, J. Koopman, C. Lavigne, S. Lehtola, F. März, M. Müller,
   F. Musil, H. Neugebauer, J. Pisarek, C. Plett, P. Pracht, F. Pultar,
   J. Seibert, P. Shushkov, S. Spicher, M. Stahn, M. Steiner, T. Strunk,
   J. Stückrath, T. Rose, and J. Unsleber
   
 * started run on 2022/11/24 at 09:28:10.072     

           -------------------------------------------------
          |                Calculation Setup                |
           -------------------------------------------------

          program call               : xtb solvent_cluster.coord --gfn2 --sp --lmo --chrg 0
          hostname                   : cn0341
          coordinate file            : solvent_cluster.coord
          omp threads                :                     2

   ID    Z sym.   atoms
    1    8 o      1, 4, 7, 10, 13, 16, 19, 22, 25, 28, 31, 34, 37, 40, 43,
                  46, 49, 52, 55, 58, 61, 64, 67, 70, 73, 76, 79, 82, 85, 88,
                  91, 94, 97, 100, 103, 106, 109, 112, 115, 118, 121, 124,
                  127, 130, 133, 136, 139, 142, 145, 148, 151, 154, 157, 160,
                  163, 166, 169, 172, 175, 178, 181, 184, 187, 190, 193, 196,
                  199, 202, 205, 208, 211, 214, 217, 220, 223, 226, 229, 232,
                  235, 238, 241, 244, 247, 250, 253, 256, 259, 262, 265, 268,
                  271, 274, 277, 280, 283, 286, 289, 292, 295, 298, 301, 304,
                  307, 310, 313, 316, 319, 322, 325, 328, 331, 334, 337, 340,
                  343, 346, 349, 352, 355, 358, 361, 364, 367, 370, 373, 376,
                  379, 382, 385, 388, 391, 394, 397, 400, 403, 406, 409, 412,
                  415, 418, 421, 424, 427, 430, 433, 436, 439, 442, 445, 448,
                  451, 454, 457, 460, 463, 466, 469, 472, 475, 478, 481, 484,
                  487, 490, 493, 496, 499, 502, 505, 508, 511, 514, 517, 520,
                  523, 526, 529, 532, 535, 538, 541, 544, 547, 550, 553, 556,
                  559, 562, 565, 568, 571, 574, 577, 580, 583, 586, 589, 592,
                  595, 598, 601, 604, 607, 610, 613, 616, 619, 622, 625, 628,
                  631, 634, 637, 640, 643, 646, 649, 652, 655, 658, 661, 664,
                  667, 670, 673, 676, 679, 682, 685, 688, 691, 694, 697, 700,
                  703, 706, 709, 712, 715, 718, 721, 724, 727, 730, 733, 736,
                  739, 742, 745, 748, 751, 754
    2    1 h      2, 3, 5, 6, 8, 9, 11, 12, 14, 15, 17, 18, 20, 21, 23, 24,
                  26, 27, 29, 30, 32, 33, 35, 36, 38, 39, 41, 42, 44, 45, 47,
                  48, 50, 51, 53, 54, 56, 57, 59, 60, 62, 63, 65, 66, 68, 69,
                  71, 72, 74, 75, 77, 78, 80, 81, 83, 84, 86, 87, 89, 90, 92,
                  93, 95, 96, 98, 99, 101, 102, 104, 105, 107, 108, 110, 111,
                  113, 114, 116, 117, 119, 120, 122, 123, 125, 126, 128, 129,
                  131, 132, 134, 135, 137, 138, 140, 141, 143, 144, 146, 147,
                  149, 150, 152, 153, 155, 156, 158, 159, 161, 162, 164, 165,
                  167, 168, 170, 171, 173, 174, 176, 177, 179, 180, 182, 183,
                  185, 186, 188, 189, 191, 192, 194, 195, 197, 198, 200, 201,
                  203, 204, 206, 207, 209, 210, 212, 213, 215, 216, 218, 219,
                  221, 222, 224, 225, 227, 228, 230, 231, 233, 234, 236, 237,
                  239, 240, 242, 243, 245, 246, 248, 249, 251, 252, 254, 255,
                  257, 258, 260, 261, 263, 264, 266, 267, 269, 270, 272, 273,
                  275, 276, 278, 279, 281, 282, 284, 285, 287, 288, 290, 291,
                  293, 294, 296, 297, 299, 300, 302, 303, 305, 306, 308, 309,
                  311, 312, 314, 315, 317, 318, 320, 321, 323, 324, 326, 327,
                  329, 330, 332, 333, 335, 336, 338, 339, 341, 342, 344, 345,
                  347, 348, 350, 351, 353, 354, 356, 357, 359, 360, 362, 363,
                  365, 366, 368, 369, 371, 372, 374, 375, 377, 378, 380, 381,
                  383, 384, 386, 387, 389, 390, 392, 393, 395, 396, 398, 399,
                  401, 402, 404, 405, 407, 408, 410, 411, 413, 414, 416, 417,
                  419, 420, 422, 423, 425, 426, 428, 429, 431, 432, 434, 435,
                  437, 438, 440, 441, 443, 444, 446, 447, 449, 450, 452, 453,
                  455, 456, 458, 459, 461, 462, 464, 465, 467, 468, 470, 471,
                  473, 474, 476, 477, 479, 480, 482, 483, 485, 486, 488, 489,
                  491, 492, 494, 495, 497, 498, 500, 501, 503, 504, 506, 507,
                  509, 510, 512, 513, 515, 516, 518, 519, 521, 522, 524, 525,
                  527, 528, 530, 531, 533, 534, 536, 537, 539, 540, 542, 543,
                  545, 546, 548, 549, 551, 552, 554, 555, 557, 558, 560, 561,
                  563, 564, 566, 567, 569, 570, 572, 573, 575, 576, 578, 579,
                  581, 582, 584, 585, 587, 588, 590, 591, 593, 594, 596, 597,
                  599, 600, 602, 603, 605, 606, 608, 609, 611, 612, 614, 615,
                  617, 618, 620, 621, 623, 624, 626, 627, 629, 630, 632, 633,
                  635, 636, 638, 639, 641, 642, 644, 645, 647, 648, 650, 651,
                  653, 654, 656, 657, 659, 660, 662, 663, 665, 666, 668, 669,
                  671, 672, 674, 675, 677, 678, 680, 681, 683, 684, 686, 687,
                  689, 690, 692, 693, 695, 696, 698, 699, 701, 702, 704, 705,
                  707, 708, 710, 711, 713, 714, 716, 717, 719, 720, 722, 723,
                  725, 726, 728, 729, 731, 732, 734, 735, 737, 738, 740, 741,
                  743, 744, 746, 747, 749, 750, 752, 753, 755, 756

molecular fragmentation (1/2 indicates fragments):
111222222222222222222222222222222222222222222222222222222222222222222222
222222222222222222222222222222222222222222222222222222222222222222222222
222222222222222222222222222222222222222222222222222222222222222222222222
222222222222222222222222222222222222222222222222222222222222222222222222
222222222222222222222222222222222222222222222222222222222222222222222222
222222222222222222222222222222222222222222222222222222222222222222222222
222222222222222222222222222222222222222222222222222222222222222222222222
222222222222222222222222222222222222222222222222222222222222222222222222
222222222222222222222222222222222222222222222222222222222222222222222222
222222222222222222222222222222222222222222222222222222222222222222222222
222222222222222222222222222222222222
# atoms in fragment 1/2:     3   753
 fragment masses (1/2) :       18.02     4521.84
CMA distance (Bohr)    :  16.338
constraining FC (au)   :  0.0500

           -------------------------------------------------
          |                 G F N 2 - x T B                 |
           -------------------------------------------------

        Reference                      10.1021/acs.jctc.8b01176
      * Hamiltonian:
        H0-scaling (s, p, d)           1.850000    2.230000    2.230000
        zeta-weighting                 0.500000
      * Dispersion:
        s8                             2.700000
        a1                             0.520000
        a2                             5.000000
        s9                             5.000000
      * Repulsion:
        kExp                           1.500000    1.000000
        rExp                           1.000000
      * Coulomb:
        alpha                          2.000000
        third order                    shell-resolved
        anisotropic                    true
        a3                             3.000000
        a5                             4.000000
        cn-shift                       1.200000
        cn-exp                         4.000000
        max-rad                        5.000000


          ...................................................
          :                      SETUP                      :
          :.................................................:
          :  # basis functions                1512          :
          :  # atomic orbitals                1512          :
          :  # shells                         1008          :
          :  # electrons                      2016          :
          :  max. iterations                   250          :
          :  Hamiltonian                  GFN2-xTB          :
          :  restarted?                      false          :
          :  GBSA solvation                  false          :
          :  PC potential                    false          :
          :  electronic temp.          300.0000000     K    :
          :  accuracy                    1.0000000          :
          :  -> integral cutoff          0.2500000E+02      :
          :  -> integral neglect         0.1000000E-07      :
          :  -> SCF convergence          0.1000000E-05 Eh   :
          :  -> wf. convergence          0.1000000E-03 e    :
          :  Broyden damping             0.4000000          :
          ...................................................

 iter      E             dE          RMSdq      gap      omega  full diag
   1  -1291.0318008 -0.129103E+04  0.407E+00    8.44       0.0  T
   2  -1291.0999085 -0.681077E-01  0.242E+00    8.34       1.0  T
   3  -1291.1302286 -0.303201E-01  0.206E-01    8.02       1.0  T
   4  -1291.1350736 -0.484498E-02  0.450E-02    8.21       1.0  T
   5  -1291.1351377 -0.641225E-04  0.305E-02    8.18       1.0  T
   6  -1291.1351743 -0.365859E-04  0.403E-03    8.19       1.0  T
   7  -1291.1351763 -0.206207E-05  0.801E-04    8.19       4.5  T
   8  -1291.1351764 -0.389666E-07  0.414E-04    8.19       8.8  T
   9  -1291.1351764 -0.168570E-07  0.620E-05    8.19      58.7  T

   *** convergence criteria satisfied after 9 iterations ***

         #    Occupation            Energy/Eh            Energy/eV
      -------------------------------------------------------------
         1        2.0000           -0.6855412             -18.6545
       ...           ...                  ...                  ...
      1002        2.0000           -0.4119880             -11.2108
      1003        2.0000           -0.4118125             -11.2060
      1004        2.0000           -0.4106531             -11.1744
      1005        2.0000           -0.4096252             -11.1465
      1006        2.0000           -0.4084024             -11.1132
      1007        2.0000           -0.4082187             -11.1082
      1008        2.0000           -0.4070038             -11.0751 (HOMO)
      1009                         -0.1059345              -2.8826 (LUMO)
      1010                         -0.0933625              -2.5405
      1011                         -0.0819664              -2.2304
      1012                         -0.0803049              -2.1852
      1013                         -0.0716664              -1.9501
       ...                                ...                  ...
      1512                          0.4282028              11.6520
      -------------------------------------------------------------
                  HL-Gap            0.3010693 Eh            8.1925 eV
             Fermi-level           -0.2564691 Eh           -6.9789 eV
 
 localization/xTB-IFF output generation
 averaging CT terms over           28  occ. levels
 averaging CT terms over            1  virt. levels
 dipole moment from electron density (au)
     X       Y       Z   
   1.1202  -3.0517  -2.2184  total (Debye):   10.004
cpu  time for init local    0.91 s
wall time for init local    0.52 s
 doing rotations ...
 initialization of trafo matrix to unity

 converged in     16 iterations, threshold :   0.99996770D-06
 doing transformations ...
 lmo centers(Z=2) and atoms on file <lmocent.coord>
 LMO Fii/eV  ncent    charge center   contributions...
    1 LP   *******   0.00   6.57453   4.61339  -0.31048  277O : 24.47  688O : 22.11  208O : 18.57  472O : 18.51  718O : 17.48  325O : 16.94  496O : 16.66  418O : 16.20  403O : 14.98  634O : 14.10  667O : 13.60  244O : 13.56
    7O : 13.03  358O : 12.64   10O : 12.44  415O : 12.15  367O : 11.74  382O : 11.38   70O : 11.38  529O : 11.08  430O : 10.95  157O : 10.84  442O : 10.38  112O : 10.18
  721O : 10.17   91O : 10.13  232O :  9.91  199O :  9.67  643O :  9.64  283O :  9.63  679O :  9.54  241O :  9.19  388O :  8.94   85O :  8.86  493O :  8.72  238O :  8.55
  322O :  8.28  556O :  8.16  124O :  8.00  268O :  7.94  226O :  7.85  160O :  7.50  412O :  7.49  445O :  7.49  262O :  7.47  346O :  7.32  526O :  7.31  559O :  7.28
  592O :  7.25  298O :  7.09  376O :  7.07  130O :  7.05  601O :  7.04  349O :  6.82   55O :  6.76  658O :  6.74  607O :  6.66  265O :  6.65  457O :  6.63  292O :  6.56
  361O :  6.56   28O :  6.51  250O :  6.39  448O :  6.38  610O :  6.36  196O :  6.31  136O :  6.23  364O :  6.14  256O :  6.01  586O :  6.00  646O :  5.98  652O :  5.97
   13O :  5.91  745O :  5.91  118O :  5.89   79O :  5.89  166O :  5.89   88O :  5.88  163O :  5.82  127O :  5.82   40O :  5.76  205O :  5.70  352O :  5.63   16O :  5.62
  394O :  5.61   22O :  5.57  328O :  5.52  307O :  5.48  580O :  5.45  247O :  5.44  217O :  5.44   64O :  5.32  193O :  5.27  379O :  5.27  421O :  5.26  481O :  5.25
  517O :  5.20  538O :  5.10  535O :  5.08  637O :  5.02  466O :  5.01   82O :  4.98  289O :  4.97   67O :  4.96  397O :  4.96  508O :  4.90   73O :  4.90  316O :  4.88
  223O :  4.85   94O :  4.84  295O :  4.82   31O :  4.72  103O :  4.68  154O :  4.43  577O :  4.36  514O :  4.31  235O :  4.26  301O :  4.18  655O :  4.15  133O :  4.14
  178O :  4.12   97O :  4.11  673O :  4.11  343O :  4.01  703O :  4.00   58O :  3.96  148O :  3.92  484O :  3.89  184O :  3.87  502O :  3.86  169O :  3.84  730O :  3.83
  550O :  3.81  709O :  3.64  451O :  3.61  142O :  3.56  427O :  3.52  487O :  3.50  280O :  3.32  498H :  3.32  424O :  3.31  259O :  3.29  625O :  3.20  724O :  3.16
  622O :  3.12  640O :  3.06  436O :  3.06   61O :  3.04  670O :  3.01  385O :  2.99   25O :  2.93  754O :  2.92  409O :  2.90  373O :  2.81  109O :  2.78  310O :  2.67
  304O :  2.67  676O :  2.66  475O :  2.65  568O :  2.61  220O :  2.59  715O :  2.55  478O :  2.55  469O :  2.54  616O :  2.53  391O :  2.53  274O :  2.52  604O :  2.51
  664O :  2.51  115O :  2.43  419H :  2.36  505O :  2.35  406O :  2.31  313O :  2.30  172O :  2.29  439O :  2.27  547O :  2.22  562O :  2.21  190O :  2.19  454O :  2.16
  712O :  2.09  151O :  2.08  628O :  2.01  649O :  2.00  742O :  1.92  682O :  1.89  583O :  1.86   34O :  1.85  106O :  1.84  697O :  1.84  736O :  1.82  197H :  1.80
  340O :  1.79   46O :  1.78  574O :  1.75  539H :  1.73  499O :  1.72  587H :  1.65  271O :  1.63  460O :  1.62  121O :  1.60   52O :  1.56  739O :  1.55  104H :  1.55
  751O :  1.54  417H :  1.53  733O :  1.53   98H :  1.51  286O :  1.50   19O :  1.49  661O :  1.49   87H :  1.48  571O :  1.46  635H :  1.45  202O :  1.41   93H :  1.41
   76O :  1.40  253O :  1.39  334O :  1.38   41H :  1.36  433O :  1.35  355O :  1.34  240H :  1.32  128H :  1.32  167H :  1.31  685O :  1.30  211O :  1.30    1O :  1.27
  234H :  1.27  691O :  1.21   49O :  1.19  468H :  1.18  613O :  1.17  595O :  1.16  520O :  1.16  565O :  1.15  381H :  1.15  400O :  1.14  510H :  1.14  748O :  1.11
   11H :  1.09  293H :  1.09  362H :  1.08  523O :  1.08  337O :  1.06  187O :  1.06  365H :  0.98  243H :  0.94  619O :  0.93   89H :  0.92  553O :  0.90  669H :  0.90
   43O :  0.90  704H :  0.90  175O :  0.89  319O :  0.88  483H :  0.87  626H :  0.86  548H :  0.85  603H :  0.84  727O :  0.84  511O :  0.83  541O :  0.81  444H :  0.78
  219H :  0.75  284H :  0.74  598O :  0.73  681H :  0.73  531H :  0.73  266H :  0.73  137H :  0.71  233H :  0.71  532O :  0.70  519H :  0.70  119H :  0.69  683H :  0.69
  299H :  0.68  168H :  0.67  302H :  0.67  370O :  0.66  229O :  0.65  452H :  0.65    4O :  0.65  589O :  0.65  387H :  0.64  281H :  0.64  710H :  0.64  222H :  0.63
   37O :  0.63  631O :  0.63  330H :  0.62  720H :  0.61  470H :  0.61  138H :  0.60  201H :  0.60  139O :  0.60  490O :  0.59  383H :  0.59  425H :  0.59  741H :  0.58
  321H :  0.58  653H :  0.57  716H :  0.56   33H :  0.56  152H :  0.55  455H :  0.55  485H :  0.53  207H :  0.52   14H :  0.52  449H :  0.52   42H :  0.51  639H :  0.51
  537H :  0.51  144H :  0.50  245H :  0.50  366H :  0.50  311H :  0.48  164H :  0.48  414H :  0.48  145O :  0.48  731H :  0.47  558H :  0.47  497H :  0.46   95H :  0.45
  410H :  0.44  698H :  0.43  428H :  0.43  564H :  0.43  276H :  0.43  263H :  0.42  557H :  0.42  507H :  0.42  479H :  0.41  680H :  0.41  294H :  0.41  677H :  0.41
   92H :  0.40  374H :  0.40  678H :  0.40   45H :  0.40  350H :  0.40   72H :  0.40  272H :  0.40  318H :  0.39  525H :  0.38   26H :  0.38  746H :  0.37  579H :  0.36
  126H :  0.35  171H :  0.35  707H :  0.34  116H :  0.34  105H :  0.34   77H :  0.33   21H :  0.33  214O :  0.33  368H :  0.33  198H :  0.32  384H :  0.32  446H :  0.32
   24H :  0.31  476H :  0.31  447H :  0.31  395H :  0.31  569H :  0.31  405H :  0.31  407H :  0.31   56H :  0.30  249H :  0.30  660H :  0.29   30H :  0.29  360H :  0.29
  305H :  0.29  482H :  0.29   29H :  0.29  756H :  0.29  453H :  0.29  668H :  0.28  671H :  0.28  100O :  0.28  353H :  0.28  204H :  0.28  747H :  0.28  398H :  0.27
  500H :  0.27   75H :  0.27  191H :  0.27  129H :  0.27  648H :  0.27  666H :  0.26  614H :  0.26  740H :  0.26  291H :  0.26   83H :  0.26  459H :  0.25  467H :  0.25
  386H :  0.25  480H :  0.24  131H :  0.24  181O :  0.24  411H :  0.24  437H :  0.24  122H :  0.24  221H :  0.24  147H :  0.24  584H :  0.23  743H :  0.23  563H :  0.23
  521H :  0.23  749H :  0.23  581H :  0.23  575H :  0.22  416H :  0.22    6H :  0.22  441H :  0.22  463O :  0.22  344H :  0.22  570H :  0.21  149H :  0.21  700O :  0.20
  509H :  0.20  675H :  0.20  413H :  0.20  162H :  0.20  255H :  0.20  390H :  0.19  657H :  0.19  331O :  0.18  285H :  0.18  737H :  0.18  524H :  0.18  108H :  0.18
  206H :  0.18  290H :  0.18  438H :  0.18  489H :  0.18  706O :  0.17  239H :  0.17  269H :  0.17   47H :  0.17  156H :  0.17  314H :  0.17   60H :  0.17  650H :  0.16
  236H :  0.16   63H :  0.16  309H :  0.16   66H :  0.16   20H :  0.16  324H :  0.16  633H :  0.16  693H :  0.16  320H :  0.16  270H :  0.16   84H :  0.15  372H :  0.15
  359H :  0.15  213H :  0.15  188H :  0.15  578H :  0.15  638H :  0.15  402H :  0.15  713H :  0.14  515H :  0.14  665H :  0.14  717H :  0.14  495H :  0.14  606H :  0.14
  567H :  0.14  501H :  0.13  654H :  0.13  329H :  0.13  722H :  0.13  450H :  0.13  186H :  0.13  674H :  0.12  125H :  0.12  608H :  0.12  474H :  0.12  435H :  0.12
  618H :  0.12  755H :  0.12  753H :  0.12  528H :  0.12  246H :  0.12  530H :  0.11  576H :  0.11  300H :  0.11  354H :  0.11  408H :  0.11  738H :  0.11  443H :  0.10
  522H :  0.10  602H :  0.10   48H :  0.10   12H :  0.10  308H :  0.10  656H :  0.10  488H :  0.09  699H :  0.09   38H :  0.09  659H :  0.09  461H :  0.09  534H :  0.09
  110H :  0.09   74H :  0.09  210H :  0.09  161H :  0.09  287H :  0.09  462H :  0.09  230H :  0.09  338H :  0.09  692H :  0.09  542H :  0.09  393H :  0.08  392H :  0.08
  686H :  0.08  267H :  0.08  107H :  0.08  375H :  0.08  194H :  0.08  513H :  0.08  611H :  0.08  153H :  0.08   80H :  0.08  224H :  0.08  533H :  0.08  297H :  0.08
  694O :  0.08   54H :  0.08  231H :  0.08  551H :  0.07  141H :  0.07  596H :  0.07   59H :  0.07  404H :  0.07  644H :  0.07  345H :  0.07   86H :  0.07  434H :  0.07
  335H :  0.07
    2 LP   *******   0.00 -27.78003 -13.07244 -44.34185  277O : 19.89  688O : 19.80  208O : 19.41  472O : 16.57  718O : 15.64  325O : 15.16  496O : 14.90  418O : 14.50  403O : 13.41  634O : 12.63  667O : 12.18  244O : 12.14
    7O : 11.65  358O : 11.32   10O : 11.09  415O : 10.88  367O : 10.51   70O : 10.19  382O : 10.19  529O :  9.92  430O :  9.81  157O :  9.71  442O :  9.29  112O :  9.12
  721O :  9.11   91O :  9.07  232O :  8.87  199O :  8.67  643O :  8.63  283O :  8.62  679O :  8.54  241O :  8.24  388O :  8.00   85O :  7.93  493O :  7.81  238O :  7.65
  322O :  7.41  556O :  7.30  124O :  7.17  268O :  7.11  226O :  7.04  160O :  6.76  412O :  6.71  445O :  6.70  262O :  6.69  298O :  6.56  346O :  6.56  526O :  6.54
  559O :  6.52  592O :  6.49  376O :  6.33  601O :  6.31  130O :  6.22  349O :  6.11   55O :  6.06  658O :  6.04  607O :  5.96  265O :  5.95  457O :  5.93  292O :  5.88
  361O :  5.87   28O :  5.82  250O :  5.72  448O :  5.71  610O :  5.70  196O :  5.65  136O :  5.58  364O :  5.46  256O :  5.38  586O :  5.37  646O :  5.35  652O :  5.35
  745O :  5.29   13O :  5.29  118O :  5.28   79O :  5.27  166O :  5.27   88O :  5.22  163O :  5.21  127O :  5.21   40O :  5.16  205O :  5.10  352O :  5.04   16O :  5.04
  394O :  5.02   22O :  4.98  328O :  4.94  307O :  4.91  217O :  4.88  580O :  4.88  247O :  4.87   64O :  4.76  379O :  4.74  193O :  4.72  421O :  4.71  481O :  4.70
  517O :  4.66  538O :  4.57  535O :  4.55  637O :  4.50  466O :  4.48   82O :  4.46  289O :  4.46  397O :  4.44   67O :  4.44   73O :  4.39  508O :  4.39  316O :  4.37
  223O :  4.34   94O :  4.33  295O :  4.32   31O :  4.23  103O :  4.19  154O :  3.97  577O :  3.90  514O :  3.86  235O :  3.81  301O :  3.75  655O :  3.72  133O :  3.70
  178O :  3.69  673O :  3.68  703O :  3.61  343O :  3.58   58O :  3.55  148O :  3.49  484O :  3.48  184O :  3.47  502O :  3.46  169O :  3.44   97O :  3.43  730O :  3.43
  550O :  3.41  709O :  3.26  451O :  3.23  142O :  3.19  427O :  3.15  487O :  3.14  280O :  2.98  498H :  2.97  424O :  2.97  259O :  2.94  625O :  2.86  724O :  2.83
  622O :  2.79  640O :  2.74  436O :  2.74   61O :  2.73  670O :  2.70  385O :  2.68   25O :  2.62  754O :  2.61  409O :  2.60  373O :  2.52  109O :  2.49  310O :  2.39
  304O :  2.39  676O :  2.38  475O :  2.37  568O :  2.34  220O :  2.32  478O :  2.28  715O :  2.28  469O :  2.27  616O :  2.26  391O :  2.26  274O :  2.25  604O :  2.24
  664O :  2.24  115O :  2.18  419H :  2.11  505O :  2.11  406O :  2.07  313O :  2.06  172O :  2.05  439O :  2.03  547O :  1.99  562O :  1.98  190O :  1.96  454O :  1.93
  712O :  1.87  151O :  1.86  628O :  1.80  649O :  1.79  742O :  1.72  682O :  1.69  583O :  1.67   34O :  1.66  697O :  1.65  106O :  1.64  736O :  1.63  197H :  1.61
  340O :  1.61   46O :  1.60  574O :  1.56  539H :  1.55  499O :  1.54  587H :  1.48  271O :  1.48  460O :  1.45  121O :  1.44   52O :  1.40  104H :  1.39  739O :  1.39
  751O :  1.38  417H :  1.37  733O :  1.37   19O :  1.35  286O :  1.34  661O :  1.33   87H :  1.33  571O :  1.30  635H :  1.30  202O :  1.26   93H :  1.26   76O :  1.25
  253O :  1.24  334O :  1.24   41H :  1.22  433O :  1.21  240H :  1.18  128H :  1.18  167H :  1.18  685O :  1.16  211O :  1.16  355O :  1.15    1O :  1.14  234H :  1.13
   49O :  1.10  691O :  1.08   98H :  1.06  468H :  1.06  613O :  1.05  520O :  1.04  595O :  1.04  381H :  1.03  565O :  1.03  400O :  1.02  510H :  1.02  748O :  0.99
   11H :  0.97  293H :  0.97  362H :  0.97  523O :  0.97  337O :  0.95  187O :  0.94  365H :  0.90  243H :  0.84  619O :  0.83   89H :  0.82   43O :  0.82  553O :  0.81
  669H :  0.80  704H :  0.80  175O :  0.80  319O :  0.79  483H :  0.78  626H :  0.77  548H :  0.76  603H :  0.76  727O :  0.75  511O :  0.74  541O :  0.73  444H :  0.70
  219H :  0.67  284H :  0.67  598O :  0.65  681H :  0.65  531H :  0.65  266H :  0.65  137H :  0.64  233H :  0.63  532O :  0.63  519H :  0.63  119H :  0.62  683H :  0.62
  299H :  0.61  168H :  0.60  302H :  0.60  370O :  0.60  229O :  0.58  452H :  0.58    4O :  0.58  589O :  0.58  387H :  0.57  281H :  0.57  710H :  0.57  222H :  0.56
   37O :  0.56  631O :  0.56  330H :  0.55  720H :  0.54  470H :  0.54  138H :  0.54  201H :  0.54  139O :  0.53  490O :  0.53  383H :  0.52  425H :  0.52  741H :  0.52
  321H :  0.52  653H :  0.51  716H :  0.51   33H :  0.50  152H :  0.49  455H :  0.49  485H :  0.48  207H :  0.47   14H :  0.46  449H :  0.46   42H :  0.46  639H :  0.45
  537H :  0.45  144H :  0.45  245H :  0.45  366H :  0.44  311H :  0.43  164H :  0.43  414H :  0.43  145O :  0.43  731H :  0.42  558H :  0.42  497H :  0.41   95H :  0.40
  410H :  0.39  698H :  0.39  428H :  0.39  564H :  0.39  276H :  0.38  263H :  0.38  557H :  0.38  507H :  0.37  479H :  0.37  680H :  0.37  294H :  0.37  677H :  0.36
   92H :  0.36   45H :  0.36  374H :  0.36  678H :  0.36  350H :  0.36   72H :  0.36  272H :  0.35  318H :  0.35  525H :  0.34   26H :  0.34  746H :  0.33  126H :  0.32
  579H :  0.32  171H :  0.31  707H :  0.31  116H :  0.31  105H :  0.30   77H :  0.30  368H :  0.29  198H :  0.29  214O :  0.29   21H :  0.29  384H :  0.28  446H :  0.28
   24H :  0.28  476H :  0.28  447H :  0.28  395H :  0.28  569H :  0.28  405H :  0.28  407H :  0.27   56H :  0.27  249H :  0.27  660H :  0.26  360H :  0.26   30H :  0.26
  305H :  0.26  482H :  0.26   29H :  0.26  756H :  0.26  100O :  0.26  453H :  0.26  668H :  0.25  671H :  0.25  353H :  0.25  204H :  0.25  747H :  0.25  398H :  0.25
  500H :  0.25   75H :  0.24  191H :  0.24  129H :  0.24  648H :  0.24  666H :  0.23  614H :  0.23  740H :  0.23  291H :  0.23   83H :  0.23  459H :  0.23  386H :  0.22
  467H :  0.22  480H :  0.22  181O :  0.22  411H :  0.22  437H :  0.21  122H :  0.21  131H :  0.21  221H :  0.21  147H :  0.21  584H :  0.21  743H :  0.21  563H :  0.21
  521H :  0.21  749H :  0.21  581H :  0.20  575H :  0.20  416H :  0.20    6H :  0.20  441H :  0.20  463O :  0.20  344H :  0.19  570H :  0.19  162H :  0.19  149H :  0.19
  509H :  0.18  700O :  0.18  675H :  0.18  413H :  0.18  255H :  0.17  390H :  0.17  657H :  0.17  331O :  0.16  285H :  0.16  737H :  0.16  524H :  0.16  108H :  0.16
  206H :  0.16  290H :  0.16  438H :  0.16  489H :  0.16  706O :  0.16   47H :  0.16  239H :  0.16  269H :  0.15  156H :  0.15  314H :  0.15   60H :  0.15   66H :  0.15
  650H :  0.15  236H :  0.15   63H :  0.15  309H :  0.15  324H :  0.14  633H :  0.14  693H :  0.14  320H :  0.14  270H :  0.14   84H :  0.14  372H :  0.14   20H :  0.14
  359H :  0.14  213H :  0.13  188H :  0.13  578H :  0.13  638H :  0.13  402H :  0.13  713H :  0.13  515H :  0.13  665H :  0.13  495H :  0.12  717H :  0.12  606H :  0.12
  567H :  0.12  501H :  0.12  654H :  0.12  329H :  0.12  722H :  0.11  450H :  0.11  186H :  0.11  674H :  0.11  125H :  0.11  608H :  0.11  474H :  0.11  435H :  0.11
  618H :  0.11  755H :  0.11  753H :  0.10  528H :  0.10  246H :  0.10  530H :  0.10  576H :  0.10  354H :  0.10  408H :  0.10  738H :  0.10  300H :  0.10  443H :  0.09
  522H :  0.09  602H :  0.09   48H :  0.09  308H :  0.09  656H :  0.09  699H :  0.08  488H :  0.08   38H :  0.08  659H :  0.08  461H :  0.08  534H :  0.08   12H :  0.08
  110H :  0.08   74H :  0.08  287H :  0.08  462H :  0.08  230H :  0.08  338H :  0.08  692H :  0.08  542H :  0.08  393H :  0.08  392H :  0.08  686H :  0.07  267H :  0.07
  107H :  0.07  375H :  0.07  194H :  0.07  513H :  0.07  611H :  0.07  161H :  0.07  153H :  0.07   80H :  0.07
    3 LP   *******   0.00  -6.83970  21.67150 -17.65830  277O : 19.58  688O : 19.47  718O : 17.82  208O : 16.36  472O : 16.30  325O : 14.91  496O : 14.65  418O : 14.26  403O : 13.19  634O : 12.42  667O : 11.98  244O : 11.94
    7O : 11.45  358O : 11.13   10O : 10.91  415O : 10.70  367O : 10.33  382O : 10.02   70O : 10.02  529O :  9.76  430O :  9.65  157O :  9.55  442O :  9.14  112O :  8.97
  721O :  8.96   91O :  8.92  232O :  8.72  199O :  8.54  643O :  8.50  283O :  8.48  679O :  8.40  241O :  8.10  388O :  7.87   85O :  7.80  493O :  7.68  238O :  7.53
  322O :  7.28  556O :  7.18  124O :  7.05  268O :  6.99  226O :  6.92  160O :  6.65  412O :  6.60  445O :  6.59  262O :  6.58  298O :  6.45  346O :  6.45  526O :  6.43
  559O :  6.41  592O :  6.38  376O :  6.23  130O :  6.21  601O :  6.20  349O :  6.01   55O :  5.96  607O :  5.87  265O :  5.86  457O :  5.84  658O :  5.82  292O :  5.78
  361O :  5.78   28O :  5.73  250O :  5.62  448O :  5.62  610O :  5.60  196O :  5.55  136O :  5.49  364O :  5.37  256O :  5.30  586O :  5.28  646O :  5.27  652O :  5.26
  745O :  5.20   13O :  5.20  118O :  5.19   79O :  5.19  166O :  5.19   88O :  5.13  163O :  5.13  127O :  5.12   40O :  5.07  205O :  5.02  352O :  4.96   16O :  4.95
  394O :  4.94   22O :  4.90  307O :  4.83  580O :  4.80  247O :  4.79  328O :  4.77  217O :  4.72   64O :  4.68  379O :  4.66  193O :  4.64  421O :  4.63  481O :  4.63
  517O :  4.58  538O :  4.49  535O :  4.47  637O :  4.42  466O :  4.41   82O :  4.39  289O :  4.38  397O :  4.37   67O :  4.36   73O :  4.32  508O :  4.31  316O :  4.29
  223O :  4.27   94O :  4.26  295O :  4.25   31O :  4.16  103O :  4.12  154O :  3.91  577O :  3.84  514O :  3.79  235O :  3.75  301O :  3.68  655O :  3.66  133O :  3.64
  673O :  3.63  178O :  3.63  703O :  3.53  343O :  3.53   58O :  3.49  148O :  3.46  484O :  3.42  184O :  3.41  502O :  3.40  169O :  3.38   97O :  3.38  730O :  3.37
  550O :  3.36  709O :  3.20  451O :  3.18  142O :  3.14  427O :  3.10  487O :  3.09  280O :  2.93  498H :  2.92  424O :  2.91  259O :  2.89  625O :  2.82  724O :  2.78
  622O :  2.75  640O :  2.69  436O :  2.69  670O :  2.65   61O :  2.62  385O :  2.62   25O :  2.58  754O :  2.57  409O :  2.56  373O :  2.48  109O :  2.45  310O :  2.36
  304O :  2.35  676O :  2.34  475O :  2.33  568O :  2.30  220O :  2.28  478O :  2.25  715O :  2.24  469O :  2.24  616O :  2.23  391O :  2.22  274O :  2.22  664O :  2.21
  604O :  2.21  115O :  2.14  419H :  2.08  505O :  2.07  406O :  2.04  313O :  2.03  172O :  2.02  439O :  2.00  547O :  1.95  562O :  1.95  190O :  1.93  454O :  1.90
  712O :  1.84  151O :  1.83  628O :  1.77  649O :  1.76  742O :  1.69  682O :  1.67  583O :  1.64   34O :  1.64  697O :  1.62  106O :  1.62  736O :  1.60  197H :  1.58
  340O :  1.58   46O :  1.56  574O :  1.54  539H :  1.52  499O :  1.52  587H :  1.46  271O :  1.45  460O :  1.43  121O :  1.41   52O :  1.38  104H :  1.37  739O :  1.37
  751O :  1.36  417H :  1.35  733O :  1.35   19O :  1.33  286O :  1.32  661O :  1.31   87H :  1.30  571O :  1.28  635H :  1.27  253O :  1.27  202O :  1.24   93H :  1.24
   76O :  1.23  334O :  1.22   41H :  1.20  433O :  1.19  355O :  1.18  240H :  1.16  128H :  1.16  167H :  1.16  685O :  1.14  211O :  1.14    1O :  1.12  234H :  1.11
  691O :  1.06   49O :  1.05   98H :  1.04  468H :  1.04  613O :  1.03  520O :  1.02  595O :  1.02  381H :  1.01  565O :  1.01  400O :  1.01  510H :  1.00  748O :  0.98
   11H :  0.96  293H :  0.96  362H :  0.95  523O :  0.95  337O :  0.94  187O :  0.93  365H :  0.88  243H :  0.82  619O :  0.82   89H :  0.81   43O :  0.81  553O :  0.79
  669H :  0.79  704H :  0.79  175O :  0.79  319O :  0.77  483H :  0.77  626H :  0.75  548H :  0.75  603H :  0.74  727O :  0.74  511O :  0.73  541O :  0.72  444H :  0.69
  284H :  0.65  219H :  0.65  598O :  0.64  681H :  0.64  531H :  0.64  266H :  0.64  137H :  0.63  233H :  0.62  532O :  0.62  519H :  0.62  119H :  0.61  683H :  0.61
  299H :  0.60  168H :  0.59  302H :  0.59  370O :  0.59  229O :  0.58  452H :  0.57    4O :  0.57  589O :  0.57  281H :  0.56  710H :  0.56  222H :  0.56   37O :  0.55
  387H :  0.55  631O :  0.55  330H :  0.54  470H :  0.53  138H :  0.53  201H :  0.53  139O :  0.52  490O :  0.52  383H :  0.52  425H :  0.51  741H :  0.51  321H :  0.51
  653H :  0.51  716H :  0.50   33H :  0.49  152H :  0.48  455H :  0.48  485H :  0.47  207H :  0.46   14H :  0.46  449H :  0.45  720H :  0.45   42H :  0.45  639H :  0.45
  537H :  0.44  144H :  0.44  245H :  0.44  366H :  0.44  311H :  0.43  164H :  0.43  414H :  0.42  660H :  0.42  145O :  0.42  731H :  0.41  558H :  0.41  497H :  0.40
   95H :  0.40  410H :  0.38  698H :  0.38  428H :  0.38  564H :  0.38  276H :  0.38  263H :  0.37  557H :  0.37  507H :  0.37  479H :  0.36  680H :  0.36  294H :  0.36
  677H :  0.36   92H :  0.36   45H :  0.35  374H :  0.35  678H :  0.35  350H :  0.35   72H :  0.35  272H :  0.35  318H :  0.35  525H :  0.33   26H :  0.33  746H :  0.33
  579H :  0.32  171H :  0.31  126H :  0.31  707H :  0.30  116H :  0.30  105H :  0.30   77H :  0.29  214O :  0.29  368H :  0.29  198H :  0.28   21H :  0.28  384H :  0.28
  446H :  0.28   24H :  0.28  476H :  0.28  447H :  0.28  395H :  0.27  569H :  0.27  405H :  0.27  407H :  0.27   56H :  0.26  249H :  0.26  360H :  0.26   30H :  0.26
  305H :  0.26  482H :  0.25   29H :  0.25  756H :  0.25  100O :  0.25  453H :  0.25  668H :  0.25  671H :  0.25  353H :  0.24  204H :  0.24  747H :  0.24  398H :  0.24
  500H :  0.24   75H :  0.24  191H :  0.24  386H :  0.24  129H :  0.24  648H :  0.23  666H :  0.23  614H :  0.23  740H :  0.23   83H :  0.22  459H :  0.22  291H :  0.22
  467H :  0.22  480H :  0.21  131H :  0.21  181O :  0.21  411H :  0.21  437H :  0.21  122H :  0.21  221H :  0.21  147H :  0.21  584H :  0.21  743H :  0.21  563H :  0.21
  521H :  0.20  749H :  0.20  581H :  0.20  575H :  0.20  416H :  0.20    6H :  0.19  441H :  0.19  463O :  0.19  344H :  0.19  570H :  0.19  162H :  0.19  149H :  0.18
  509H :  0.18  700O :  0.18  675H :  0.18  413H :  0.18  255H :  0.18  390H :  0.17  657H :  0.16  331O :  0.16  285H :  0.16  737H :  0.16  524H :  0.16  108H :  0.16
  206H :  0.16  438H :  0.16  489H :  0.16  706O :  0.15  239H :  0.15  269H :  0.15  290H :  0.15   47H :  0.15  156H :  0.15  314H :  0.15   60H :  0.15   66H :  0.15
  650H :  0.14  236H :  0.14  309H :  0.14  324H :  0.14  633H :  0.14  693H :  0.14  320H :  0.14  270H :  0.14   84H :  0.14  372H :  0.14   63H :  0.14  213H :  0.13
   20H :  0.13  359H :  0.13  188H :  0.13  578H :  0.13  638H :  0.13  402H :  0.13  713H :  0.13  515H :  0.13  665H :  0.12  495H :  0.12  717H :  0.12  606H :  0.12
  567H :  0.12  501H :  0.12  654H :  0.12  722H :  0.11  450H :  0.11  329H :  0.11  186H :  0.11  125H :  0.11  674H :  0.11  608H :  0.11  474H :  0.11  435H :  0.11
  618H :  0.10  755H :  0.10  753H :  0.10  528H :  0.10  246H :  0.10  530H :  0.10  576H :  0.10  354H :  0.10  408H :  0.10  738H :  0.09  300H :  0.09  443H :  0.09
  522H :  0.09  602H :  0.09   48H :  0.09  308H :  0.09  656H :  0.08  659H :  0.08  699H :  0.08  488H :  0.08   38H :  0.08  461H :  0.08  110H :  0.08  534H :  0.08
   12H :  0.08   74H :  0.08  210H :  0.08  287H :  0.08  462H :  0.08  230H :  0.08  338H :  0.08  692H :  0.08  542H :  0.08  393H :  0.07  392H :  0.07  686H :  0.07
  267H :  0.07  107H :  0.07  375H :  0.07  194H :  0.07  513H :  0.07  611H :  0.07  161H :  0.07  153H :  0.07
    4 LP   *******   0.00  12.88806   6.65269  -0.36780  688O : 20.92  277O : 18.30  208O : 15.30  472O : 15.25  718O : 14.39  325O : 13.95  496O : 13.70  418O : 13.34  403O : 12.34  634O : 11.62  667O : 11.21  244O : 11.17
    7O : 10.73  358O : 10.31   10O : 10.22  415O : 10.02  367O :  9.67  382O :  9.38   70O :  9.38  529O :  9.13  430O :  9.03  157O :  8.94  442O :  8.55  112O :  8.40
  721O :  8.38   91O :  8.34  232O :  8.16  199O :  8.00  643O :  7.94  283O :  7.94  679O :  7.86  241O :  7.57  388O :  7.37   85O :  7.30  493O :  7.18  238O :  7.04
  322O :  6.82  556O :  6.72  124O :  6.60  268O :  6.54  226O :  6.47  160O :  6.21  412O :  6.17  445O :  6.17  262O :  6.15  298O :  6.03  346O :  6.03  526O :  6.02
  559O :  6.00  592O :  5.97  376O :  5.82  130O :  5.81  601O :  5.80  349O :  5.62   55O :  5.57  658O :  5.56  607O :  5.49  265O :  5.48  457O :  5.46  292O :  5.41
  361O :  5.40   28O :  5.36  250O :  5.26  448O :  5.26  610O :  5.24  196O :  5.20  136O :  5.13  364O :  5.01  256O :  4.95  586O :  4.95  646O :  4.93   88O :  4.93
  652O :  4.92  745O :  4.87   13O :  4.86  166O :  4.86   79O :  4.85  118O :  4.85  163O :  4.80  127O :  4.79   40O :  4.75  205O :  4.69   16O :  4.63  352O :  4.63
  394O :  4.62   22O :  4.59  328O :  4.54  307O :  4.52  217O :  4.49  247O :  4.48  580O :  4.48   64O :  4.38  379O :  4.36  193O :  4.34  421O :  4.33  481O :  4.33
  517O :  4.29  538O :  4.20  535O :  4.19  637O :  4.13  466O :  4.12   82O :  4.10  289O :  4.10  397O :  4.09   67O :  4.08   73O :  4.04  508O :  4.04  316O :  4.02
  223O :  4.00   94O :  3.99   31O :  3.90  103O :  3.85  295O :  3.80  154O :  3.65  577O :  3.59  514O :  3.55  235O :  3.51  301O :  3.44  655O :  3.42  133O :  3.41
  178O :  3.39  673O :  3.39  343O :  3.30  703O :  3.30   58O :  3.26  148O :  3.23  484O :  3.20  184O :  3.19  502O :  3.18  169O :  3.17   97O :  3.16  730O :  3.15
  550O :  3.14  709O :  3.00  451O :  2.97  142O :  2.94  427O :  2.90  487O :  2.89  280O :  2.74  498H :  2.74  424O :  2.73  259O :  2.71  625O :  2.63  724O :  2.60
  622O :  2.57  640O :  2.52  436O :  2.52   61O :  2.51  670O :  2.48  385O :  2.46   25O :  2.41  754O :  2.40  409O :  2.39  373O :  2.32  109O :  2.29  310O :  2.20
  304O :  2.20  475O :  2.18  676O :  2.18  568O :  2.15  220O :  2.14  715O :  2.10  478O :  2.10  469O :  2.09  616O :  2.08  391O :  2.08  274O :  2.07  664O :  2.06
  604O :  2.06  115O :  2.00  419H :  1.95  505O :  1.94  406O :  1.91  313O :  1.90  172O :  1.89  439O :  1.87  547O :  1.83  562O :  1.82  190O :  1.80  454O :  1.78
  712O :  1.72  151O :  1.71  628O :  1.66  649O :  1.65  742O :  1.58  682O :  1.56  583O :  1.53   34O :  1.53  106O :  1.51  697O :  1.51  736O :  1.50  197H :  1.48
  340O :  1.48   46O :  1.46  574O :  1.44  539H :  1.43  499O :  1.42  587H :  1.36  271O :  1.35  460O :  1.33  121O :  1.32   52O :  1.29  417H :  1.28  104H :  1.28
  739O :  1.28  661O :  1.27  751O :  1.27  733O :  1.26   19O :  1.25  286O :  1.23   87H :  1.22  571O :  1.20  635H :  1.19  253O :  1.16  202O :  1.16   93H :  1.16
   76O :  1.15  334O :  1.14   41H :  1.12  433O :  1.11  355O :  1.10  240H :  1.08  128H :  1.08  167H :  1.08  685O :  1.07  211O :  1.07    1O :  1.05  234H :  1.04
  691O :  1.00   49O :  0.98  468H :  0.97   98H :  0.97  613O :  0.97  520O :  0.96  595O :  0.95  381H :  0.95  565O :  0.95  400O :  0.94  510H :  0.94  748O :  0.91
   11H :  0.90  293H :  0.89  362H :  0.89  523O :  0.89   43O :  0.88  337O :  0.88  187O :  0.87  365H :  0.82   89H :  0.82  243H :  0.77  619O :  0.76  553O :  0.74
  669H :  0.74  704H :  0.74  175O :  0.74  319O :  0.72  483H :  0.72  626H :  0.70  548H :  0.70  603H :  0.70  727O :  0.69  511O :  0.68  541O :  0.67  444H :  0.64
  219H :  0.62  284H :  0.61  681H :  0.60  598O :  0.60  531H :  0.60  266H :  0.60  137H :  0.59  233H :  0.58  532O :  0.58  519H :  0.58  683H :  0.57  119H :  0.57
  299H :  0.56  168H :  0.55  302H :  0.55  370O :  0.55  229O :  0.54  452H :  0.54    4O :  0.54  589O :  0.53  387H :  0.53  281H :  0.52  710H :  0.52  222H :  0.52
   37O :  0.52  631O :  0.52   45H :  0.52  330H :  0.51  201H :  0.50  720H :  0.50  138H :  0.50  470H :  0.50  139O :  0.49  490O :  0.49  383H :  0.48  425H :  0.48
  741H :  0.48  321H :  0.48  653H :  0.47  716H :  0.46   33H :  0.46  152H :  0.45  455H :  0.45  485H :  0.44  207H :  0.43   14H :  0.43  449H :  0.42   42H :  0.42
  639H :  0.42  537H :  0.42  144H :  0.42  245H :  0.41  366H :  0.41  311H :  0.40  164H :  0.40  414H :  0.39  145O :  0.39  731H :  0.39  558H :  0.38  497H :  0.38
   95H :  0.37  410H :  0.36  428H :  0.35  564H :  0.35  276H :  0.35  263H :  0.35  557H :  0.35  507H :  0.34  479H :  0.34  680H :  0.34  294H :  0.34  677H :  0.34
   92H :  0.33  374H :  0.33  678H :  0.33  350H :  0.33   72H :  0.33  272H :  0.32  318H :  0.32  698H :  0.32  525H :  0.31   26H :  0.31  746H :  0.31  579H :  0.30
  126H :  0.29  171H :  0.29  707H :  0.28  116H :  0.28  105H :  0.28   77H :  0.27  214O :  0.27  368H :  0.27  198H :  0.26   21H :  0.26  384H :  0.26  446H :  0.26
   24H :  0.26  476H :  0.26  447H :  0.26  395H :  0.26  569H :  0.25  405H :  0.25  407H :  0.25   56H :  0.25  249H :  0.24  360H :  0.24  660H :  0.24   30H :  0.24
  305H :  0.24  482H :  0.24   29H :  0.24  756H :  0.24  453H :  0.24  100O :  0.23  668H :  0.23  671H :  0.23  353H :  0.23  204H :  0.23  747H :  0.23  398H :  0.23
  500H :  0.23   75H :  0.22  191H :  0.22  129H :  0.22  648H :  0.22  666H :  0.22  614H :  0.21  740H :  0.21  291H :  0.21   83H :  0.21  459H :  0.21  467H :  0.21
  386H :  0.21  480H :  0.20  131H :  0.20  181O :  0.20  411H :  0.20  437H :  0.20  122H :  0.20  221H :  0.19  147H :  0.19  584H :  0.19  743H :  0.19  563H :  0.19
  521H :  0.19  749H :  0.19  581H :  0.19  575H :  0.18  416H :  0.18    6H :  0.18  441H :  0.18  463O :  0.18  344H :  0.18  570H :  0.18  162H :  0.18  149H :  0.17
  509H :  0.17  700O :  0.17  675H :  0.17  413H :  0.17  255H :  0.16  390H :  0.16  657H :  0.15  331O :  0.15  285H :  0.15  737H :  0.15  524H :  0.15  108H :  0.15
  206H :  0.15  290H :  0.15  438H :  0.15  489H :  0.15  706O :  0.14  239H :  0.14  269H :  0.14   47H :  0.14  156H :  0.14  314H :  0.14   60H :  0.14   66H :  0.14
  650H :  0.14  236H :  0.13   63H :  0.13  309H :  0.13  633H :  0.13  324H :  0.13  693H :  0.13  320H :  0.13  270H :  0.13   84H :  0.13  372H :  0.13  213H :  0.13
   20H :  0.13  188H :  0.12  578H :  0.12  638H :  0.12  359H :  0.12  402H :  0.12  713H :  0.12  515H :  0.12  665H :  0.12  606H :  0.11  717H :  0.11  495H :  0.11
  567H :  0.11  501H :  0.11  654H :  0.11  329H :  0.11  450H :  0.10  722H :  0.10  186H :  0.10  674H :  0.10  125H :  0.10  608H :  0.10  474H :  0.10  435H :  0.10
  618H :  0.10  755H :  0.10  753H :  0.10  528H :  0.10  246H :  0.09  530H :  0.09  576H :  0.09  354H :  0.09  408H :  0.09  738H :  0.09  300H :  0.09  443H :  0.09
  522H :  0.08  602H :  0.08   48H :  0.08  308H :  0.08  656H :  0.08  488H :  0.08   38H :  0.08  659H :  0.08  461H :  0.08  534H :  0.08  699H :  0.08   12H :  0.08
  110H :  0.08   74H :  0.07  210H :  0.07  287H :  0.07  462H :  0.07  230H :  0.07  338H :  0.07  692H :  0.07  542H :  0.07
    5 LP   *******   0.00 -75.53930 -20.96991 -27.50774  277O : 17.36  688O : 17.28  418O : 16.52  208O : 14.51  472O : 14.46  718O : 13.65  325O : 13.23  496O : 13.00  403O : 11.70  634O : 11.02  667O : 10.63  244O : 10.59
    7O : 10.17  358O :  9.88   10O :  9.68  415O :  9.49  367O :  9.17   70O :  8.90  382O :  8.90  529O :  8.66  430O :  8.56  157O :  8.47  442O :  8.11  112O :  7.96
  721O :  7.95   91O :  7.82  232O :  7.74  199O :  7.56  643O :  7.54  283O :  7.53  679O :  7.45  241O :  7.18  388O :  6.99   85O :  6.92  493O :  6.81  238O :  6.68
  322O :  6.46  556O :  6.37  124O :  6.26  268O :  6.21  226O :  6.14  160O :  5.90  412O :  5.85  445O :  5.85  262O :  5.84  298O :  5.72  346O :  5.72  526O :  5.71
  559O :  5.71  592O :  5.66  376O :  5.52  130O :  5.51  601O :  5.51  349O :  5.33   55O :  5.29  658O :  5.27  607O :  5.20  265O :  5.20  457O :  5.18  292O :  5.13
  361O :  5.12   28O :  5.08  250O :  4.99  448O :  4.99  610O :  4.97  196O :  4.93  136O :  4.87  364O :  4.77  256O :  4.70  586O :  4.69  646O :  4.67  652O :  4.66
  745O :  4.62   13O :  4.61  118O :  4.60   79O :  4.60  166O :  4.60   88O :  4.56  163O :  4.55  127O :  4.54   40O :  4.50  205O :  4.49  352O :  4.40   16O :  4.39
  394O :  4.38   22O :  4.35  328O :  4.31  307O :  4.28  217O :  4.26  580O :  4.26  247O :  4.25   64O :  4.15  379O :  4.13  193O :  4.12  421O :  4.11  481O :  4.11
  517O :  4.07  538O :  3.99  535O :  3.97  637O :  3.92  466O :  3.91   82O :  3.89  289O :  3.89  397O :  3.88   67O :  3.87   73O :  3.83  508O :  3.83  316O :  3.81
  223O :  3.79   94O :  3.78  295O :  3.77   31O :  3.69  103O :  3.66  154O :  3.47  577O :  3.41  514O :  3.37  235O :  3.33  301O :  3.27  655O :  3.25  133O :  3.23
  178O :  3.22  673O :  3.21  343O :  3.13  703O :  3.13   58O :  3.10  148O :  3.06  484O :  3.04  184O :  3.02  502O :  3.02  169O :  3.00   97O :  3.00  730O :  2.99
  709O :  2.84  550O :  2.82  451O :  2.82  142O :  2.78  427O :  2.75  487O :  2.74  280O :  2.60  498H :  2.59  424O :  2.59  259O :  2.57  625O :  2.50  724O :  2.47
  622O :  2.44  640O :  2.39  436O :  2.39   61O :  2.38  670O :  2.35  385O :  2.34   25O :  2.29  754O :  2.28  409O :  2.27  373O :  2.20  109O :  2.17  310O :  2.09
  304O :  2.09  676O :  2.08  475O :  2.07  568O :  2.04  220O :  2.03  478O :  1.99  715O :  1.99  469O :  1.98  616O :  1.98  391O :  1.97  274O :  1.97  604O :  1.96
  664O :  1.96  115O :  1.90  505O :  1.84  406O :  1.81  313O :  1.80  172O :  1.79  439O :  1.77  419H :  1.73  547O :  1.73  562O :  1.73  190O :  1.71  454O :  1.69
  712O :  1.63  151O :  1.62  628O :  1.57  649O :  1.57  742O :  1.50  682O :  1.48  583O :  1.45   34O :  1.45  697O :  1.44  106O :  1.43  736O :  1.42  197H :  1.41
  340O :  1.40   46O :  1.39  574O :  1.36  539H :  1.35  499O :  1.35  587H :  1.29  271O :  1.29  460O :  1.26  121O :  1.25   52O :  1.22  104H :  1.21  739O :  1.21
  751O :  1.20  733O :  1.20  417H :  1.20   19O :  1.18  286O :  1.17  661O :  1.16   87H :  1.16  571O :  1.14  635H :  1.13  202O :  1.10   76O :  1.10   93H :  1.08
  253O :  1.08  334O :  1.08   41H :  1.07  433O :  1.05  355O :  1.05  240H :  1.03  128H :  1.03  167H :  1.03  685O :  1.01  211O :  1.01    1O :  0.99  234H :  0.99
  691O :  0.94   49O :  0.93   98H :  0.93  468H :  0.92  613O :  0.92  520O :  0.91  595O :  0.91  381H :  0.90  565O :  0.90  400O :  0.89  510H :  0.89  748O :  0.87
   11H :  0.85  293H :  0.85  362H :  0.85  523O :  0.85  337O :  0.83  187O :  0.83  365H :  0.78  243H :  0.73  619O :  0.72   89H :  0.72   43O :  0.72  553O :  0.70
  669H :  0.70  704H :  0.70  319O :  0.69  175O :  0.69  483H :  0.68  626H :  0.67  548H :  0.67  603H :  0.66  727O :  0.66  511O :  0.65  541O :  0.64  444H :  0.61
  219H :  0.59  284H :  0.58  598O :  0.57  681H :  0.57  531H :  0.57  266H :  0.57  137H :  0.56  233H :  0.55  532O :  0.55  519H :  0.55  119H :  0.54  683H :  0.54
  299H :  0.53  168H :  0.52  302H :  0.52  370O :  0.52  229O :  0.51  452H :  0.51    4O :  0.51  589O :  0.51  387H :  0.50  281H :  0.50  710H :  0.50  222H :  0.49
   37O :  0.49  631O :  0.49  330H :  0.48  720H :  0.47  470H :  0.47  138H :  0.47  201H :  0.47  139O :  0.47  490O :  0.46  383H :  0.46  425H :  0.46  741H :  0.46
  321H :  0.45  653H :  0.45  716H :  0.44   33H :  0.44  152H :  0.43  455H :  0.43  485H :  0.42   14H :  0.41  449H :  0.40   42H :  0.40  639H :  0.40  537H :  0.39
  144H :  0.39  245H :  0.39  207H :  0.39  366H :  0.39  311H :  0.38  164H :  0.38  414H :  0.37  145O :  0.37  731H :  0.37  558H :  0.36  497H :  0.36   95H :  0.35
  410H :  0.34  564H :  0.34  698H :  0.34  428H :  0.34  276H :  0.33  263H :  0.33  557H :  0.33  507H :  0.33  479H :  0.32  680H :  0.32  294H :  0.32  677H :  0.32
   45H :  0.32  374H :  0.31   92H :  0.31  678H :  0.31  350H :  0.31   72H :  0.31  272H :  0.31  318H :  0.31  525H :  0.30   26H :  0.29  746H :  0.29  579H :  0.28
  126H :  0.28  171H :  0.27  707H :  0.27  116H :  0.27  105H :  0.26   77H :  0.26  214O :  0.26  368H :  0.26  198H :  0.25   21H :  0.25  384H :  0.25  446H :  0.25
   24H :  0.25  476H :  0.24  447H :  0.24  395H :  0.24  569H :  0.24  405H :  0.24  407H :  0.24   56H :  0.23  249H :  0.23  660H :  0.23  360H :  0.23   30H :  0.23
  305H :  0.23  482H :  0.23   29H :  0.23  756H :  0.22  100O :  0.22  453H :  0.22  668H :  0.22  671H :  0.22  353H :  0.22  204H :  0.22  747H :  0.22  398H :  0.21
  500H :  0.21   75H :  0.21  191H :  0.21  648H :  0.21  129H :  0.21  666H :  0.20  614H :  0.20  740H :  0.20  291H :  0.20   83H :  0.20  459H :  0.20  467H :  0.20
  386H :  0.20  480H :  0.19  131H :  0.19  181O :  0.19  411H :  0.19  437H :  0.19  122H :  0.19  221H :  0.18  147H :  0.18  584H :  0.18  743H :  0.18  563H :  0.18
  521H :  0.18  749H :  0.18  581H :  0.18  575H :  0.18  416H :  0.17    6H :  0.17  441H :  0.17  463O :  0.17  344H :  0.17  570H :  0.17  162H :  0.17  149H :  0.16
  509H :  0.16  700O :  0.16  675H :  0.16  413H :  0.16  255H :  0.15  390H :  0.15  657H :  0.15  331O :  0.14  285H :  0.14  206H :  0.14  737H :  0.14  524H :  0.14
  108H :  0.14  290H :  0.14  489H :  0.14  438H :  0.14  706O :  0.14  239H :  0.14  269H :  0.14   47H :  0.13  156H :  0.13  314H :  0.13   60H :  0.13  650H :  0.13
   66H :  0.13  236H :  0.13   63H :  0.13  309H :  0.13  324H :  0.12  633H :  0.12  693H :  0.12  320H :  0.12  270H :  0.12   84H :  0.12  372H :  0.12  213H :  0.12
   20H :  0.12  359H :  0.12  188H :  0.12  578H :  0.12  638H :  0.11  402H :  0.11  713H :  0.11  515H :  0.11  665H :  0.11  495H :  0.11  606H :  0.11  717H :  0.11
  567H :  0.11  501H :  0.10  654H :  0.10  329H :  0.10  722H :  0.10  450H :  0.10  186H :  0.10  674H :  0.10  125H :  0.10  608H :  0.10  474H :  0.09  435H :  0.09
  618H :  0.09  755H :  0.09  753H :  0.09  528H :  0.09  246H :  0.09  530H :  0.09  576H :  0.09  354H :  0.09  408H :  0.09  738H :  0.08  300H :  0.08  443H :  0.08
  522H :  0.08  602H :  0.08   48H :  0.08  308H :  0.08  656H :  0.07  699H :  0.07  488H :  0.07   38H :  0.07  461H :  0.07  659H :  0.07  534H :  0.07   12H :  0.07
  110H :  0.07   74H :  0.07  210H :  0.07
    6 LP   *******   0.00 -86.19217  -8.29841  15.68528  277O : 16.32  688O : 16.25  208O : 13.65  472O : 13.60  718O : 12.83  667O : 12.81  325O : 12.44  496O : 12.22  418O : 11.90  403O : 11.00  634O : 10.37  244O :  9.97
    7O :  9.56  358O :  9.29   10O :  9.10  415O :  8.93  367O :  8.62  382O :  8.36   70O :  8.36  529O :  8.14  430O :  8.05  157O :  7.97  442O :  7.63  112O :  7.48
  721O :  7.48   91O :  7.44  232O :  7.28  199O :  7.11  643O :  7.08  283O :  7.07  679O :  7.00  241O :  6.75  388O :  6.57   85O :  6.51  493O :  6.40  238O :  6.28
  322O :  6.08  124O :  5.88  268O :  5.83  226O :  5.77  556O :  5.64  160O :  5.55  412O :  5.50  445O :  5.50  262O :  5.49  346O :  5.40  298O :  5.38  526O :  5.37
  559O :  5.35  592O :  5.32  376O :  5.19  130O :  5.18  601O :  5.18  349O :  5.01  361O :  4.98   55O :  4.97  658O :  4.95  607O :  4.89  265O :  4.89  457O :  4.87
  292O :  4.82   28O :  4.78  448O :  4.69  250O :  4.69  610O :  4.67  136O :  4.58  364O :  4.48  196O :  4.46  256O :  4.42  586O :  4.41  646O :  4.39  652O :  4.39
  745O :  4.34   13O :  4.34  118O :  4.33   79O :  4.33  166O :  4.33   88O :  4.29  163O :  4.28  127O :  4.27   40O :  4.23  205O :  4.19  352O :  4.14   16O :  4.13
  394O :  4.12   22O :  4.09  328O :  4.05  307O :  4.03  217O :  4.00  580O :  4.00  247O :  4.00   64O :  3.90  379O :  3.89  193O :  3.87  481O :  3.87  421O :  3.86
  517O :  3.83  538O :  3.75  535O :  3.73  637O :  3.69  466O :  3.68   82O :  3.66  289O :  3.66  397O :  3.64   67O :  3.64   73O :  3.60  508O :  3.60  316O :  3.58
  223O :  3.56   94O :  3.55  295O :  3.55   31O :  3.47  103O :  3.44  154O :  3.26  577O :  3.20  514O :  3.16  235O :  3.13  301O :  3.07  655O :  3.05  133O :  3.04
  178O :  3.03  673O :  3.02  343O :  2.94  703O :  2.94   58O :  2.90  148O :  2.88  484O :  2.86  184O :  2.84  502O :  2.84  169O :  2.82   97O :  2.82  730O :  2.81
  550O :  2.80  709O :  2.67  451O :  2.65  142O :  2.62  427O :  2.58  487O :  2.57  280O :  2.44  498H :  2.44  424O :  2.43  259O :  2.42  625O :  2.35  724O :  2.32
  622O :  2.29  640O :  2.25  436O :  2.25   61O :  2.24  670O :  2.21  385O :  2.19   25O :  2.15  754O :  2.14  409O :  2.13  373O :  2.07  109O :  2.04  310O :  1.97
  304O :  1.96  676O :  1.95  475O :  1.94  568O :  1.92  220O :  1.91  478O :  1.87  715O :  1.87  469O :  1.86  616O :  1.86  391O :  1.86  274O :  1.85  604O :  1.84
  664O :  1.84  115O :  1.79  419H :  1.74  505O :  1.73  406O :  1.70  313O :  1.69  172O :  1.68  439O :  1.67  547O :  1.63  562O :  1.63  190O :  1.61  454O :  1.59
  712O :  1.53  151O :  1.53  628O :  1.48  649O :  1.47  742O :  1.41  682O :  1.39  583O :  1.37   34O :  1.36  697O :  1.35  106O :  1.35  736O :  1.34  340O :  1.32
  197H :  1.31   46O :  1.31  574O :  1.28  539H :  1.27  499O :  1.27  587H :  1.21  271O :  1.21  460O :  1.19  121O :  1.18   52O :  1.15  104H :  1.14  739O :  1.14
  751O :  1.13  417H :  1.13  733O :  1.13   19O :  1.11  286O :  1.10  661O :  1.09   87H :  1.09  571O :  1.07  635H :  1.06  202O :  1.04   93H :  1.04   76O :  1.03
  253O :  1.02  334O :  1.02   41H :  1.00  433O :  0.99  355O :  0.98  240H :  0.97  128H :  0.97  167H :  0.96  685O :  0.95  211O :  0.95    1O :  0.93  234H :  0.93
  691O :  0.89   49O :  0.88   98H :  0.87  468H :  0.87  362H :  0.87  613O :  0.86  520O :  0.85  595O :  0.85  381H :  0.85  565O :  0.85  400O :  0.84  510H :  0.84
  748O :  0.82   11H :  0.80  293H :  0.80  523O :  0.79  337O :  0.78  187O :  0.78  365H :  0.73  553O :  0.70  243H :  0.69  619O :  0.68   89H :  0.68   43O :  0.67
  704H :  0.66  175O :  0.66  319O :  0.64  483H :  0.64  626H :  0.63  548H :  0.63  603H :  0.62  727O :  0.62  511O :  0.61  541O :  0.60  669H :  0.58  444H :  0.57
  219H :  0.55  284H :  0.55  598O :  0.53  531H :  0.53  681H :  0.53  266H :  0.53  137H :  0.52  233H :  0.52  532O :  0.52  519H :  0.51  119H :  0.51  683H :  0.51
  299H :  0.50  168H :  0.49  302H :  0.49  370O :  0.49  229O :  0.48  452H :  0.48    4O :  0.48  589O :  0.47  387H :  0.47  281H :  0.47  710H :  0.47  222H :  0.46
   37O :  0.46  631O :  0.46  330H :  0.45  720H :  0.45  470H :  0.44  138H :  0.44  201H :  0.44  139O :  0.44  490O :  0.43  383H :  0.43  425H :  0.43  741H :  0.43
  321H :  0.42  653H :  0.42  716H :  0.41   33H :  0.41  152H :  0.40  455H :  0.40  485H :  0.39  207H :  0.38   14H :  0.38  449H :  0.38   42H :  0.38  639H :  0.37
  537H :  0.37  144H :  0.37  245H :  0.37  366H :  0.36  311H :  0.36  164H :  0.36  414H :  0.35  145O :  0.35  731H :  0.34  497H :  0.34   95H :  0.33  410H :  0.32
  698H :  0.32  428H :  0.32  564H :  0.32  276H :  0.31  263H :  0.31  557H :  0.31  507H :  0.31  479H :  0.30  680H :  0.30  294H :  0.30  677H :  0.30   92H :  0.30
   45H :  0.30  374H :  0.30  678H :  0.29  350H :  0.29   72H :  0.29  272H :  0.29  318H :  0.29  525H :  0.28   26H :  0.28  746H :  0.27  579H :  0.26  126H :  0.26
  171H :  0.26  707H :  0.25  116H :  0.25  105H :  0.25   77H :  0.24  214O :  0.24  368H :  0.24   21H :  0.23  384H :  0.23  446H :  0.23   24H :  0.23  476H :  0.23
  447H :  0.23  395H :  0.23  569H :  0.23  405H :  0.23  407H :  0.23  198H :  0.22  558H :  0.22   56H :  0.22  249H :  0.22  660H :  0.22  360H :  0.21   30H :  0.21
  305H :  0.21  482H :  0.21   29H :  0.21  756H :  0.21  100O :  0.21  453H :  0.21  671H :  0.21  353H :  0.20  204H :  0.20  747H :  0.20  398H :  0.20  500H :  0.20
   75H :  0.20  191H :  0.20  129H :  0.20  648H :  0.20  666H :  0.19  614H :  0.19  740H :  0.19  291H :  0.19   83H :  0.19  459H :  0.19  467H :  0.18  386H :  0.18
  480H :  0.18  131H :  0.18  181O :  0.18  411H :  0.18  122H :  0.17  221H :  0.17  147H :  0.17  584H :  0.17  743H :  0.17  563H :  0.17  521H :  0.17  437H :  0.17
  749H :  0.17  581H :  0.17  575H :  0.16  416H :  0.16    6H :  0.16  441H :  0.16  463O :  0.16  344H :  0.16  668H :  0.16  570H :  0.16  162H :  0.16  149H :  0.15
  509H :  0.15  413H :  0.15  700O :  0.15  675H :  0.15  255H :  0.14  390H :  0.14  657H :  0.14  331O :  0.14  737H :  0.13  524H :  0.13  438H :  0.13  108H :  0.13
  206H :  0.13  290H :  0.13  489H :  0.13  285H :  0.13  706O :  0.13  239H :  0.13  269H :  0.13   47H :  0.13  156H :  0.13  314H :  0.13   60H :  0.12   66H :  0.12
  650H :  0.12  236H :  0.12   63H :  0.12  309H :  0.12  324H :  0.12  633H :  0.12  693H :  0.12  320H :  0.12  270H :  0.12   84H :  0.11  372H :  0.11  213H :  0.11
   20H :  0.11  359H :  0.11  188H :  0.11  578H :  0.11  638H :  0.11  402H :  0.11  713H :  0.11  515H :  0.11  665H :  0.10  495H :  0.10  606H :  0.10  717H :  0.10
  567H :  0.10  501H :  0.10  654H :  0.10  329H :  0.10  450H :  0.09  722H :  0.09  186H :  0.09  674H :  0.09  125H :  0.09  608H :  0.09  474H :  0.09  435H :  0.09
  618H :  0.09  755H :  0.09  753H :  0.09  246H :  0.09  528H :  0.08  530H :  0.08  576H :  0.08  354H :  0.08  408H :  0.08  738H :  0.08  300H :  0.08  443H :  0.08
  522H :  0.08  602H :  0.07   48H :  0.07  308H :  0.07  656H :  0.07
    7 LP   *******   0.00  31.27149  -8.38140  16.12640  277O : 14.95  688O : 14.88  496O : 13.43  208O : 12.50  472O : 12.46  718O : 11.76  325O : 11.40  418O : 10.90  403O : 10.08  634O :  9.49  667O :  9.16  244O :  9.13
    7O :  8.76  358O :  8.51   10O :  8.32  415O :  8.18  367O :  7.90  382O :  7.66   70O :  7.66  529O :  7.46  430O :  7.37  157O :  7.30  442O :  6.89  112O :  6.85
  721O :  6.85   91O :  6.82  232O :  6.67  199O :  6.51  643O :  6.49  283O :  6.48  679O :  6.42  241O :  6.19  388O :  6.02   85O :  5.96  493O :  5.86  238O :  5.75
  322O :  5.57  556O :  5.49  124O :  5.39  268O :  5.35  226O :  5.29  160O :  5.07  412O :  5.04  445O :  5.04  262O :  5.03  346O :  4.93  526O :  4.92  298O :  4.91
  559O :  4.90  592O :  4.88  376O :  4.76  130O :  4.74  601O :  4.74  349O :  4.59   55O :  4.55  658O :  4.54  607O :  4.48  265O :  4.48  457O :  4.46  292O :  4.42
  361O :  4.41   28O :  4.38  250O :  4.30  448O :  4.30  610O :  4.28  196O :  4.25  136O :  4.21  364O :  4.11  256O :  4.05  586O :  4.04  646O :  4.02  652O :  4.02
  745O :  3.98   13O :  3.97  118O :  3.97  166O :  3.97   79O :  3.96   88O :  3.93  127O :  3.92  163O :  3.91   40O :  3.88  205O :  3.83  352O :  3.79   16O :  3.79
  394O :  3.77   22O :  3.75  328O :  3.71  307O :  3.69  217O :  3.67  247O :  3.66  580O :  3.62   64O :  3.58  379O :  3.56  193O :  3.55  421O :  3.54  481O :  3.54
  517O :  3.50  538O :  3.43  535O :  3.42  637O :  3.38   82O :  3.35  466O :  3.35  289O :  3.35  397O :  3.34   67O :  3.34   73O :  3.30  508O :  3.30  316O :  3.28
  223O :  3.26   94O :  3.26  295O :  3.25   31O :  3.18  103O :  3.16  154O :  2.98  577O :  2.94  514O :  2.90  235O :  2.87  301O :  2.82  655O :  2.79  133O :  2.78
  178O :  2.77  673O :  2.77  343O :  2.70  703O :  2.69   58O :  2.67  148O :  2.64  484O :  2.62  184O :  2.60  502O :  2.60  169O :  2.59   97O :  2.58  730O :  2.57
  550O :  2.57  709O :  2.45  451O :  2.43  142O :  2.40  427O :  2.37  487O :  2.36  280O :  2.24  424O :  2.23  259O :  2.21  625O :  2.15  724O :  2.13  622O :  2.10
  640O :  2.06  436O :  2.06   61O :  2.05  498H :  2.05  670O :  2.03  385O :  2.01   25O :  1.97  754O :  1.96  409O :  1.95  373O :  1.89  109O :  1.87  310O :  1.80
  304O :  1.80  676O :  1.77  568O :  1.76  220O :  1.75  478O :  1.72  715O :  1.72  469O :  1.71  391O :  1.70  616O :  1.70  664O :  1.69  604O :  1.68  274O :  1.68
  475O :  1.65  115O :  1.64  419H :  1.59  505O :  1.59  406O :  1.56  313O :  1.55  172O :  1.54  439O :  1.52  547O :  1.49  562O :  1.49  190O :  1.47  454O :  1.45
  712O :  1.40  151O :  1.40  628O :  1.36  649O :  1.35  742O :  1.29  682O :  1.27  583O :  1.25   34O :  1.25  697O :  1.24  106O :  1.24  736O :  1.22  197H :  1.21
  340O :  1.21   46O :  1.20  574O :  1.18  539H :  1.16  499O :  1.16  587H :  1.11  271O :  1.10  460O :  1.09  121O :  1.08   19O :  1.06   52O :  1.05  739O :  1.04
  104H :  1.04  751O :  1.04  417H :  1.03  733O :  1.03  286O :  1.01  661O :  1.00   87H :  1.00  571O :  0.98  635H :  0.97  202O :  0.95   93H :  0.95   76O :  0.94
  253O :  0.93  334O :  0.93   41H :  0.92  433O :  0.91  355O :  0.90  240H :  0.89  128H :  0.89  167H :  0.88  685O :  0.87  211O :  0.87    1O :  0.85  234H :  0.85
  691O :  0.81   49O :  0.80   98H :  0.80  468H :  0.80  613O :  0.79  595O :  0.79  520O :  0.78  381H :  0.77  565O :  0.77  400O :  0.77  510H :  0.77  748O :  0.75
   11H :  0.73  293H :  0.73  362H :  0.73  523O :  0.73  337O :  0.72  187O :  0.71  365H :  0.67  243H :  0.63  619O :  0.62   89H :  0.62   43O :  0.62  553O :  0.61
  669H :  0.60  704H :  0.60  175O :  0.60  319O :  0.59  483H :  0.59  626H :  0.58  548H :  0.57  603H :  0.57  727O :  0.57  511O :  0.56  541O :  0.55  219H :  0.51
  444H :  0.50  284H :  0.50  598O :  0.49  681H :  0.49  531H :  0.49  266H :  0.49  137H :  0.48  233H :  0.48  532O :  0.47  519H :  0.47  683H :  0.47  119H :  0.47
  299H :  0.46  168H :  0.45  302H :  0.45  370O :  0.45  229O :  0.44    4O :  0.44  452H :  0.44  589O :  0.44  387H :  0.43  281H :  0.43  710H :  0.43  222H :  0.42
   37O :  0.42  631O :  0.42  330H :  0.41  720H :  0.41  470H :  0.41  138H :  0.41  201H :  0.41  139O :  0.40  490O :  0.40  383H :  0.39  425H :  0.39  741H :  0.39
  321H :  0.39  653H :  0.39  716H :  0.38   33H :  0.38  152H :  0.37  455H :  0.37  485H :  0.36  207H :  0.35   14H :  0.35  449H :  0.35   42H :  0.35  639H :  0.34
  537H :  0.34  144H :  0.34  245H :  0.34  366H :  0.33  311H :  0.33  164H :  0.33  414H :  0.32  145O :  0.32  731H :  0.31  558H :  0.31   95H :  0.30  410H :  0.29
  698H :  0.29  428H :  0.29  564H :  0.29  263H :  0.29  557H :  0.28  507H :  0.28  276H :  0.28  479H :  0.28  680H :  0.28  294H :  0.28  677H :  0.27   92H :  0.27
   45H :  0.27  374H :  0.27  678H :  0.27  350H :  0.27   72H :  0.27  318H :  0.26  497H :  0.26  525H :  0.25  272H :  0.25   26H :  0.25  746H :  0.25  579H :  0.24
  126H :  0.24  171H :  0.24  105H :  0.23  707H :  0.23  116H :  0.23   77H :  0.22  214O :  0.22  368H :  0.22  476H :  0.22  198H :  0.22   21H :  0.21  384H :  0.21
  446H :  0.21   24H :  0.21  447H :  0.21  569H :  0.21  405H :  0.21  407H :  0.21  395H :  0.20   56H :  0.20  249H :  0.20  100O :  0.20  660H :  0.20  360H :  0.20
   30H :  0.20  305H :  0.20  482H :  0.19   29H :  0.19  756H :  0.19  453H :  0.19  668H :  0.19  671H :  0.19  353H :  0.19  204H :  0.19  747H :  0.19  398H :  0.18
  500H :  0.18   75H :  0.18  191H :  0.18  129H :  0.18  648H :  0.18  666H :  0.18  614H :  0.18  740H :  0.17  291H :  0.17   83H :  0.17  459H :  0.17  386H :  0.17
  467H :  0.17  480H :  0.16  181O :  0.16  131H :  0.16  411H :  0.16  437H :  0.16  122H :  0.16  221H :  0.16  147H :  0.16  584H :  0.16  743H :  0.16  563H :  0.16
  521H :  0.16  749H :  0.15  575H :  0.15  416H :  0.15    6H :  0.15  441H :  0.15  463O :  0.15  344H :  0.15  570H :  0.14  162H :  0.14  149H :  0.14  509H :  0.14
  700O :  0.14  675H :  0.14  413H :  0.14  255H :  0.13  390H :  0.13  657H :  0.13  285H :  0.12  331O :  0.12  737H :  0.12  524H :  0.12  108H :  0.12  206H :  0.12
  290H :  0.12  438H :  0.12  489H :  0.12  706O :  0.12  239H :  0.12  581H :  0.12  269H :  0.12   47H :  0.12  156H :  0.12  314H :  0.11   60H :  0.11   66H :  0.11
  650H :  0.11  236H :  0.11   63H :  0.11  309H :  0.11   20H :  0.11  324H :  0.11  633H :  0.11  693H :  0.11  320H :  0.11  270H :  0.11   84H :  0.10  372H :  0.10
  213H :  0.10  359H :  0.10  188H :  0.10  578H :  0.10  638H :  0.10  402H :  0.10  713H :  0.10  515H :  0.10  665H :  0.09  606H :  0.09  495H :  0.09  717H :  0.09
  567H :  0.09  501H :  0.09  654H :  0.09  329H :  0.09  722H :  0.09  450H :  0.08  186H :  0.08  674H :  0.08  125H :  0.08  608H :  0.08  474H :  0.08  435H :  0.08
  618H :  0.08  755H :  0.08  753H :  0.08  528H :  0.08  246H :  0.08  530H :  0.08  576H :  0.08  408H :  0.07  354H :  0.07  300H :  0.07  738H :  0.07
    8 LP   *******   0.00  10.80048   8.45978   1.03736  688O : 16.02  277O : 14.56  208O : 12.17  472O : 12.13  718O : 11.44  325O : 11.09  496O : 10.90  418O : 10.61  403O :  9.81  634O :  9.24  667O :  8.91  244O :  8.88
    7O :  8.53  358O :  8.25   10O :  8.12  415O :  7.97  367O :  7.69  382O :  7.46   70O :  7.46  529O :  7.26  430O :  7.18  157O :  7.09  442O :  6.80  112O :  6.67
  721O :  6.67   91O :  6.63  232O :  6.49  199O :  6.37  643O :  6.31  283O :  6.31  679O :  6.25  241O :  6.02  388O :  5.86   85O :  5.80  493O :  5.71  238O :  5.60
  322O :  5.42  556O :  5.34  124O :  5.24  268O :  5.20  226O :  5.14  160O :  4.96  412O :  4.91  445O :  4.90  262O :  4.89  298O :  4.80  346O :  4.80  526O :  4.79
  559O :  4.77  592O :  4.75  376O :  4.63  130O :  4.62  601O :  4.61  349O :  4.47   55O :  4.43  658O :  4.42  607O :  4.37  265O :  4.35  457O :  4.34  292O :  4.30
  361O :  4.30   28O :  4.27  250O :  4.18  448O :  4.18  610O :  4.17  196O :  4.13  136O :  4.07  364O :  3.96   88O :  3.96  256O :  3.94  586O :  3.93  646O :  3.92
  652O :  3.91  745O :  3.87   13O :  3.87  166O :  3.86  118O :  3.86   79O :  3.86  163O :  3.81  127O :  3.81   40O :  3.77  205O :  3.73  352O :  3.69   16O :  3.68
  394O :  3.67   22O :  3.65  328O :  3.61  307O :  3.59  217O :  3.57  247O :  3.56  580O :  3.56   64O :  3.47  379O :  3.46  193O :  3.45  421O :  3.44  481O :  3.44
  517O :  3.41  538O :  3.34  535O :  3.33  466O :  3.28  637O :  3.28   82O :  3.26  289O :  3.26  397O :  3.25   67O :  3.25   73O :  3.21  508O :  3.21  316O :  3.20
  295O :  3.19  223O :  3.18   94O :  3.17   31O :  3.10  103O :  3.06  154O :  2.90  577O :  2.86  514O :  2.82  235O :  2.79  301O :  2.74  655O :  2.72  133O :  2.71
  178O :  2.70  673O :  2.69  343O :  2.62  703O :  2.62   58O :  2.60  148O :  2.57  484O :  2.55  184O :  2.54  502O :  2.53  169O :  2.52   97O :  2.51  730O :  2.51
  550O :  2.50  709O :  2.38  451O :  2.36  142O :  2.33  427O :  2.30  487O :  2.30  280O :  2.18  498H :  2.18  424O :  2.17  259O :  2.15  625O :  2.09  724O :  2.07
  622O :  2.04  640O :  2.00  436O :  2.00   61O :  2.00  670O :  1.97  385O :  1.96   25O :  1.92  754O :  1.91  409O :  1.90  373O :  1.84  109O :  1.82  310O :  1.75
  304O :  1.75  676O :  1.73  475O :  1.73  568O :  1.71  220O :  1.70  478O :  1.67  715O :  1.67  469O :  1.67  616O :  1.66  391O :  1.66  274O :  1.65  664O :  1.64
  115O :  1.59  604O :  1.59  419H :  1.55  505O :  1.54  406O :  1.51  313O :  1.51  172O :  1.50  439O :  1.49  547O :  1.45  562O :  1.45  190O :  1.43  454O :  1.41
  712O :  1.37  151O :  1.36  628O :  1.32  649O :  1.31  742O :  1.26  682O :  1.24  583O :  1.22   34O :  1.22  697O :  1.21  106O :  1.20  736O :  1.19  197H :  1.18
  340O :  1.18   46O :  1.16  574O :  1.14  539H :  1.13  499O :  1.13  271O :  1.08  587H :  1.08  460O :  1.06  121O :  1.05   52O :  1.02  104H :  1.02  739O :  1.02
  751O :  1.01  733O :  1.00   19O :  0.99  417H :  0.99  286O :  0.98  661O :  0.97   87H :  0.97  571O :  0.96  635H :  0.95  253O :  0.94  202O :  0.92   93H :  0.92
   76O :  0.92  334O :  0.91   41H :  0.89   89H :  0.89  433O :  0.88  355O :  0.88  240H :  0.86  128H :  0.86  167H :  0.86  685O :  0.85  211O :  0.85    1O :  0.83
  234H :  0.83  691O :  0.79   98H :  0.78   49O :  0.78  468H :  0.77  613O :  0.77  595O :  0.76  520O :  0.76  565O :  0.75  381H :  0.75  400O :  0.75  510H :  0.75
  748O :  0.73   11H :  0.71  293H :  0.71  362H :  0.71  523O :  0.71  337O :  0.70  187O :  0.69  365H :  0.66   43O :  0.62  243H :  0.61  619O :  0.61  553O :  0.59
  669H :  0.59  704H :  0.59  175O :  0.59  319O :  0.57  483H :  0.57  626H :  0.56  548H :  0.56  603H :  0.55  727O :  0.55  511O :  0.54  541O :  0.53  444H :  0.51
  219H :  0.49  284H :  0.49  681H :  0.48  598O :  0.48  531H :  0.48  266H :  0.47  137H :  0.47  233H :  0.46  532O :  0.46  519H :  0.46  119H :  0.45  683H :  0.45
  299H :  0.45  168H :  0.44  302H :  0.44  370O :  0.44  229O :  0.43  452H :  0.43    4O :  0.43  589O :  0.42  387H :  0.42  281H :  0.42  710H :  0.42  222H :  0.41
   37O :  0.41  631O :  0.41  330H :  0.40  201H :  0.40  720H :  0.40  470H :  0.40  138H :  0.40  139O :  0.39  490O :  0.39  383H :  0.38  425H :  0.38  741H :  0.38
  321H :  0.38  653H :  0.38  716H :  0.37   33H :  0.37  152H :  0.36  455H :  0.36  485H :  0.35  207H :  0.34   14H :  0.34  449H :  0.34   42H :  0.34  639H :  0.33
  537H :  0.33  144H :  0.33  245H :  0.33  366H :  0.32  311H :  0.32  164H :  0.32  414H :  0.31  145O :  0.31  731H :  0.31  558H :  0.31  497H :  0.30   95H :  0.30
  410H :  0.29  428H :  0.28  564H :  0.28  276H :  0.28  263H :  0.28  557H :  0.28  507H :  0.27  479H :  0.27  680H :  0.27  294H :  0.27  677H :  0.27  698H :  0.27
   92H :  0.26  374H :  0.26  678H :  0.26  350H :  0.26   72H :  0.26  272H :  0.26  318H :  0.26  525H :  0.25   45H :  0.25   26H :  0.25  746H :  0.24  579H :  0.24
  126H :  0.23  171H :  0.23  707H :  0.23  116H :  0.22  105H :  0.22   77H :  0.22  214O :  0.22  368H :  0.22  198H :  0.21   21H :  0.21  384H :  0.21  446H :  0.21
   24H :  0.21  476H :  0.20  447H :  0.20  395H :  0.20  569H :  0.20  405H :  0.20  407H :  0.20   56H :  0.20  249H :  0.19  660H :  0.19  360H :  0.19   30H :  0.19
  305H :  0.19  482H :  0.19   29H :  0.19  756H :  0.19  453H :  0.19  100O :  0.19  668H :  0.19  671H :  0.19  353H :  0.18  204H :  0.18  747H :  0.18  398H :  0.18
  500H :  0.18   75H :  0.18  191H :  0.18  129H :  0.18  648H :  0.18  666H :  0.17  614H :  0.17  740H :  0.17  291H :  0.17   83H :  0.17  459H :  0.17  386H :  0.16
  467H :  0.16  480H :  0.16  131H :  0.16  181O :  0.16  411H :  0.16  437H :  0.16  122H :  0.16  221H :  0.15  147H :  0.15  584H :  0.15  743H :  0.15  563H :  0.15
  521H :  0.15  749H :  0.15  581H :  0.15  575H :  0.15  416H :  0.15    6H :  0.14  441H :  0.14  463O :  0.14  344H :  0.14  570H :  0.14  162H :  0.14  149H :  0.14
  509H :  0.13  700O :  0.13  675H :  0.13  413H :  0.13  255H :  0.13  390H :  0.12  657H :  0.12  285H :  0.12  331O :  0.12  737H :  0.12  524H :  0.12  108H :  0.12
  206H :  0.12  290H :  0.12  438H :  0.12  489H :  0.12  706O :  0.11  239H :  0.11  269H :  0.11   47H :  0.11  156H :  0.11  314H :  0.11   60H :  0.11   66H :  0.11
  650H :  0.11  236H :  0.11   63H :  0.11  309H :  0.11  324H :  0.10  633H :  0.10  693H :  0.10  320H :  0.10  270H :  0.10  359H :  0.10   84H :  0.10  372H :  0.10
   20H :  0.10  213H :  0.10  188H :  0.10  578H :  0.10  638H :  0.10  402H :  0.10  713H :  0.09  515H :  0.09  665H :  0.09  495H :  0.09  717H :  0.09  606H :  0.09
  567H :  0.09  501H :  0.09  654H :  0.09  329H :  0.09  722H :  0.08  450H :  0.08  186H :  0.08  674H :  0.08  125H :  0.08  608H :  0.08  474H :  0.08  435H :  0.08
  618H :  0.08  755H :  0.08  753H :  0.08  528H :  0.08  246H :  0.08  530H :  0.07  576H :  0.07  354H :  0.07  408H :  0.07  738H :  0.07  300H :  0.07
    9 LP   *******   0.00 -45.81972  24.21525  27.59684  277O : 14.11  688O : 14.05  208O : 11.80  472O : 11.76  403O : 11.12  718O : 11.10  325O : 10.60  496O : 10.57  418O : 10.29  634O :  8.94  667O :  8.64  244O :  8.61
    7O :  8.27  358O :  8.03   10O :  7.87  415O :  7.72  367O :  7.45  382O :  7.23   70O :  7.23  529O :  7.04  430O :  6.96  157O :  6.89  442O :  6.59  112O :  6.47
  721O :  6.46   91O :  6.43  232O :  6.28  199O :  6.15  643O :  6.13  283O :  6.12  679O :  6.04  241O :  5.84  388O :  5.68   85O :  5.63  493O :  5.54  238O :  5.43
  322O :  5.25  556O :  5.18  124O :  5.09  268O :  5.05  226O :  4.99  160O :  4.80  412O :  4.76  445O :  4.76  262O :  4.74  298O :  4.65  346O :  4.65  559O :  4.62
  592O :  4.60  526O :  4.57  376O :  4.49  130O :  4.48  601O :  4.48  349O :  4.33   55O :  4.30  658O :  4.28  607O :  4.23  265O :  4.22  457O :  4.21  292O :  4.17
  361O :  4.17   28O :  4.13  250O :  4.06  448O :  4.05  610O :  4.04  196O :  4.01  136O :  3.96  364O :  3.88  256O :  3.82  586O :  3.81  646O :  3.80  652O :  3.79
  745O :  3.75   13O :  3.75  118O :  3.74   79O :  3.74  166O :  3.74   88O :  3.71  127O :  3.70  163O :  3.69   40O :  3.66  205O :  3.62  352O :  3.58   16O :  3.57
  394O :  3.56   22O :  3.54  328O :  3.50  307O :  3.48  217O :  3.46  580O :  3.46  247O :  3.45   64O :  3.38  379O :  3.36  193O :  3.36  421O :  3.34  481O :  3.33
  517O :  3.31  538O :  3.24  535O :  3.22  637O :  3.19  466O :  3.18   82O :  3.16  289O :  3.16   67O :  3.15  508O :  3.11   73O :  3.11  316O :  3.11  223O :  3.08
   94O :  3.07  295O :  3.07   31O :  3.00  103O :  2.97  397O :  2.95  154O :  2.82  577O :  2.77  514O :  2.74  235O :  2.70  301O :  2.66  655O :  2.64  133O :  2.63
  178O :  2.62  673O :  2.61  169O :  2.58  343O :  2.54  703O :  2.54   58O :  2.52  148O :  2.49  484O :  2.47  184O :  2.46  502O :  2.45   97O :  2.44  730O :  2.43
  550O :  2.42  709O :  2.31  142O :  2.26  427O :  2.23  487O :  2.23  280O :  2.11  498H :  2.11  424O :  2.10  259O :  2.09  451O :  2.06  625O :  2.03  724O :  2.00
  622O :  1.98  640O :  1.94  436O :  1.94   61O :  1.93  670O :  1.91  385O :  1.90   25O :  1.86  754O :  1.85  409O :  1.84  373O :  1.79  109O :  1.76  310O :  1.70
  304O :  1.70  676O :  1.69  475O :  1.68  568O :  1.66  220O :  1.65  715O :  1.62  478O :  1.62  469O :  1.61  616O :  1.61  391O :  1.60  274O :  1.60  604O :  1.59
  664O :  1.59  115O :  1.55  419H :  1.50  505O :  1.49  406O :  1.47  313O :  1.46  172O :  1.46  439O :  1.44  547O :  1.41  562O :  1.41  190O :  1.39  454O :  1.37
  712O :  1.32  151O :  1.32  628O :  1.28  649O :  1.27  742O :  1.22  682O :  1.20  583O :  1.18   34O :  1.18  697O :  1.17  106O :  1.17  736O :  1.15  197H :  1.14
  340O :  1.14   46O :  1.13  574O :  1.11  539H :  1.10  499O :  1.09  587H :  1.05  271O :  1.05  460O :  1.03  121O :  1.02   52O :  0.99  104H :  0.99  739O :  0.99
  751O :  0.98  417H :  0.97  733O :  0.97   19O :  0.96  286O :  0.95  661O :  0.95   87H :  0.94  571O :  0.93  635H :  0.92  202O :  0.90   93H :  0.89   76O :  0.89
  253O :  0.88  334O :  0.88   41H :  0.87  433O :  0.86  355O :  0.85  240H :  0.84  128H :  0.84  167H :  0.83  685O :  0.82  211O :  0.82    1O :  0.81  234H :  0.80
  691O :  0.77   49O :  0.76   98H :  0.75  468H :  0.75  613O :  0.75  520O :  0.74  595O :  0.74  381H :  0.73  565O :  0.73  400O :  0.73  510H :  0.72  748O :  0.71
   11H :  0.69  293H :  0.69  362H :  0.69  523O :  0.69  337O :  0.67  187O :  0.67  365H :  0.64  243H :  0.59  619O :  0.59   89H :  0.58   43O :  0.58  553O :  0.57
  669H :  0.57  704H :  0.57  175O :  0.57  319O :  0.56  483H :  0.55  626H :  0.54  548H :  0.54  603H :  0.54  727O :  0.53  511O :  0.53  541O :  0.52  444H :  0.50
  219H :  0.48  284H :  0.47  598O :  0.46  531H :  0.46  681H :  0.46  266H :  0.46  137H :  0.45  233H :  0.45  532O :  0.45  519H :  0.44  119H :  0.44  683H :  0.44
  299H :  0.43  168H :  0.43  302H :  0.42  370O :  0.42  229O :  0.42  452H :  0.41    4O :  0.41  589O :  0.41  387H :  0.41  281H :  0.40  710H :  0.40  222H :  0.40
   37O :  0.40  631O :  0.40  330H :  0.39  720H :  0.39  470H :  0.38  138H :  0.38  201H :  0.38  139O :  0.38  490O :  0.37  383H :  0.37  425H :  0.37  741H :  0.37
  321H :  0.37  653H :  0.36  716H :  0.36   33H :  0.35  152H :  0.35  455H :  0.35  485H :  0.34  207H :  0.33   14H :  0.33  449H :  0.33   42H :  0.33  639H :  0.32
  537H :  0.32  144H :  0.32  245H :  0.32  366H :  0.32  164H :  0.31  311H :  0.31  414H :  0.30  145O :  0.30  731H :  0.30  558H :  0.30  497H :  0.29   95H :  0.29
  410H :  0.28  698H :  0.27  428H :  0.27  564H :  0.27  276H :  0.27  263H :  0.27  557H :  0.27  507H :  0.26  479H :  0.26  680H :  0.26  294H :  0.26  677H :  0.26
   92H :  0.26   45H :  0.26  374H :  0.26  678H :  0.25  350H :  0.25   72H :  0.25  272H :  0.25  318H :  0.25  525H :  0.24   26H :  0.24  746H :  0.24  579H :  0.23
  126H :  0.22  171H :  0.22  707H :  0.22  116H :  0.22  105H :  0.21   77H :  0.21  214O :  0.21  368H :  0.21  198H :  0.20   21H :  0.20  384H :  0.20  446H :  0.20
   24H :  0.20  476H :  0.20  447H :  0.20  395H :  0.20  569H :  0.20  407H :  0.19   56H :  0.19  249H :  0.19  660H :  0.19  360H :  0.19   30H :  0.18  305H :  0.18
  482H :  0.18   29H :  0.18  756H :  0.18  100O :  0.18  668H :  0.18  671H :  0.18  353H :  0.18  204H :  0.18  747H :  0.18  500H :  0.17   75H :  0.17  191H :  0.17
  129H :  0.17  648H :  0.17  398H :  0.17  666H :  0.17  614H :  0.17  740H :  0.16  291H :  0.16   83H :  0.16  459H :  0.16  467H :  0.16  386H :  0.16  405H :  0.16
  480H :  0.15  131H :  0.15  181O :  0.15  411H :  0.15  437H :  0.15  122H :  0.15  221H :  0.15  147H :  0.15  584H :  0.15  743H :  0.15  563H :  0.15  521H :  0.15
  749H :  0.15  581H :  0.15  575H :  0.14  416H :  0.14    6H :  0.14  441H :  0.14  463O :  0.14  344H :  0.14  570H :  0.14  162H :  0.14  149H :  0.13  453H :  0.13
  509H :  0.13  700O :  0.13  675H :  0.13  413H :  0.13  255H :  0.12  390H :  0.12  657H :  0.12  331O :  0.12  285H :  0.12  737H :  0.12  524H :  0.11  108H :  0.11
  206H :  0.11  290H :  0.11  438H :  0.11  489H :  0.11  706O :  0.11  239H :  0.11  269H :  0.11   47H :  0.11  156H :  0.11  314H :  0.11   60H :  0.11   66H :  0.11
  650H :  0.10  236H :  0.10   63H :  0.10  309H :  0.10  324H :  0.10  633H :  0.10  693H :  0.10  320H :  0.10  270H :  0.10   84H :  0.10  372H :  0.10  213H :  0.10
   20H :  0.10  359H :  0.10  188H :  0.09  578H :  0.09  638H :  0.09  402H :  0.09  713H :  0.09  515H :  0.09  665H :  0.09  495H :  0.09  606H :  0.09  717H :  0.09
  567H :  0.09  501H :  0.08  654H :  0.08  329H :  0.08  722H :  0.08  450H :  0.08  186H :  0.08  674H :  0.08  125H :  0.08  608H :  0.08  474H :  0.08  435H :  0.08
  618H :  0.08  755H :  0.08  753H :  0.07  246H :  0.07  530H :  0.07  576H :  0.07
[...]
   371   1 h    0.876 --   370 o    0.810
   372   1 h    0.902 --   370 o    0.883
   373   8 o    1.851 --   374 h    0.851   375 h    0.828
   374   1 h    0.891 --   373 o    0.851
   375   1 h    0.889 --   373 o    0.828
   376   8 o    1.850 --   378 h    0.824   377 h    0.794
   377   1 h    0.880 --   376 o    0.794
   378   1 h    0.879 --   376 o    0.824
   379   8 o    1.847 --   381 h    0.850   380 h    0.836
   380   1 h    0.893 --   379 o    0.836
   381   1 h    0.895 --   379 o    0.850
   382   8 o    1.833 --   384 h    0.870   383 h    0.864
   383   1 h    0.897 --   382 o    0.864
   384   1 h    0.899 --   382 o    0.870
   385   8 o    1.856 --   387 h    0.838   386 h    0.797
   386   1 h    0.878 --   385 o    0.797
   387   1 h    0.881 --   385 o    0.838
   388   8 o    1.844 --   389 h    0.831   390 h    0.830
   389   1 h    0.888 --   388 o    0.831
   390   1 h    0.891 --   388 o    0.830
   391   8 o    1.814 --   393 h    0.862   392 h    0.832
   392   1 h    0.895 --   391 o    0.832
   393   1 h    0.900 --   391 o    0.862
   394   8 o    1.877 --   395 h    0.833   396 h    0.799
   395   1 h    0.886 --   394 o    0.833
   396   1 h    0.873 --   394 o    0.799
   397   8 o    1.841 --   399 h    0.858   398 h    0.856
   398   1 h    0.894 --   397 o    0.856
   399   1 h    0.895 --   397 o    0.858
   400   8 o    1.856 --   402 h    0.850   401 h    0.828
   401   1 h    0.878 --   400 o    0.828
   402   1 h    0.891 --   400 o    0.850
   403   8 o    1.852 --   405 h    0.823   404 h    0.804
   404   1 h    0.877 --   403 o    0.804
   405   1 h    0.890 --   403 o    0.823
   406   8 o    1.854 --   408 h    0.830   407 h    0.782
   407   1 h    0.870 --   406 o    0.782
   408   1 h    0.883 --   406 o    0.830
   409   8 o    1.868 --   410 h    0.877   411 h    0.847
   410   1 h    0.899 --   409 o    0.877
   411   1 h    0.889 --   409 o    0.847
   412   8 o    1.862 --   413 h    0.817   414 h    0.812
   413   1 h    0.887 --   412 o    0.817
   414   1 h    0.884 --   412 o    0.812
   415   8 o    1.842 --   416 h    0.867   417 h    0.847
   416   1 h    0.897 --   415 o    0.867
   417   1 h    0.892 --   415 o    0.847
   418   8 o    1.851 --   419 h    0.878   420 h    0.791
   419   1 h    0.899 --   418 o    0.878
   420   1 h    0.883 --   418 o    0.791
   421   8 o    1.843 --   423 h    0.870   422 h    0.859
   422   1 h    0.893 --   421 o    0.859
   423   1 h    0.895 --   421 o    0.870
   424   8 o    1.856 --   425 h    0.911   426 h    0.803
   425   1 h    0.916 --   424 o    0.911
   426   1 h    0.872 --   424 o    0.803
   427   8 o    1.830 --   428 h    0.852   429 h    0.830
   428   1 h    0.896 --   427 o    0.852
   429   1 h    0.890 --   427 o    0.830
   430   8 o    1.873 --   431 h    0.855   432 h    0.793   459 h    0.100
   431   1 h    0.889 --   430 o    0.855
   432   1 h    0.878 --   430 o    0.793
   433   8 o    1.828 --   435 h    0.857   434 h    0.832
   434   1 h    0.878 --   433 o    0.832
   435   1 h    0.897 --   433 o    0.857
   436   8 o    1.863 --   438 h    0.807   437 h    0.807
   437   1 h    0.884 --   436 o    0.807
   438   1 h    0.875 --   436 o    0.807
   439   8 o    1.869 --   440 h    0.820   441 h    0.815
   440   1 h    0.883 --   439 o    0.820
   441   1 h    0.879 --   439 o    0.815
   442   8 o    1.847 --   444 h    0.874   443 h    0.835
   443   1 h    0.892 --   442 o    0.835
   444   1 h    0.898 --   442 o    0.874
   445   8 o    1.850 --   446 h    0.910   447 h    0.814
   446   1 h    0.917 --   445 o    0.910
   447   1 h    0.880 --   445 o    0.814
   448   8 o    1.874 --   450 h    0.857   449 h    0.855
   449   1 h    0.892 --   448 o    0.855
   450   1 h    0.897 --   448 o    0.857
   451   8 o    1.877 --   452 h    0.854   453 h    0.823
   452   1 h    0.892 --   451 o    0.854
   453   1 h    0.882 --   451 o    0.823
   454   8 o    1.828 --   455 h    0.859   456 h    0.844
   455   1 h    0.898 --   454 o    0.859
   456   1 h    0.894 --   454 o    0.844
   457   8 o    1.822 --   458 h    0.894   459 h    0.767
   458   1 h    0.908 --   457 o    0.894
   459   1 h    0.874 --   457 o    0.767   430 o    0.100
   460   8 o    1.834 --   461 h    0.851   462 h    0.840
   461   1 h    0.894 --   460 o    0.851
   462   1 h    0.888 --   460 o    0.840
   463   8 o    1.845 --   465 h    0.869   464 h    0.858
   464   1 h    0.892 --   463 o    0.858
   465   1 h    0.892 --   463 o    0.869
   466   8 o    1.852 --   468 h    0.865   467 h    0.851
   467   1 h    0.889 --   466 o    0.851
   468   1 h    0.898 --   466 o    0.865
   469   8 o    1.861 --   470 h    0.904   471 h    0.812
   470   1 h    0.908 --   469 o    0.904
   471   1 h    0.880 --   469 o    0.812
   472   8 o    1.858 --   473 h    0.853   474 h    0.842
   473   1 h    0.893 --   472 o    0.853
   474   1 h    0.891 --   472 o    0.842
   475   8 o    1.816 --   476 h    0.884   477 h    0.826
   476   1 h    0.904 --   475 o    0.884
   477   1 h    0.883 --   475 o    0.826
   478   8 o    1.876 --   479 h    0.864   480 h    0.824
   479   1 h    0.895 --   478 o    0.864
   480   1 h    0.883 --   478 o    0.824
   481   8 o    1.877 --   483 h    0.831   482 h    0.818
   482   1 h    0.873 --   481 o    0.818
   483   1 h    0.884 --   481 o    0.831
   484   8 o    1.847 --   485 h    0.836   486 h    0.814
   485   1 h    0.890 --   484 o    0.836
   486   1 h    0.886 --   484 o    0.814
   487   8 o    1.823 --   489 h    0.872   488 h    0.821
   488   1 h    0.885 --   487 o    0.821
   489   1 h    0.904 --   487 o    0.872
   490   8 o    1.869 --   492 h    0.861   491 h    0.812
   491   1 h    0.885 --   490 o    0.812
   492   1 h    0.895 --   490 o    0.861
   493   8 o    1.859 --   494 h    0.804   495 h    0.796
   494   1 h    0.884 --   493 o    0.804
   495   1 h    0.875 --   493 o    0.796
   496   8 o    1.842 --   498 h    0.813   497 h    0.809
   497   1 h    0.881 --   496 o    0.809
   498   1 h    0.877 --   496 o    0.813
   499   8 o    1.850 --   501 h    0.845   500 h    0.824
   500   1 h    0.888 --   499 o    0.824
   501   1 h    0.883 --   499 o    0.845
   502   8 o    1.895 --   504 h    0.858   503 h    0.838   683 h    0.108
   503   1 h    0.886 --   502 o    0.838
   504   1 h    0.890 --   502 o    0.858
   505   8 o    1.865 --   506 h    0.916   507 h    0.832
   506   1 h    0.919 --   505 o    0.916
   507   1 h    0.879 --   505 o    0.832
   508   8 o    1.876 --   510 h    0.809   509 h    0.800
   509   1 h    0.874 --   508 o    0.800
   510   1 h    0.887 --   508 o    0.809
   511   8 o    1.863 --   513 h    0.835   512 h    0.823
   512   1 h    0.881 --   511 o    0.823
   513   1 h    0.882 --   511 o    0.835
   514   8 o    1.879 --   516 h    0.914   515 h    0.773
   515   1 h    0.874 --   514 o    0.773
   516   1 h    0.918 --   514 o    0.914
   517   8 o    1.863 --   518 h    0.813   519 h    0.802
   518   1 h    0.882 --   517 o    0.813
   519   1 h    0.884 --   517 o    0.802
   520   8 o    1.859 --   522 h    0.872   521 h    0.800
   521   1 h    0.873 --   520 o    0.800
   522   1 h    0.899 --   520 o    0.872
   523   8 o    1.820 --   524 h    0.905   525 h    0.817
   524   1 h    0.914 --   523 o    0.905
   525   1 h    0.883 --   523 o    0.817
   526   8 o    1.833 --   528 h    0.869   527 h    0.869
   527   1 h    0.895 --   526 o    0.869
   528   1 h    0.893 --   526 o    0.869
   529   8 o    1.834 --   530 h    0.840   531 h    0.827
   530   1 h    0.886 --   529 o    0.840
   531   1 h    0.877 --   529 o    0.827
   532   8 o    1.830 --   534 h    0.878   533 h    0.811
   533   1 h    0.880 --   532 o    0.811
   534   1 h    0.904 --   532 o    0.878
   535   8 o    1.841 --   537 h    0.877   536 h    0.839
   536   1 h    0.889 --   535 o    0.839
   537   1 h    0.903 --   535 o    0.877
   538   8 o    1.833 --   539 h    0.883   540 h    0.819
   539   1 h    0.902 --   538 o    0.883
   540   1 h    0.877 --   538 o    0.819
   541   8 o    1.861 --   543 h    0.882   542 h    0.797
   542   1 h    0.875 --   541 o    0.797
   543   1 h    0.904 --   541 o    0.882
   544   8 o    1.857 --   546 h    0.865   545 h    0.854
   545   1 h    0.898 --   544 o    0.854
   546   1 h    0.895 --   544 o    0.865
   547   8 o    1.846 --   549 h    0.882   548 h    0.789
   548   1 h    0.878 --   547 o    0.789
   549   1 h    0.903 --   547 o    0.882
   550   8 o    1.825 --   551 h    0.895   552 h    0.830
   551   1 h    0.906 --   550 o    0.895
   552   1 h    0.885 --   550 o    0.830
   553   8 o    1.865 --   555 h    0.879   554 h    0.793
   554   1 h    0.883 --   553 o    0.793
   555   1 h    0.901 --   553 o    0.879
   556   8 o    1.848 --   557 h    0.850   558 h    0.850
   557   1 h    0.893 --   556 o    0.850
   558   1 h    0.896 --   556 o    0.850
   559   8 o    1.868 --   560 h    0.886   561 h    0.814
   560   1 h    0.901 --   559 o    0.886
   561   1 h    0.885 --   559 o    0.814
   562   8 o    1.856 --   564 h    0.857   563 h    0.856
   563   1 h    0.895 --   562 o    0.856
   564   1 h    0.901 --   562 o    0.857
   565   8 o    1.848 --   566 h    0.853   567 h    0.792
   566   1 h    0.888 --   565 o    0.853
   567   1 h    0.876 --   565 o    0.792
   568   8 o    1.845 --   569 h    0.901   570 h    0.790
   569   1 h    0.910 --   568 o    0.901
   570   1 h    0.870 --   568 o    0.790
   571   8 o    1.846 --   573 h    0.863   572 h    0.815
   572   1 h    0.885 --   571 o    0.815
   573   1 h    0.892 --   571 o    0.863
   574   8 o    1.864 --   575 h    0.865   576 h    0.794
   575   1 h    0.891 --   574 o    0.865
   576   1 h    0.877 --   574 o    0.794
   577   8 o    1.872 --   578 h    0.857   579 h    0.819
   578   1 h    0.893 --   577 o    0.857
   579   1 h    0.872 --   577 o    0.819
   580   8 o    1.841 --   582 h    0.835   581 h    0.806
   581   1 h    0.879 --   580 o    0.806
   582   1 h    0.887 --   580 o    0.835
   583   8 o    1.882 --   584 h    0.842   585 h    0.834
   584   1 h    0.887 --   583 o    0.842
   585   1 h    0.884 --   583 o    0.834
   586   8 o    1.816 --   588 h    0.861   587 h    0.824
   587   1 h    0.892 --   586 o    0.824
   588   1 h    0.897 --   586 o    0.861
   589   8 o    1.846 --   590 h    0.848   591 h    0.822
   590   1 h    0.889 --   589 o    0.848
   591   1 h    0.884 --   589 o    0.822
   592   8 o    1.846 --   594 h    0.863   593 h    0.827
   593   1 h    0.890 --   592 o    0.827
   594   1 h    0.898 --   592 o    0.863
   595   8 o    1.848 --   596 h    0.863   597 h    0.809
   596   1 h    0.901 --   595 o    0.863
   597   1 h    0.882 --   595 o    0.809
   598   8 o    1.856 --   600 h    0.852   599 h    0.845
   599   1 h    0.888 --   598 o    0.845
   600   1 h    0.893 --   598 o    0.852
   601   8 o    1.850 --   603 h    0.914   602 h    0.811
   602   1 h    0.876 --   601 o    0.811
   603   1 h    0.918 --   601 o    0.914
   604   8 o    1.873 --   606 h    0.812   605 h    0.804
   605   1 h    0.878 --   604 o    0.804
   606   1 h    0.886 --   604 o    0.812
   607   8 o    1.854 --   609 h    0.909   608 h    0.784
   608   1 h    0.876 --   607 o    0.784
   609   1 h    0.917 --   607 o    0.909
   610   8 o    1.855 --   612 h    0.873   611 h    0.845
   611   1 h    0.895 --   610 o    0.845
   612   1 h    0.903 --   610 o    0.873
   613   8 o    1.861 --   615 h    0.849   614 h    0.807
   614   1 h    0.886 --   613 o    0.807
   615   1 h    0.894 --   613 o    0.849
   616   8 o    1.824 --   617 h    0.868   618 h    0.835
   617   1 h    0.897 --   616 o    0.868
   618   1 h    0.888 --   616 o    0.835
   619   8 o    1.863 --   620 h    0.827   621 h    0.819
   620   1 h    0.880 --   619 o    0.827
   621   1 h    0.882 --   619 o    0.819
   622   8 o    1.864 --   623 h    0.829   624 h    0.817
   623   1 h    0.892 --   622 o    0.829
   624   1 h    0.886 --   622 o    0.817
   625   8 o    1.846 --   626 h    0.891   627 h    0.811
   626   1 h    0.905 --   625 o    0.891
   627   1 h    0.880 --   625 o    0.811
   628   8 o    1.842 --   630 h    0.877   629 h    0.817
   629   1 h    0.887 --   628 o    0.817
   630   1 h    0.900 --   628 o    0.877
   631   8 o    1.844 --   633 h    0.859   632 h    0.835
   632   1 h    0.889 --   631 o    0.835
   633   1 h    0.887 --   631 o    0.859
   634   8 o    1.849 --   635 h    0.887   636 h    0.809
   635   1 h    0.906 --   634 o    0.887
   636   1 h    0.880 --   634 o    0.809
   637   8 o    1.870 --   638 h    0.862   639 h    0.845
   638   1 h    0.894 --   637 o    0.862
   639   1 h    0.895 --   637 o    0.845
   640   8 o    1.830 --   641 h    0.873   642 h    0.799
   641   1 h    0.899 --   640 o    0.873
   642   1 h    0.877 --   640 o    0.799
   643   8 o    1.838 --   644 h    0.839   645 h    0.819
   644   1 h    0.894 --   643 o    0.839
   645   1 h    0.887 --   643 o    0.819
   646   8 o    1.849 --   647 h    0.832   648 h    0.799
   647   1 h    0.894 --   646 o    0.832
   648   1 h    0.882 --   646 o    0.799
   649   8 o    1.862 --   650 h    0.877   651 h    0.835
   650   1 h    0.898 --   649 o    0.877
   651   1 h    0.887 --   649 o    0.835
   652   8 o    1.843 --   653 h    0.906   654 h    0.826
   653   1 h    0.913 --   652 o    0.906
   654   1 h    0.879 --   652 o    0.826
   655   8 o    1.865 --   657 h    0.844   656 h    0.823
   656   1 h    0.879 --   655 o    0.823
   657   1 h    0.896 --   655 o    0.844
   658   8 o    1.807 --   659 h    0.842   660 h    0.817
   659   1 h    0.897 --   658 o    0.842
   660   1 h    0.886 --   658 o    0.817
   661   8 o    1.879 --   663 h    0.863   662 h    0.822
   662   1 h    0.887 --   661 o    0.822
   663   1 h    0.894 --   661 o    0.863
   664   8 o    1.834 --   665 h    0.858   666 h    0.842
   665   1 h    0.891 --   664 o    0.858
   666   1 h    0.893 --   664 o    0.842
   667   8 o    1.871 --   669 h    0.849   668 h    0.802
   668   1 h    0.877 --   667 o    0.802
   669   1 h    0.893 --   667 o    0.849
   670   8 o    1.850 --   672 h    0.849   671 h    0.835
   671   1 h    0.881 --   670 o    0.835
   672   1 h    0.894 --   670 o    0.849
   673   8 o    1.841 --   675 h    0.837   674 h    0.801
   674   1 h    0.878 --   673 o    0.801
   675   1 h    0.893 --   673 o    0.837
   676   8 o    1.870 --   678 h    0.827   677 h    0.805
   677   1 h    0.882 --   676 o    0.805
   678   1 h    0.890 --   676 o    0.827
   679   8 o    1.852 --   681 h    0.813   680 h    0.789
   680   1 h    0.878 --   679 o    0.789
   681   1 h    0.878 --   679 o    0.813
   682   8 o    1.877 --   684 h    0.912   683 h    0.769
   683   1 h    0.878 --   682 o    0.769   502 o    0.108
   684   1 h    0.918 --   682 o    0.912
   685   8 o    1.852 --   687 h    0.812   686 h    0.802
   686   1 h    0.872 --   685 o    0.802
   687   1 h    0.883 --   685 o    0.812
   688   8 o    1.883 --   690 h    0.800   689 h    0.793
   689   1 h    0.881 --   688 o    0.793
   690   1 h    0.880 --   688 o    0.800
   691   8 o    1.833 --   693 h    0.837   692 h    0.815
   692   1 h    0.888 --   691 o    0.815
   693   1 h    0.888 --   691 o    0.837
   694   8 o    1.862 --   696 h    0.806   695 h    0.789
   695   1 h    0.872 --   694 o    0.789
   696   1 h    0.878 --   694 o    0.806
   697   8 o    1.869 --   699 h    0.817   698 h    0.797
   698   1 h    0.878 --   697 o    0.797
   699   1 h    0.887 --   697 o    0.817
   700   8 o    1.818 --   702 h    0.863   701 h    0.855
   701   1 h    0.892 --   700 o    0.855
   702   1 h    0.894 --   700 o    0.863
   703   8 o    1.848 --   705 h    0.832   704 h    0.825
   704   1 h    0.892 --   703 o    0.825
   705   1 h    0.886 --   703 o    0.832
   706   8 o    1.824 --   708 h    0.873   707 h    0.845
   707   1 h    0.894 --   706 o    0.845
   708   1 h    0.897 --   706 o    0.873
   709   8 o    1.853 --   711 h    0.877   710 h    0.836
   710   1 h    0.892 --   709 o    0.836
   711   1 h    0.897 --   709 o    0.877
   712   8 o    1.854 --   713 h    0.917   714 h    0.788
   713   1 h    0.921 --   712 o    0.917
   714   1 h    0.872 --   712 o    0.788
   715   8 o    1.874 --   716 h    0.825   717 h    0.784
   716   1 h    0.878 --   715 o    0.825
   717   1 h    0.872 --   715 o    0.784
   718   8 o    1.850 --   719 h    0.822   720 h    0.795
   719   1 h    0.880 --   718 o    0.822
   720   1 h    0.874 --   718 o    0.795
   721   8 o    1.849 --   723 h    0.889   722 h    0.865
   722   1 h    0.897 --   721 o    0.865
   723   1 h    0.902 --   721 o    0.889
   724   8 o    1.838 --   726 h    0.918   725 h    0.832
   725   1 h    0.884 --   724 o    0.832
   726   1 h    0.923 --   724 o    0.918
   727   8 o    1.843 --   728 h    0.886   729 h    0.807
   728   1 h    0.905 --   727 o    0.886
   729   1 h    0.875 --   727 o    0.807
   730   8 o    1.838 --   731 h    0.873   732 h    0.791
   731   1 h    0.904 --   730 o    0.873
   732   1 h    0.879 --   730 o    0.791
   733   8 o    1.826 --   734 h    0.844   735 h    0.818
   734   1 h    0.882 --   733 o    0.844
   735   1 h    0.894 --   733 o    0.818
   736   8 o    1.855 --   738 h    0.861   737 h    0.841
   737   1 h    0.891 --   736 o    0.841
   738   1 h    0.893 --   736 o    0.861
   739   8 o    1.817 --   741 h    0.847   740 h    0.845
   740   1 h    0.896 --   739 o    0.845
   741   1 h    0.895 --   739 o    0.847
   742   8 o    1.851 --   743 h    0.867   744 h    0.821
   743   1 h    0.897 --   742 o    0.867
   744   1 h    0.884 --   742 o    0.821
   745   8 o    1.857 --   746 h    0.853   747 h    0.843
   746   1 h    0.897 --   745 o    0.853
   747   1 h    0.892 --   745 o    0.843
   748   8 o    1.867 --   749 h    0.864   750 h    0.841
   749   1 h    0.895 --   748 o    0.864
   750   1 h    0.886 --   748 o    0.841
   751   8 o    1.855 --   752 h    0.864   753 h    0.853
   752   1 h    0.882 --   751 o    0.864
   753   1 h    0.882 --   751 o    0.853
   754   8 o    1.850 --   756 h    0.856   755 h    0.815
   755   1 h    0.885 --   754 o    0.815
   756   1 h    0.892 --   754 o    0.856
 ---------------------------------------------------------------------------

Topologies differ in total number of bonds
Writing topology from bond orders to xtbtopo.mol

molecular dipole:
                 x           y           z       tot (Debye)
 q only:        0.432      -2.563      -2.013
   full:        1.120      -3.052      -2.218      10.003
molecular quadrupole (traceless):
                xx          xy          yy          xz          yz          zz
 q only:       -5.934     -22.344      27.713      18.003       6.190     -21.779
  q+dip:       -2.359     -29.257      41.446      18.465      -2.233     -39.087
   full:        0.860     -30.611      40.269      18.214      -3.440     -41.129


           -------------------------------------------------
          | TOTAL ENERGY            -1283.357684703893 Eh   |
          | GRADIENT NORM               0.037222942241 Eh/α |
          | HOMO-LUMO GAP               8.192512436264 eV   |
           -------------------------------------------------

------------------------------------------------------------------------
 * finished run on 2022/11/24 at 09:29:08.454     
------------------------------------------------------------------------
 total:
 * wall-time:     0 d,  0 h,  0 min, 58.382 sec
 *  cpu-time:     0 d,  0 h,  1 min, 13.495 sec
 * ratio c/w:     1.259 speedup
 SCF:
 * wall-time:     0 d,  0 h,  0 min, 57.378 sec
 *  cpu-time:     0 d,  0 h,  1 min, 11.792 sec
 * ratio c/w:     1.251 speedup

