      -----------------------------------------------------------      
     |                   =====================                   |     
     |                           x T B                           |     
     |                   =====================                   |     
     |                         S. Grimme                         |     
     |          Mulliken Center for Theoretical Chemistry        |     
     |                    University of Bonn                     |     
      -----------------------------------------------------------      

   * xtb version 6.5.1 (579679a) compiled by 'ehlert@majestix' on 2022-07-11

   xtb is free software: you can redistribute it and/or modify it under
   the terms of the GNU Lesser General Public License as published by
   the Free Software Foundation, either version 3 of the License, or
   (at your option) any later version.
   
   xtb is distributed in the hope that it will be useful,
   but WITHOUT ANY WARRANTY; without even the implied warranty of
   MERCHANTABILITY or FITNESS FOR A PARTICULAR PURPOSE.  See the
   GNU Lesser General Public License for more details.
   
   Cite this work as:
   * C. Bannwarth, E. Caldeweyher, S. Ehlert, A. Hansen, P. Pracht,
     J. Seibert, S. Spicher, S. Grimme, WIREs Comput. Mol. Sci., 2020, 11,
     e01493. DOI: 10.1002/wcms.1493
   
   for GFN2-xTB:
   * C. Bannwarth, S. Ehlert and S. Grimme., J. Chem. Theory Comput., 2019,
     15, 1652-1671. DOI: 10.1021/acs.jctc.8b01176
   for GFN1-xTB:
   * S. Grimme, C. Bannwarth, P. Shushkov, J. Chem. Theory Comput., 2017,
     13, 1989-2009. DOI: 10.1021/acs.jctc.7b00118
   for GFN0-xTB:
   * P. Pracht, E. Caldeweyher, S. Ehlert, S. Grimme, ChemRxiv, 2019, preprint.
     DOI: 10.26434/chemrxiv.8326202.v1
   for GFN-FF:
   * S. Spicher and S. Grimme, Angew. Chem. Int. Ed., 2020, 59, 15665-15673.
     DOI: 10.1002/anie.202004239
   
   for ALPB and GBSA implicit solvation:
   * S. Ehlert, M. Stahn, S. Spicher, S. Grimme, J. Chem. Theory Comput.,
     2021, 17, 4250-4261. DOI: 10.1021/acs.jctc.1c00471
   
   for DFT-D4:
   * E. Caldeweyher, C. Bannwarth and S. Grimme, J. Chem. Phys., 2017,
     147, 034112. DOI: 10.1063/1.4993215
   * E. Caldeweyher, S. Ehlert, A. Hansen, H. Neugebauer, S. Spicher,
     C. Bannwarth and S. Grimme, J. Chem. Phys., 2019, 150, 154122.
     DOI: 10.1063/1.5090222
   * E. Caldeweyher, J.-M. Mewes, S. Ehlert and S. Grimme, Phys. Chem. Chem. Phys.
     2020, 22, 8499-8512. DOI: 10.1039/D0CP00502A
   
   for sTDA-xTB:
   * S. Grimme and C. Bannwarth, J. Chem. Phys., 2016, 145, 054103.
     DOI: 10.1063/1.4959605
   
   in the mass-spec context:
   * V. Asgeirsson, C. Bauer and S. Grimme, Chem. Sci., 2017, 8, 4879.
     DOI: 10.1039/c7sc00601b
   * J. Koopman and S. Grimme, ACS Omega 2019, 4, 12, 15120-15133.
     DOI: 10.1021/acsomega.9b02011
   
   for metadynamics refer to:
   * S. Grimme, J. Chem. Theory Comput., 2019, 155, 2847-2862
     DOI: 10.1021/acs.jctc.9b00143
   
   for SPH calculations refer to:
   * S. Spicher and S. Grimme, J. Chem. Theory Comput., 2021, 17, 1701-1714
     DOI: 10.1021/acs.jctc.0c01306
   
   with help from (in alphabetical order)
   P. Atkinson, C. Bannwarth, F. Bohle, G. Brandenburg, E. Caldeweyher
   M. Checinski, S. Dohm, S. Ehlert, S. Ehrlich, I. Gerasimov, C. Hölzer
   A. Katbashev, J. Koopman, C. Lavigne, S. Lehtola, F. März, M. Müller,
   F. Musil, H. Neugebauer, J. Pisarek, C. Plett, P. Pracht, F. Pultar,
   J. Seibert, P. Shushkov, S. Spicher, M. Stahn, M. Steiner, T. Strunk,
   J. Stückrath, T. Rose, and J. Unsleber
   
 * started run on 2022/11/24 at 09:27:46.525     

           -------------------------------------------------
          |                Calculation Setup                |
           -------------------------------------------------

          program call               : xtb xtbopt.coord --gfn2 --sp --gbsa water
          hostname                   : cn0341
          coordinate file            : xtbopt.coord
          omp threads                :                     2

   ID    Z sym.   atoms
    1    8 o      1, 4, 7, 10, 13, 16, 19, 22, 25, 28, 31, 34, 37, 40, 43,
                  46, 49, 52, 55, 58, 61, 64, 67, 70, 73, 76, 79, 82, 85, 88,
                  91, 94, 97, 100, 103, 106, 109, 112, 115, 118, 121, 124,
                  127, 130, 133, 136, 139, 142, 145, 148, 151, 154, 157, 160,
                  163, 166, 169, 172, 175, 178, 181, 184, 187, 190, 193, 196,
                  199, 202, 205, 208, 211, 214, 217, 220, 223, 226, 229, 232,
                  235, 238, 241, 244, 247, 250, 253, 256, 259, 262, 265, 268,
                  271, 274, 277, 280, 283, 286, 289, 292, 295, 298, 301, 304,
                  307, 310, 313, 316, 319, 322, 325, 328, 331, 334, 337, 340,
                  343, 346, 349, 352, 355, 358, 361, 364, 367, 370, 373, 376,
                  379, 382, 385, 388, 391, 394, 397, 400, 403, 406, 409, 412,
                  415, 418, 421, 424, 427, 430, 433, 436, 439, 442, 445, 448,
                  451, 454, 457, 460, 463, 466, 469, 472, 475, 478, 481, 484,
                  487, 490, 493, 496, 499, 502, 505, 508, 511, 514, 517, 520,
                  523, 526, 529, 532, 535, 538, 541, 544, 547, 550, 553, 556,
                  559, 562, 565, 568, 571, 574, 577, 580, 583, 586, 589, 592,
                  595, 598, 601, 604, 607, 610, 613, 616, 619, 622, 625, 628,
                  631, 634, 637, 640, 643, 646, 649, 652, 655, 658, 661, 664,
                  667, 670, 673, 676, 679, 682, 685, 688, 691, 694, 697, 700,
                  703, 706, 709, 712, 715, 718, 721, 724, 727, 730, 733, 736,
                  739, 742, 745, 748, 751, 754
    2    1 h      2, 3, 5, 6, 8, 9, 11, 12, 14, 15, 17, 18, 20, 21, 23, 24,
                  26, 27, 29, 30, 32, 33, 35, 36, 38, 39, 41, 42, 44, 45, 47,
                  48, 50, 51, 53, 54, 56, 57, 59, 60, 62, 63, 65, 66, 68, 69,
                  71, 72, 74, 75, 77, 78, 80, 81, 83, 84, 86, 87, 89, 90, 92,
                  93, 95, 96, 98, 99, 101, 102, 104, 105, 107, 108, 110, 111,
                  113, 114, 116, 117, 119, 120, 122, 123, 125, 126, 128, 129,
                  131, 132, 134, 135, 137, 138, 140, 141, 143, 144, 146, 147,
                  149, 150, 152, 153, 155, 156, 158, 159, 161, 162, 164, 165,
                  167, 168, 170, 171, 173, 174, 176, 177, 179, 180, 182, 183,
                  185, 186, 188, 189, 191, 192, 194, 195, 197, 198, 200, 201,
                  203, 204, 206, 207, 209, 210, 212, 213, 215, 216, 218, 219,
                  221, 222, 224, 225, 227, 228, 230, 231, 233, 234, 236, 237,
                  239, 240, 242, 243, 245, 246, 248, 249, 251, 252, 254, 255,
                  257, 258, 260, 261, 263, 264, 266, 267, 269, 270, 272, 273,
                  275, 276, 278, 279, 281, 282, 284, 285, 287, 288, 290, 291,
                  293, 294, 296, 297, 299, 300, 302, 303, 305, 306, 308, 309,
                  311, 312, 314, 315, 317, 318, 320, 321, 323, 324, 326, 327,
                  329, 330, 332, 333, 335, 336, 338, 339, 341, 342, 344, 345,
                  347, 348, 350, 351, 353, 354, 356, 357, 359, 360, 362, 363,
                  365, 366, 368, 369, 371, 372, 374, 375, 377, 378, 380, 381,
                  383, 384, 386, 387, 389, 390, 392, 393, 395, 396, 398, 399,
                  401, 402, 404, 405, 407, 408, 410, 411, 413, 414, 416, 417,
                  419, 420, 422, 423, 425, 426, 428, 429, 431, 432, 434, 435,
                  437, 438, 440, 441, 443, 444, 446, 447, 449, 450, 452, 453,
                  455, 456, 458, 459, 461, 462, 464, 465, 467, 468, 470, 471,
                  473, 474, 476, 477, 479, 480, 482, 483, 485, 486, 488, 489,
                  491, 492, 494, 495, 497, 498, 500, 501, 503, 504, 506, 507,
                  509, 510, 512, 513, 515, 516, 518, 519, 521, 522, 524, 525,
                  527, 528, 530, 531, 533, 534, 536, 537, 539, 540, 542, 543,
                  545, 546, 548, 549, 551, 552, 554, 555, 557, 558, 560, 561,
                  563, 564, 566, 567, 569, 570, 572, 573, 575, 576, 578, 579,
                  581, 582, 584, 585, 587, 588, 590, 591, 593, 594, 596, 597,
                  599, 600, 602, 603, 605, 606, 608, 609, 611, 612, 614, 615,
                  617, 618, 620, 621, 623, 624, 626, 627, 629, 630, 632, 633,
                  635, 636, 638, 639, 641, 642, 644, 645, 647, 648, 650, 651,
                  653, 654, 656, 657, 659, 660, 662, 663, 665, 666, 668, 669,
                  671, 672, 674, 675, 677, 678, 680, 681, 683, 684, 686, 687,
                  689, 690, 692, 693, 695, 696, 698, 699, 701, 702, 704, 705,
                  707, 708, 710, 711, 713, 714, 716, 717, 719, 720, 722, 723,
                  725, 726, 728, 729, 731, 732, 734, 735, 737, 738, 740, 741,
                  743, 744, 746, 747, 749, 750, 752, 753, 755, 756

molecular fragmentation (1/2 indicates fragments):
111222222222222222222222222222222222222222222222222222222222222222222222
222222222222222222222222222222222222222222222222222222222222222222222222
222222222222222222222222222222222222222222222222222222222222222222222222
222222222222222222222222222222222222222222222222222222222222222222222222
222222222222222222222222222222222222222222222222222222222222222222222222
222222222222222222222222222222222222222222222222222222222222222222222222
222222222222222222222222222222222222222222222222222222222222222222222222
222222222222222222222222222222222222222222222222222222222222222222222222
222222222222222222222222222222222222222222222222222222222222222222222222
222222222222222222222222222222222222222222222222222222222222222222222222
222222222222222222222222222222222222
# atoms in fragment 1/2:     3   753
 fragment masses (1/2) :       18.02     4521.84
CMA distance (Bohr)    :  16.338
constraining FC (au)   :  0.0500

           -------------------------------------------------
          |                 G F N 2 - x T B                 |
           -------------------------------------------------

        Reference                      10.1021/acs.jctc.8b01176
      * Hamiltonian:
        H0-scaling (s, p, d)           1.850000    2.230000    2.230000
        zeta-weighting                 0.500000
      * Dispersion:
        s8                             2.700000
        a1                             0.520000
        a2                             5.000000
        s9                             5.000000
      * Repulsion:
        kExp                           1.500000    1.000000
        rExp                           1.000000
      * Coulomb:
        alpha                          2.000000
        third order                    shell-resolved
        anisotropic                    true
        a3                             3.000000
        a5                             4.000000
        cn-shift                       1.200000
        cn-exp                         4.000000
        max-rad                        5.000000

      * Solvation model:               GBSA
        Solvent                        water
        Parameter file                 internal GFN2-xTB/GBSA
        Dielectric constant                8.0200E+01
        Reference state                gsolv [1 M gas/solution]
        Free energy shift                  1.8574E-03 Eh       1.1656E+00 kcal/mol
        Temperature                        2.9815E+02 K
        Density                            1.0000E+00 kg/L
        Solvent mass                       1.8000E+01 g/mol
        Interaction kernel             Still
        Born radius scaling (c1)           1.5524E+00
        Born radii integrator          GBOBC
        Born offset                        2.4628E-02 a0       4.6540E-02 AA
        H-bond correction              true
        Ion screening                  false
        Surface tension                    1.0000E-05 Eh       1.5569E+01 dyn/cm
        Grid points                               230 per atom

          ...................................................
          :                      SETUP                      :
          :.................................................:
          :  # basis functions                1512          :
          :  # atomic orbitals                1512          :
          :  # shells                         1008          :
          :  # electrons                      2016          :
          :  max. iterations                   250          :
          :  Hamiltonian                  GFN2-xTB          :
          :  restarted?                      false          :
          :  GBSA solvation                   true          :
          :  PC potential                    false          :
          :  electronic temp.          300.0000000     K    :
          :  accuracy                    1.0000000          :
          :  -> integral cutoff          0.2500000E+02      :
          :  -> integral neglect         0.1000000E-07      :
          :  -> SCF convergence          0.1000000E-05 Eh   :
          :  -> wf. convergence          0.1000000E-03 e    :
          :  Broyden damping             0.4000000          :
          ...................................................

 iter      E             dE          RMSdq      gap      omega  full diag
   1  -1291.2771510 -0.129128E+04  0.408E+00    8.32       0.0  T
   2  -1291.3575203 -0.803692E-01  0.242E+00    8.15       1.0  T
   3  -1291.3929231 -0.354029E-01  0.222E-01    7.89       1.0  T
   4  -1291.3982127 -0.528958E-02  0.480E-02    7.96       1.0  T
   5  -1291.3983645 -0.151824E-03  0.309E-02    7.94       1.0  T
   6  -1291.3984146 -0.500990E-04  0.372E-03    7.94       1.0  T
   7  -1291.3984162 -0.160790E-05  0.983E-04    7.93       3.7  T
   8  -1291.3984164 -0.136250E-06  0.463E-04    7.93       7.8  T
   9  -1291.3984164 -0.388084E-07  0.147E-04    7.93      24.8  T

   *** convergence criteria satisfied after 9 iterations ***

         #    Occupation            Energy/Eh            Energy/eV
      -------------------------------------------------------------
         1        2.0000           -0.6523259             -17.7507
       ...           ...                  ...                  ...
      1002        2.0000           -0.3567184              -9.7068
      1003        2.0000           -0.3562893              -9.6951
      1004        2.0000           -0.3553786              -9.6703
      1005        2.0000           -0.3553078              -9.6684
      1006        2.0000           -0.3539920              -9.6326
      1007        2.0000           -0.3495187              -9.5109
      1008        2.0000           -0.3478565              -9.4657 (HOMO)
      1009                         -0.0563288              -1.5328 (LUMO)
      1010                         -0.0481564              -1.3104
      1011                         -0.0356604              -0.9704
      1012                         -0.0351077              -0.9553
      1013                         -0.0298401              -0.8120
       ...                                ...                  ...
      1512                          0.4872315              13.2582
      -------------------------------------------------------------
                  HL-Gap            0.2915276 Eh            7.9329 eV
             Fermi-level           -0.2020927 Eh           -5.4992 eV

 SCC (total)                   0 d,  0 h,  0 min, 20.626 sec
 SCC setup                      ...        0 min,  0.117 sec (  0.567%)
 Dispersion                     ...        0 min,  0.109 sec (  0.530%)
 classical contributions        ...        0 min,  0.023 sec (  0.112%)
 integral evaluation            ...        0 min,  0.610 sec (  2.959%)
 iterations                     ...        0 min,  7.399 sec ( 35.872%)
 molecular gradient             ...        0 min, 12.295 sec ( 59.611%)
 printout                       ...        0 min,  0.072 sec (  0.348%)

         :::::::::::::::::::::::::::::::::::::::::::::::::::::
         ::                     SUMMARY                     ::
         :::::::::::::::::::::::::::::::::::::::::::::::::::::
         :: total energy           -1283.620924733104 Eh    ::
         :: total w/o Gsasa/hb     -1283.388326830170 Eh    ::
         :: gradient norm              0.100256999766 Eh/a0 ::
         :: HOMO-LUMO gap              7.932871085803 eV    ::
         ::.................................................::
         :: SCC energy             -1291.398416406755 Eh    ::
         :: -> isotropic ES            7.355222765652 Eh    ::
         :: -> anisotropic ES         -1.660957727766 Eh    ::
         :: -> anisotropic XC         -0.120214713821 Eh    ::
         :: -> dispersion             -0.792929377006 Eh    ::
         :: -> Gsolv                  -0.286246100872 Eh    ::
         ::    -> Gelec               -0.053648197938 Eh    ::
         ::    -> Gsasa                0.006403116110 Eh    ::
         ::    -> Ghb                 -0.240858462170 Eh    ::
         ::    -> Gshift               0.001857443127 Eh    ::
         :: repulsion energy           7.622081936401 Eh    ::
         :: add. restraining           0.000000000000 Eh    ::
         :: total charge              -0.000000000000 e     ::
         :::::::::::::::::::::::::::::::::::::::::::::::::::::

           -------------------------------------------------
          |                Property Printout                |
           -------------------------------------------------

    * Orbital Energies and Occupations

         #    Occupation            Energy/Eh            Energy/eV
      -------------------------------------------------------------
         1        2.0000           -0.6523259             -17.7507
       ...           ...                  ...                  ...
       996        2.0000           -0.3592514              -9.7757
       997        2.0000           -0.3591724              -9.7736
       998        2.0000           -0.3590070              -9.7691
       999        2.0000           -0.3582946              -9.7497
      1000        2.0000           -0.3582354              -9.7481
      1001        2.0000           -0.3571493              -9.7185
      1002        2.0000           -0.3567184              -9.7068
      1003        2.0000           -0.3562893              -9.6951
      1004        2.0000           -0.3553786              -9.6703
      1005        2.0000           -0.3553078              -9.6684
      1006        2.0000           -0.3539920              -9.6326
      1007        2.0000           -0.3495187              -9.5109
      1008        2.0000           -0.3478565              -9.4657 (HOMO)
      1009                         -0.0563288              -1.5328 (LUMO)
      1010                         -0.0481564              -1.3104
      1011                         -0.0356604              -0.9704
      1012                         -0.0351077              -0.9553
      1013                         -0.0298401              -0.8120
      1014                         -0.0223667              -0.6086
      1015                         -0.0183958              -0.5006
      1016                         -0.0091850              -0.2499
      1017                         -0.0077598              -0.2112
      1018                         -0.0059826              -0.1628
      1019                         -0.0028747              -0.0782
       ...                                ...                  ...
      1512                          0.4872315              13.2582
      -------------------------------------------------------------
                  HL-Gap            0.2915276 Eh            7.9329 eV
             Fermi-level           -0.2020927 Eh           -5.4992 eV

     #   Z          covCN         q      C6AA      α(0)
     1   8 o        1.608    -0.660    26.674     6.971
     2   1 h        0.806     0.306     0.704     1.318
     3   1 h        0.802     0.354     0.578     1.195
     4   8 o        1.608    -0.698    27.656     7.098
     5   1 h        0.804     0.352     0.585     1.201
     6   1 h        0.804     0.330     0.637     1.254
     7   8 o        1.606    -0.693    27.530     7.081
     8   1 h        0.803     0.358     0.571     1.187
     9   1 h        0.803     0.354     0.578     1.195
    10   8 o        1.608    -0.683    27.275     7.049
    11   1 h        0.803     0.354     0.579     1.195
    12   1 h        0.805     0.336     0.623     1.240
    13   8 o        1.606    -0.709    27.944     7.134
    14   1 h        0.803     0.352     0.585     1.201
    15   1 h        0.803     0.343     0.604     1.221
    16   8 o        1.607    -0.685    27.315     7.054
    17   1 h        0.804     0.319     0.666     1.282
    18   1 h        0.803     0.356     0.575     1.191
    19   8 o        1.608    -0.691    27.486     7.076
    20   1 h        0.804     0.348     0.593     1.210
    21   1 h        0.804     0.361     0.563     1.179
    22   8 o        1.608    -0.664    26.775     6.984
    23   1 h        0.804     0.341     0.610     1.226
    24   1 h        0.804     0.354     0.579     1.196
    25   8 o        1.609    -0.688    27.381     7.062
    26   1 h        0.804     0.357     0.572     1.188
    27   1 h        0.805     0.326     0.648     1.264
    28   8 o        1.607    -0.693    27.539     7.083
    29   1 h        0.804     0.355     0.577     1.193
    30   1 h        0.803     0.345     0.599     1.216
    31   8 o        1.608    -0.665    26.799     6.987
    32   1 h        0.803     0.364     0.556     1.172
    33   1 h        0.804     0.329     0.640     1.256
    34   8 o        1.608    -0.687    27.374     7.061
    35   1 h        0.805     0.341     0.609     1.226
    36   1 h        0.803     0.352     0.583     1.200
    37   8 o        1.608    -0.694    27.556     7.085
    38   1 h        0.804     0.330     0.638     1.255
    39   1 h        0.804     0.360     0.565     1.181
    40   8 o        1.608    -0.692    27.500     7.078
    41   1 h        0.804     0.344     0.602     1.218
    42   1 h        0.803     0.350     0.588     1.204
    43   8 o        1.608    -0.689    27.418     7.067
    44   1 h        0.803     0.361     0.564     1.180
    45   1 h        0.804     0.344     0.602     1.219
    46   8 o        1.605    -0.689    27.426     7.068
    47   1 h        0.804     0.325     0.649     1.266
    48   1 h        0.802     0.361     0.563     1.179
    49   8 o        1.607    -0.689    27.424     7.068
    50   1 h        0.803     0.353     0.582     1.198
    51   1 h        0.803     0.355     0.577     1.193
    52   8 o        1.608    -0.685    27.306     7.053
    53   1 h        0.804     0.341     0.609     1.226
    54   1 h        0.804     0.347     0.596     1.212
    55   8 o        1.606    -0.694    27.566     7.086
    56   1 h        0.803     0.345     0.600     1.217
    57   1 h        0.803     0.357     0.571     1.187
    58   8 o        1.608    -0.703    27.793     7.115
    59   1 h        0.803     0.346     0.597     1.214
    60   1 h        0.805     0.352     0.584     1.200
    61   8 o        1.609    -0.662    26.715     6.976
    62   1 h        0.804     0.357     0.572     1.188
    63   1 h        0.805     0.338     0.616     1.233
    64   8 o        1.604    -0.731    28.559     7.213
    65   1 h        0.803     0.351     0.586     1.202
    66   1 h        0.802     0.360     0.567     1.182
    67   8 o        1.603    -0.694    27.555     7.084
    68   1 h        0.805     0.338     0.618     1.235
    69   1 h        0.800     0.357     0.572     1.189
    70   8 o        1.608    -0.701    27.744     7.109
    71   1 h        0.803     0.347     0.596     1.213
    72   1 h        0.805     0.344     0.602     1.219
    73   8 o        1.608    -0.696    27.597     7.090
    74   1 h        0.804     0.336     0.622     1.239
    75   1 h        0.804     0.366     0.553     1.168
    76   8 o        1.607    -0.688    27.389     7.063
    77   1 h        0.803     0.346     0.597     1.214
    78   1 h        0.804     0.349     0.591     1.208
    79   8 o        1.605    -0.706    27.861     7.124
    80   1 h        0.801     0.368     0.548     1.164
    81   1 h        0.804     0.323     0.655     1.271
    82   8 o        1.606    -0.701    27.727     7.107
    83   1 h        0.803     0.349     0.590     1.206
    84   1 h        0.803     0.357     0.573     1.189
    85   8 o        1.607    -0.682    27.232     7.043
    86   1 h        0.803     0.348     0.593     1.210
    87   1 h        0.804     0.323     0.656     1.272
    88   8 o        1.606    -0.682    27.251     7.045
    89   1 h        0.803     0.356     0.574     1.190
    90   1 h        0.804     0.328     0.644     1.260
    91   8 o        1.605    -0.702    27.767     7.112
    92   1 h        0.802     0.350     0.588     1.205
    93   1 h        0.804     0.320     0.665     1.281
    94   8 o        1.606    -0.670    26.918     7.002
    95   1 h        0.804     0.321     0.660     1.276
    96   1 h        0.803     0.343     0.605     1.222
    97   8 o        1.608    -0.698    27.670     7.099
    98   1 h        0.804     0.357     0.571     1.187
    99   1 h        0.804     0.346     0.598     1.215
   100   8 o        1.608    -0.665    26.797     6.987
   101   1 h        0.804     0.346     0.597     1.213
   102   1 h        0.803     0.327     0.644     1.261
   103   8 o        1.610    -0.688    27.389     7.063
   104   1 h        0.805     0.340     0.612     1.229
   105   1 h        0.804     0.337     0.619     1.236
   106   8 o        1.607    -0.672    26.971     7.009
   107   1 h        0.803     0.328     0.642     1.258
   108   1 h        0.804     0.335     0.624     1.241
   109   8 o        1.607    -0.677    27.119     7.028
   110   1 h        0.803     0.355     0.577     1.193
   111   1 h        0.803     0.330     0.636     1.253
   112   8 o        1.609    -0.674    27.027     7.017
   113   1 h        0.805     0.338     0.617     1.234
   114   1 h        0.805     0.343     0.604     1.221
   115   8 o        1.609    -0.680    27.172     7.035
   116   1 h        0.805     0.340     0.612     1.229
   117   1 h        0.804     0.349     0.590     1.207
   118   8 o        1.608    -0.682    27.249     7.045
   119   1 h        0.804     0.348     0.593     1.210
   120   1 h        0.803     0.352     0.583     1.200
   121   8 o        1.608    -0.673    27.001     7.013
   122   1 h        0.805     0.315     0.679     1.294
   123   1 h        0.803     0.367     0.551     1.166
   124   8 o        1.609    -0.672    26.966     7.009
   125   1 h        0.804     0.321     0.661     1.277
   126   1 h        0.804     0.354     0.579     1.196
   127   8 o        1.610    -0.693    27.536     7.082
   128   1 h        0.804     0.345     0.600     1.216
   129   1 h        0.804     0.347     0.596     1.213
   130   8 o        1.607    -0.693    27.537     7.082
   131   1 h        0.803     0.336     0.621     1.238
   132   1 h        0.804     0.346     0.599     1.215
   133   8 o        1.605    -0.708    27.924     7.132
   134   1 h        0.803     0.335     0.624     1.241
   135   1 h        0.802     0.370     0.544     1.159
   136   8 o        1.608    -0.689    27.427     7.068
   137   1 h        0.803     0.352     0.584     1.201
   138   1 h        0.805     0.353     0.581     1.197
   139   8 o        1.608    -0.701    27.725     7.107
   140   1 h        0.804     0.347     0.595     1.211
   141   1 h        0.803     0.364     0.557     1.172
   142   8 o        1.608    -0.686    27.330     7.056
   143   1 h        0.803     0.335     0.624     1.241
   144   1 h        0.804     0.355     0.577     1.193
   145   8 o        1.608    -0.652    26.468     6.944
   146   1 h        0.805     0.311     0.690     1.304
   147   1 h        0.803     0.332     0.633     1.250
   148   8 o        1.607    -0.674    27.017     7.015
   149   1 h        0.804     0.333     0.629     1.246
   150   1 h        0.803     0.326     0.647     1.264
   151   8 o        1.607    -0.697    27.642     7.096
   152   1 h        0.803     0.340     0.611     1.228
   153   1 h        0.804     0.353     0.581     1.198
   154   8 o        1.608    -0.688    27.393     7.064
   155   1 h        0.803     0.338     0.618     1.235
   156   1 h        0.804     0.336     0.623     1.239
   157   8 o        1.607    -0.683    27.274     7.048
   158   1 h        0.804     0.338     0.618     1.234
   159   1 h        0.802     0.339     0.614     1.231
   160   8 o        1.607    -0.680    27.197     7.039
   161   1 h        0.804     0.323     0.656     1.272
   162   1 h        0.803     0.360     0.566     1.182
   163   8 o        1.607    -0.696    27.612     7.092
   164   1 h        0.804     0.331     0.635     1.251
   165   1 h        0.803     0.358     0.570     1.186
   166   8 o        1.609    -0.685    27.324     7.055
   167   1 h        0.804     0.338     0.617     1.233
   168   1 h        0.804     0.347     0.596     1.213
   169   8 o        1.607    -0.688    27.394     7.064
   170   1 h        0.803     0.348     0.593     1.209
   171   1 h        0.804     0.346     0.598     1.215
   172   8 o        1.609    -0.694    27.542     7.083
   173   1 h        0.804     0.357     0.572     1.188
   174   1 h        0.805     0.348     0.594     1.210
   175   8 o        1.608    -0.655    26.541     6.953
   176   1 h        0.804     0.340     0.612     1.228
   177   1 h        0.804     0.341     0.610     1.227
   178   8 o        1.608    -0.656    26.560     6.956
   179   1 h        0.806     0.314     0.679     1.294
   180   1 h        0.803     0.354     0.579     1.196
   181   8 o        1.606    -0.689    27.410     7.066
   182   1 h        0.804     0.320     0.663     1.279
   183   1 h        0.803     0.367     0.550     1.165
   184   8 o        1.608    -0.667    26.857     6.994
   185   1 h        0.803     0.354     0.578     1.194
   186   1 h        0.805     0.337     0.619     1.236
   187   8 o        1.608    -0.680    27.194     7.038
   188   1 h        0.805     0.314     0.679     1.295
   189   1 h        0.803     0.363     0.560     1.175
   190   8 o        1.606    -0.671    26.960     7.008
   191   1 h        0.803     0.328     0.642     1.259
   192   1 h        0.803     0.337     0.620     1.237
   193   8 o        1.607    -0.690    27.450     7.071
   194   1 h        0.804     0.338     0.618     1.235
   195   1 h        0.803     0.357     0.572     1.189
   196   8 o        1.608    -0.689    27.418     7.067
   197   1 h        0.804     0.334     0.628     1.245
   198   1 h        0.804     0.352     0.584     1.200
   199   8 o        1.607    -0.691    27.463     7.073
   200   1 h        0.803     0.360     0.566     1.182
   201   1 h        0.804     0.322     0.659     1.276
   202   8 o        1.609    -0.668    26.873     6.996
   203   1 h        0.804     0.356     0.574     1.190
   204   1 h        0.805     0.355     0.577     1.193
   205   8 o        1.609    -0.682    27.237     7.044
   206   1 h        0.804     0.348     0.594     1.210
   207   1 h        0.804     0.314     0.679     1.295
   208   8 o        1.609    -0.679    27.159     7.034
   209   1 h        0.806     0.308     0.696     1.310
   210   1 h        0.803     0.354     0.580     1.196
   211   8 o        1.607    -0.661    26.687     6.972
   212   1 h        0.802     0.340     0.613     1.230
   213   1 h        0.805     0.323     0.654     1.271
   214   8 o        1.607    -0.692    27.509     7.079
   215   1 h        0.803     0.346     0.598     1.215
   216   1 h        0.804     0.352     0.583     1.199
   217   8 o        1.608    -0.690    27.445     7.071
   218   1 h        0.803     0.348     0.592     1.209
   219   1 h        0.805     0.337     0.620     1.237
   220   8 o        1.607    -0.677    27.114     7.028
   221   1 h        0.803     0.356     0.575     1.192
   222   1 h        0.804     0.323     0.657     1.273
   223   8 o        1.608    -0.685    27.309     7.053
   224   1 h        0.803     0.363     0.560     1.175
   225   1 h        0.805     0.344     0.603     1.220
   226   8 o        1.608    -0.677    27.116     7.028
   227   1 h        0.804     0.334     0.628     1.245
   228   1 h        0.804     0.363     0.559     1.174
   229   8 o        1.609    -0.659    26.651     6.968
   230   1 h        0.804     0.325     0.650     1.266
   231   1 h        0.804     0.338     0.617     1.233
   232   8 o        1.605    -0.693    27.517     7.080
   233   1 h        0.803     0.361     0.564     1.180
   234   1 h        0.803     0.331     0.636     1.253
   235   8 o        1.609    -0.652    26.463     6.943
   236   1 h        0.803     0.368     0.548     1.163
   237   1 h        0.806     0.308     0.697     1.311
   238   8 o        1.607    -0.664    26.768     6.983
   239   1 h        0.805     0.329     0.639     1.256
   240   1 h        0.802     0.341     0.611     1.228
   241   8 o        1.608    -0.668    26.866     6.996
   242   1 h        0.803     0.351     0.586     1.203
   243   1 h        0.805     0.329     0.640     1.256
   244   8 o        1.607    -0.688    27.400     7.065
   245   1 h        0.803     0.360     0.565     1.180
   246   1 h        0.804     0.326     0.647     1.263
   247   8 o        1.609    -0.675    27.064     7.021
   248   1 h        0.804     0.342     0.607     1.224
   249   1 h        0.805     0.331     0.634     1.251
   250   8 o        1.609    -0.675    27.064     7.021
   251   1 h        0.805     0.332     0.633     1.250
   252   1 h        0.804     0.333     0.629     1.246
   253   8 o        1.608    -0.684    27.284     7.050
   254   1 h        0.803     0.356     0.575     1.192
   255   1 h        0.804     0.354     0.579     1.195
   256   8 o        1.609    -0.658    26.610     6.962
   257   1 h        0.805     0.317     0.672     1.288
   258   1 h        0.804     0.335     0.624     1.241
   259   8 o        1.610    -0.631    25.946     6.875
   260   1 h        0.804     0.348     0.593     1.209
   261   1 h        0.806     0.310     0.691     1.305
   262   8 o        1.607    -0.677    27.103     7.026
   263   1 h        0.805     0.326     0.648     1.264
   264   1 h        0.802     0.349     0.590     1.207
   265   8 o        1.607    -0.685    27.314     7.054
   266   1 h        0.803     0.364     0.558     1.173
   267   1 h        0.804     0.324     0.654     1.270
   268   8 o        1.607    -0.664    26.769     6.983
   269   1 h        0.802     0.350     0.589     1.206
   270   1 h        0.806     0.307     0.700     1.314
   271   8 o        1.607    -0.683    27.269     7.048
   272   1 h        0.804     0.356     0.575     1.191
   273   1 h        0.803     0.345     0.600     1.217
   274   8 o        1.608    -0.668    26.874     6.997
   275   1 h        0.803     0.354     0.578     1.194
   276   1 h        0.805     0.326     0.647     1.263
   277   8 o        1.608    -0.683    27.262     7.047
   278   1 h        0.805     0.337     0.620     1.237
   279   1 h        0.803     0.364     0.557     1.173
   280   8 o        1.608    -0.675    27.057     7.020
   281   1 h        0.803     0.359     0.568     1.184
   282   1 h        0.803     0.341     0.611     1.228
   283   8 o        1.608    -0.673    27.009     7.014
   284   1 h        0.803     0.357     0.572     1.189
   285   1 h        0.805     0.343     0.604     1.220
   286   8 o        1.608    -0.685    27.314     7.054
   287   1 h        0.804     0.344     0.601     1.218
   288   1 h        0.804     0.342     0.607     1.224
   289   8 o        1.607    -0.703    27.779     7.113
   290   1 h        0.803     0.346     0.597     1.214
   291   1 h        0.804     0.327     0.644     1.261
   292   8 o        1.610    -0.662    26.715     6.976
   293   1 h        0.805     0.325     0.651     1.267
   294   1 h        0.805     0.326     0.648     1.265
   295   8 o        1.606    -0.680    27.176     7.036
   296   1 h        0.803     0.353     0.582     1.198
   297   1 h        0.803     0.318     0.669     1.285
   298   8 o        1.608    -0.689    27.408     7.066
   299   1 h        0.804     0.335     0.624     1.241
   300   1 h        0.804     0.350     0.587     1.204
   301   8 o        1.607    -0.666    26.827     6.990
   302   1 h        0.805     0.305     0.707     1.321
   303   1 h        0.802     0.357     0.573     1.189
   304   8 o        1.609    -0.677    27.103     7.026
   305   1 h        0.805     0.322     0.658     1.274
   306   1 h        0.804     0.354     0.578     1.194
   307   8 o        1.608    -0.686    27.346     7.058
   308   1 h        0.803     0.362     0.561     1.176
   309   1 h        0.805     0.345     0.599     1.216
   310   8 o        1.609    -0.684    27.300     7.052
   311   1 h        0.803     0.359     0.567     1.183
   312   1 h        0.804     0.325     0.650     1.266
   313   8 o        1.607    -0.678    27.138     7.031
   314   1 h        0.804     0.328     0.642     1.258
   315   1 h        0.803     0.332     0.632     1.249
   316   8 o        1.607    -0.686    27.340     7.057
   317   1 h        0.803     0.341     0.610     1.227
   318   1 h        0.804     0.333     0.630     1.246
   319   8 o        1.605    -0.722    28.307     7.181
   320   1 h        0.803     0.353     0.581     1.198
   321   1 h        0.804     0.355     0.578     1.194
   322   8 o        1.608    -0.679    27.150     7.032
   323   1 h        0.805     0.356     0.574     1.190
   324   1 h        0.803     0.334     0.628     1.245
   325   8 o        1.607    -0.690    27.459     7.072
   326   1 h        0.803     0.350     0.589     1.206
   327   1 h        0.804     0.322     0.658     1.274
   328   8 o        1.607    -0.659    26.649     6.967
   329   1 h        0.804     0.333     0.629     1.246
   330   1 h        0.804     0.335     0.625     1.242
   331   8 o        1.606    -0.707    27.902     7.129
   332   1 h        0.803     0.361     0.564     1.180
   333   1 h        0.804     0.329     0.640     1.256
   334   8 o        1.604    -0.685    27.323     7.055
   335   1 h        0.801     0.370     0.545     1.160
   336   1 h        0.805     0.308     0.697     1.312
   337   8 o        1.608    -0.686    27.354     7.059
   338   1 h        0.803     0.349     0.590     1.207
   339   1 h        0.804     0.357     0.572     1.188
   340   8 o        1.609    -0.667    26.858     6.995
   341   1 h        0.804     0.346     0.598     1.214
   342   1 h        0.805     0.314     0.680     1.295
   343   8 o        1.608    -0.692    27.491     7.077
   344   1 h        0.804     0.340     0.612     1.229
   345   1 h        0.804     0.341     0.609     1.226
   346   8 o        1.608    -0.667    26.844     6.993
   347   1 h        0.803     0.332     0.632     1.249
   348   1 h        0.804     0.359     0.567     1.183
   349   8 o        1.608    -0.682    27.228     7.043
   350   1 h        0.803     0.345     0.601     1.218
   351   1 h        0.804     0.334     0.628     1.245
   352   8 o        1.607    -0.697    27.625     7.094
   353   1 h        0.802     0.354     0.579     1.195
   354   1 h        0.805     0.327     0.644     1.261
   355   8 o        1.606    -0.685    27.326     7.055
   356   1 h        0.802     0.370     0.544     1.159
   357   1 h        0.805     0.321     0.661     1.277
   358   8 o        1.608    -0.687    27.368     7.061
   359   1 h        0.804     0.340     0.612     1.229
   360   1 h        0.804     0.355     0.577     1.193
   361   8 o        1.607    -0.683    27.270     7.048
   362   1 h        0.803     0.340     0.612     1.229
   363   1 h        0.805     0.323     0.656     1.273
   364   8 o        1.608    -0.700    27.702     7.104
   365   1 h        0.804     0.334     0.628     1.244
   366   1 h        0.804     0.358     0.570     1.186
   367   8 o        1.607    -0.706    27.872     7.125
   368   1 h        0.804     0.328     0.642     1.259
   369   1 h        0.803     0.356     0.574     1.190
   370   8 o        1.608    -0.686    27.348     7.058
   371   1 h        0.803     0.366     0.553     1.168
   372   1 h        0.805     0.323     0.655     1.271
   373   8 o        1.608    -0.673    27.011     7.014
   374   1 h        0.804     0.333     0.629     1.246
   375   1 h        0.803     0.336     0.623     1.239
   376   8 o        1.606    -0.686    27.341     7.057
   377   1 h        0.803     0.337     0.620     1.237
   378   1 h        0.804     0.351     0.586     1.203
   379   8 o        1.608    -0.674    27.024     7.016
   380   1 h        0.804     0.332     0.631     1.248
   381   1 h        0.804     0.329     0.641     1.258
   382   8 o        1.609    -0.667    26.844     6.993
   383   1 h        0.805     0.334     0.626     1.243
   384   1 h        0.805     0.326     0.648     1.264
   385   8 o        1.607    -0.689    27.432     7.069
   386   1 h        0.803     0.355     0.578     1.194
   387   1 h        0.804     0.344     0.602     1.219
   388   8 o        1.607    -0.681    27.221     7.042
   389   1 h        0.804     0.334     0.626     1.243
   390   1 h        0.803     0.335     0.624     1.241
   391   8 o        1.607    -0.688    27.404     7.065
   392   1 h        0.803     0.331     0.634     1.251
   393   1 h        0.804     0.325     0.650     1.266
   394   8 o        1.608    -0.680    27.184     7.037
   395   1 h        0.804     0.335     0.626     1.243
   396   1 h        0.803     0.366     0.552     1.167
   397   8 o        1.609    -0.680    27.188     7.037
   398   1 h        0.804     0.336     0.623     1.239
   399   1 h        0.804     0.339     0.616     1.233
   400   8 o        1.608    -0.688    27.400     7.065
   401   1 h        0.804     0.364     0.556     1.171
   402   1 h        0.804     0.332     0.632     1.248
   403   8 o        1.604    -0.709    27.942     7.134
   404   1 h        0.802     0.365     0.554     1.169
   405   1 h        0.803     0.327     0.645     1.262
   406   8 o        1.606    -0.694    27.550     7.084
   407   1 h        0.803     0.362     0.561     1.176
   408   1 h        0.804     0.335     0.624     1.241
   409   8 o        1.609    -0.667    26.835     6.992
   410   1 h        0.805     0.332     0.632     1.248
   411   1 h        0.804     0.344     0.603     1.220
   412   8 o        1.606    -0.683    27.266     7.047
   413   1 h        0.803     0.326     0.648     1.265
   414   1 h        0.803     0.351     0.586     1.203
   415   8 o        1.608    -0.682    27.243     7.044
   416   1 h        0.805     0.330     0.638     1.255
   417   1 h        0.804     0.344     0.602     1.219
   418   8 o        1.607    -0.659    26.652     6.968
   419   1 h        0.805     0.320     0.664     1.280
   420   1 h        0.802     0.339     0.616     1.233
   421   8 o        1.609    -0.661    26.702     6.974
   422   1 h        0.804     0.336     0.622     1.239
   423   1 h        0.805     0.331     0.634     1.251
   424   8 o        1.608    -0.651    26.437     6.940
   425   1 h        0.806     0.309     0.695     1.309
   426   1 h        0.802     0.353     0.581     1.197
   427   8 o        1.607    -0.710    27.986     7.140
   428   1 h        0.804     0.335     0.624     1.240
   429   1 h        0.803     0.345     0.601     1.218
   430   8 o        1.610    -0.674    27.015     7.015
   431   1 h        0.805     0.329     0.641     1.257
   432   1 h        0.803     0.359     0.569     1.185
   433   8 o        1.609    -0.683    27.268     7.048
   434   1 h        0.804     0.361     0.563     1.178
   435   1 h        0.804     0.322     0.658     1.275
   436   8 o        1.607    -0.678    27.138     7.031
   437   1 h        0.803     0.332     0.632     1.249
   438   1 h        0.803     0.354     0.580     1.196
   439   8 o        1.606    -0.698    27.659     7.098
   440   1 h        0.804     0.353     0.581     1.198
   441   1 h        0.803     0.350     0.590     1.206
   442   8 o        1.609    -0.679    27.163     7.034
   443   1 h        0.803     0.340     0.613     1.230
   444   1 h        0.805     0.332     0.632     1.249
   445   8 o        1.609    -0.641    26.199     6.908
   446   1 h        0.806     0.303     0.711     1.324
   447   1 h        0.803     0.342     0.607     1.224
   448   8 o        1.609    -0.675    27.045     7.019
   449   1 h        0.804     0.345     0.601     1.217
   450   1 h        0.804     0.335     0.624     1.241
   451   8 o        1.608    -0.664    26.761     6.982
   452   1 h        0.805     0.332     0.632     1.249
   453   1 h        0.803     0.346     0.597     1.214
   454   8 o        1.608    -0.684    27.291     7.051
   455   1 h        0.804     0.330     0.637     1.254
   456   1 h        0.804     0.332     0.632     1.249
   457   8 o        1.604    -0.704    27.825     7.119
   458   1 h        0.805     0.307     0.701     1.315
   459   1 h        0.802     0.367     0.551     1.166
   460   8 o        1.608    -0.677    27.096     7.025
   461   1 h        0.805     0.335     0.626     1.243
   462   1 h        0.804     0.340     0.612     1.229
   463   8 o        1.610    -0.643    26.245     6.914
   464   1 h        0.805     0.329     0.641     1.257
   465   1 h        0.805     0.331     0.635     1.252
   466   8 o        1.609    -0.684    27.298     7.052
   467   1 h        0.804     0.347     0.595     1.211
   468   1 h        0.804     0.336     0.623     1.240
   469   8 o        1.608    -0.655    26.551     6.954
   470   1 h        0.805     0.314     0.681     1.296
   471   1 h        0.803     0.352     0.584     1.200
   472   8 o        1.609    -0.646    26.315     6.924
   473   1 h        0.805     0.326     0.648     1.265
   474   1 h        0.804     0.326     0.647     1.263
   475   8 o        1.610    -0.668    26.882     6.998
   476   1 h        0.806     0.310     0.690     1.305
   477   1 h        0.804     0.350     0.588     1.204
   478   8 o        1.610    -0.682    27.237     7.044
   479   1 h        0.805     0.339     0.616     1.232
   480   1 h        0.803     0.351     0.585     1.201
   481   8 o        1.608    -0.679    27.158     7.033
   482   1 h        0.804     0.369     0.547     1.161
   483   1 h        0.804     0.337     0.621     1.238
   484   8 o        1.606    -0.718    28.185     7.165
   485   1 h        0.803     0.345     0.601     1.218
   486   1 h        0.803     0.349     0.591     1.208
   487   8 o        1.608    -0.700    27.724     7.106
   488   1 h        0.803     0.355     0.577     1.193
   489   1 h        0.805     0.317     0.672     1.288
   490   8 o        1.607    -0.661    26.687     6.972
   491   1 h        0.802     0.334     0.628     1.245
   492   1 h        0.805     0.333     0.629     1.246
   493   8 o        1.606    -0.690    27.444     7.070
   494   1 h        0.803     0.335     0.626     1.243
   495   1 h        0.803     0.355     0.578     1.194
   496   8 o        1.608    -0.702    27.758     7.111
   497   1 h        0.804     0.346     0.598     1.215
   498   1 h        0.803     0.358     0.571     1.187
   499   8 o        1.608    -0.685    27.303     7.052
   500   1 h        0.803     0.327     0.646     1.262
   501   1 h        0.804     0.357     0.571     1.187
   502   8 o        1.611    -0.680    27.191     7.038
   503   1 h        0.803     0.354     0.580     1.196
   504   1 h        0.804     0.346     0.597     1.214
   505   8 o        1.609    -0.644    26.276     6.918
   506   1 h        0.806     0.311     0.689     1.304
   507   1 h        0.803     0.349     0.592     1.208
   508   8 o        1.604    -0.707    27.906     7.130
   509   1 h        0.802     0.368     0.548     1.163
   510   1 h        0.802     0.335     0.625     1.242
   511   8 o        1.608    -0.679    27.162     7.034
   512   1 h        0.804     0.358     0.570     1.186
   513   1 h        0.804     0.336     0.621     1.238
   514   8 o        1.605    -0.657    26.606     6.962
   515   1 h        0.801     0.352     0.583     1.199
   516   1 h        0.806     0.307     0.699     1.314
   517   8 o        1.606    -0.704    27.826     7.119
   518   1 h        0.804     0.349     0.591     1.207
   519   1 h        0.803     0.346     0.598     1.214
   520   8 o        1.607    -0.678    27.141     7.031
   521   1 h        0.802     0.367     0.550     1.165
   522   1 h        0.805     0.317     0.673     1.289
   523   8 o        1.609    -0.673    27.011     7.014
   524   1 h        0.806     0.306     0.703     1.317
   525   1 h        0.803     0.351     0.586     1.203
   526   8 o        1.609    -0.666    26.814     6.989
   527   1 h        0.805     0.334     0.626     1.243
   528   1 h        0.805     0.337     0.621     1.237
   529   8 o        1.607    -0.696    27.598     7.090
   530   1 h        0.804     0.339     0.615     1.232
   531   1 h        0.803     0.363     0.559     1.174
   532   8 o        1.607    -0.688    27.384     7.063
   533   1 h        0.803     0.357     0.571     1.187
   534   1 h        0.805     0.319     0.666     1.282
   535   8 o        1.608    -0.673    27.009     7.014
   536   1 h        0.804     0.338     0.616     1.233
   537   1 h        0.805     0.327     0.646     1.263
   538   8 o        1.608    -0.679    27.152     7.033
   539   1 h        0.805     0.313     0.683     1.298
   540   1 h        0.803     0.364     0.557     1.173
   541   8 o        1.607    -0.666    26.834     6.991
   542   1 h        0.802     0.356     0.574     1.191
   543   1 h        0.805     0.315     0.678     1.293
   544   8 o        1.609    -0.675    27.058     7.020
   545   1 h        0.804     0.334     0.626     1.243
   546   1 h        0.805     0.338     0.616     1.233
   547   8 o        1.606    -0.697    27.639     7.095
   548   1 h        0.801     0.359     0.568     1.184
   549   1 h        0.805     0.321     0.660     1.276
   550   8 o        1.609    -0.665    26.796     6.986
   551   1 h        0.805     0.313     0.684     1.299
   552   1 h        0.804     0.350     0.589     1.206
   553   8 o        1.606    -0.663    26.745     6.980
   554   1 h        0.802     0.341     0.609     1.226
   555   1 h        0.805     0.322     0.658     1.274
   556   8 o        1.608    -0.682    27.225     7.042
   557   1 h        0.804     0.338     0.617     1.234
   558   1 h        0.804     0.333     0.629     1.246
   559   8 o        1.608    -0.649    26.397     6.934
   560   1 h        0.805     0.321     0.662     1.278
   561   1 h        0.803     0.338     0.618     1.235
   562   8 o        1.608    -0.685    27.314     7.054
   563   1 h        0.804     0.338     0.618     1.235
   564   1 h        0.804     0.333     0.629     1.246
   565   8 o        1.607    -0.683    27.264     7.047
   566   1 h        0.805     0.337     0.619     1.236
   567   1 h        0.802     0.354     0.579     1.196
   568   8 o        1.607    -0.680    27.179     7.036
   569   1 h        0.805     0.307     0.701     1.315
   570   1 h        0.802     0.370     0.544     1.159
   571   8 o        1.607    -0.680    27.194     7.038
   572   1 h        0.803     0.345     0.601     1.218
   573   1 h        0.805     0.330     0.639     1.255
   574   8 o        1.608    -0.671    26.951     7.007
   575   1 h        0.805     0.327     0.646     1.262
   576   1 h        0.803     0.356     0.574     1.191
   577   8 o        1.608    -0.669    26.906     7.001
   578   1 h        0.805     0.328     0.643     1.260
   579   1 h        0.803     0.366     0.552     1.167
   580   8 o        1.606    -0.707    27.906     7.130
   581   1 h        0.803     0.360     0.566     1.182
   582   1 h        0.804     0.336     0.621     1.238
   583   8 o        1.609    -0.644    26.260     6.916
   584   1 h        0.804     0.329     0.639     1.256
   585   1 h        0.804     0.339     0.614     1.231
   586   8 o        1.607    -0.691    27.480     7.075
   587   1 h        0.803     0.332     0.633     1.250
   588   1 h        0.804     0.332     0.632     1.249
   589   8 o        1.608    -0.666    26.832     6.991
   590   1 h        0.805     0.331     0.635     1.252
   591   1 h        0.804     0.335     0.624     1.241
   592   8 o        1.608    -0.686    27.348     7.058
   593   1 h        0.803     0.340     0.613     1.230
   594   1 h        0.805     0.331     0.634     1.251
   595   8 o        1.607    -0.674    27.038     7.018
   596   1 h        0.805     0.323     0.655     1.272
   597   1 h        0.802     0.341     0.610     1.227
   598   8 o        1.609    -0.666    26.830     6.991
   599   1 h        0.804     0.340     0.613     1.230
   600   1 h        0.805     0.333     0.630     1.247
   601   8 o        1.608    -0.663    26.734     6.978
   602   1 h        0.803     0.355     0.577     1.194
   603   1 h        0.806     0.310     0.692     1.307
   604   8 o        1.607    -0.695    27.582     7.088
   605   1 h        0.803     0.359     0.567     1.183
   606   1 h        0.803     0.339     0.614     1.231
   607   8 o        1.606    -0.680    27.188     7.037
   608   1 h        0.802     0.357     0.572     1.188
   609   1 h        0.806     0.314     0.681     1.296
   610   8 o        1.608    -0.685    27.318     7.054
   611   1 h        0.803     0.338     0.618     1.235
   612   1 h        0.805     0.333     0.628     1.245
   613   8 o        1.606    -0.678    27.124     7.029
   614   1 h        0.802     0.342     0.608     1.225
   615   1 h        0.804     0.330     0.637     1.254
   616   8 o        1.608    -0.680    27.182     7.037
   617   1 h        0.805     0.330     0.638     1.255
   618   1 h        0.804     0.339     0.615     1.232
   619   8 o        1.609    -0.674    27.027     7.017
   620   1 h        0.805     0.338     0.617     1.234
   621   1 h        0.804     0.350     0.588     1.204
   622   8 o        1.607    -0.678    27.140     7.031
   623   1 h        0.804     0.333     0.630     1.247
   624   1 h        0.803     0.337     0.620     1.237
   625   8 o        1.608    -0.673    27.004     7.013
   626   1 h        0.805     0.317     0.672     1.288
   627   1 h        0.802     0.357     0.573     1.190
   628   8 o        1.608    -0.672    26.986     7.011
   629   1 h        0.802     0.343     0.604     1.221
   630   1 h        0.805     0.323     0.656     1.272
   631   8 o        1.610    -0.659    26.650     6.967
   632   1 h        0.804     0.326     0.647     1.264
   633   1 h        0.805     0.343     0.604     1.221
   634   8 o        1.608    -0.674    27.038     7.018
   635   1 h        0.805     0.314     0.680     1.295
   636   1 h        0.802     0.358     0.571     1.187
   637   8 o        1.609    -0.663    26.736     6.979
   638   1 h        0.805     0.335     0.624     1.241
   639   1 h        0.804     0.332     0.633     1.249
   640   8 o        1.607    -0.691    27.476     7.075
   641   1 h        0.805     0.320     0.663     1.279
   642   1 h        0.803     0.361     0.564     1.180
   643   8 o        1.607    -0.704    27.831     7.120
   644   1 h        0.804     0.328     0.644     1.260
   645   1 h        0.803     0.351     0.585     1.202
   646   8 o        1.605    -0.708    27.925     7.132
   647   1 h        0.804     0.323     0.655     1.271
   648   1 h        0.802     0.359     0.567     1.183
   649   8 o        1.609    -0.655    26.541     6.953
   650   1 h        0.805     0.325     0.649     1.266
   651   1 h        0.803     0.341     0.609     1.226
   652   8 o        1.608    -0.656    26.566     6.956
   653   1 h        0.806     0.312     0.686     1.301
   654   1 h        0.803     0.350     0.589     1.206
   655   8 o        1.607    -0.673    27.009     7.014
   656   1 h        0.803     0.361     0.563     1.178
   657   1 h        0.804     0.320     0.665     1.281
   658   8 o        1.607    -0.717    28.177     7.164
   659   1 h        0.804     0.324     0.652     1.269
   660   1 h        0.803     0.352     0.583     1.200
   661   8 o        1.608    -0.663    26.735     6.978
   662   1 h        0.803     0.340     0.613     1.230
   663   1 h        0.805     0.332     0.631     1.248
   664   8 o        1.608    -0.685    27.312     7.053
   665   1 h        0.804     0.337     0.621     1.237
   666   1 h        0.804     0.340     0.611     1.228
   667   8 o        1.606    -0.696    27.593     7.089
   668   1 h        0.802     0.364     0.557     1.173
   669   1 h        0.804     0.331     0.635     1.252
   670   8 o        1.609    -0.669    26.887     6.998
   671   1 h        0.804     0.353     0.580     1.196
   672   1 h        0.804     0.320     0.663     1.279
   673   8 o        1.606    -0.698    27.663     7.099
   674   1 h        0.802     0.356     0.575     1.192
   675   1 h        0.804     0.326     0.649     1.266
   676   8 o        1.606    -0.667    26.852     6.994
   677   1 h        0.803     0.339     0.614     1.231
   678   1 h        0.803     0.329     0.640     1.256
   679   8 o        1.606    -0.703    27.780     7.113
   680   1 h        0.803     0.351     0.585     1.202
   681   1 h        0.803     0.345     0.600     1.216
   682   8 o        1.605    -0.661    26.688     6.972
   683   1 h        0.802     0.347     0.596     1.212
   684   1 h        0.806     0.311     0.690     1.305
   685   8 o        1.606    -0.691    27.487     7.076
   686   1 h        0.803     0.362     0.560     1.176
   687   1 h        0.803     0.337     0.620     1.237
   688   8 o        1.606    -0.679    27.153     7.033
   689   1 h        0.803     0.335     0.625     1.242
   690   1 h        0.802     0.347     0.595     1.212
   691   8 o        1.607    -0.675    27.064     7.021
   692   1 h        0.803     0.332     0.633     1.250
   693   1 h        0.804     0.331     0.635     1.252
   694   8 o        1.605    -0.703    27.799     7.116
   695   1 h        0.802     0.358     0.571     1.187
   696   1 h        0.803     0.351     0.587     1.204
   697   8 o        1.606    -0.681    27.211     7.040
   698   1 h        0.803     0.353     0.581     1.197
   699   1 h        0.803     0.325     0.651     1.268
   700   8 o        1.609    -0.669    26.899     7.000
   701   1 h        0.805     0.334     0.628     1.245
   702   1 h        0.805     0.334     0.627     1.243
   703   8 o        1.607    -0.692    27.490     7.076
   704   1 h        0.803     0.334     0.628     1.245
   705   1 h        0.804     0.342     0.607     1.224
   706   8 o        1.609    -0.677    27.109     7.027
   707   1 h        0.804     0.338     0.618     1.235
   708   1 h        0.805     0.327     0.646     1.262
   709   8 o        1.608    -0.678    27.124     7.029
   710   1 h        0.803     0.335     0.624     1.241
   711   1 h        0.805     0.338     0.617     1.233
   712   8 o        1.607    -0.673    26.995     7.012
   713   1 h        0.806     0.308     0.697     1.311
   714   1 h        0.802     0.362     0.561     1.176
   715   8 o        1.606    -0.692    27.510     7.079
   716   1 h        0.804     0.352     0.583     1.199
   717   1 h        0.802     0.353     0.581     1.198
   718   8 o        1.607    -0.690    27.453     7.072
   719   1 h        0.804     0.342     0.606     1.223
   720   1 h        0.803     0.359     0.569     1.185
   721   8 o        1.609    -0.673    26.998     7.013
   722   1 h        0.804     0.341     0.610     1.227
   723   1 h        0.805     0.332     0.631     1.248
   724   8 o        1.609    -0.661    26.691     6.973
   725   1 h        0.803     0.347     0.596     1.213
   726   1 h        0.806     0.310     0.692     1.306
   727   8 o        1.607    -0.679    27.162     7.034
   728   1 h        0.805     0.315     0.678     1.293
   729   1 h        0.802     0.363     0.559     1.175
   730   8 o        1.605    -0.709    27.962     7.137
   731   1 h        0.805     0.323     0.657     1.273
   732   1 h        0.802     0.359     0.568     1.184
   733   8 o        1.607    -0.693    27.517     7.080
   734   1 h        0.804     0.358     0.570     1.186
   735   1 h        0.803     0.320     0.665     1.281
   736   8 o        1.609    -0.661    26.699     6.974
   737   1 h        0.804     0.332     0.632     1.249
   738   1 h        0.805     0.335     0.625     1.242
   739   8 o        1.608    -0.694    27.561     7.086
   740   1 h        0.804     0.334     0.628     1.245
   741   1 h        0.804     0.335     0.624     1.241
   742   8 o        1.608    -0.680    27.178     7.036
   743   1 h        0.805     0.330     0.637     1.253
   744   1 h        0.803     0.348     0.594     1.211
   745   8 o        1.608    -0.686    27.342     7.057
   746   1 h        0.804     0.333     0.629     1.246
   747   1 h        0.804     0.344     0.604     1.220
   748   8 o        1.609    -0.658    26.613     6.963
   749   1 h        0.805     0.327     0.644     1.261
   750   1 h        0.804     0.343     0.604     1.221
   751   8 o        1.609    -0.650    26.424     6.938
   752   1 h        0.805     0.342     0.606     1.223
   753   1 h        0.805     0.342     0.606     1.223
   754   8 o        1.611    -0.677    27.115     7.028
   755   1 h        0.804     0.342     0.608     1.225
   756   1 h        0.805     0.334     0.626     1.243

 Mol. C6AA /au·bohr⁶  :    2900512.123217
 Mol. C8AA /au·bohr⁸  :   52634992.597135
 Mol. α(0) /au        :       2393.423745


Wiberg/Mayer (AO) data.
largest (>0.10) Wiberg bond orders for each atom

 ---------------------------------------------------------------------------
     #   Z sym  total        # sym  WBO       # sym  WBO       # sym  WBO
 ---------------------------------------------------------------------------
     1   8 o    1.830 --     2 h    0.904     3 h    0.808
     2   1 h    0.907 --     1 o    0.904
     3   1 h    0.874 --     1 o    0.808
     4   8 o    1.816 --     6 h    0.829     5 h    0.815
     5   1 h    0.876 --     4 o    0.815
     6   1 h    0.891 --     4 o    0.829
     7   8 o    1.878 --     9 h    0.813     8 h    0.794
     8   1 h    0.872 --     7 o    0.794
     9   1 h    0.874 --     7 o    0.813
    10   8 o    1.848 --    12 h    0.862    11 h    0.792
    11   1 h    0.875 --    10 o    0.792
    12   1 h    0.887 --    10 o    0.862
    13   8 o    1.828 --    14 h    0.811    15 h    0.804
    14   1 h    0.876 --    13 o    0.811
    15   1 h    0.882 --    13 o    0.804
    16   8 o    1.852 --    17 h    0.849    18 h    0.790
    17   1 h    0.898 --    16 o    0.849
    18   1 h    0.873 --    16 o    0.790
    19   8 o    1.858 --    21 h    0.817    20 h    0.815
    20   1 h    0.879 --    19 o    0.815
    21   1 h    0.870 --    19 o    0.817
    22   8 o    1.872 --    23 h    0.862    24 h    0.816
    23   1 h    0.884 --    22 o    0.862
    24   1 h    0.875 --    22 o    0.816
    25   8 o    1.829 --    27 h    0.844    26 h    0.824
    26   1 h    0.873 --    25 o    0.824
    27   1 h    0.894 --    25 o    0.844
    28   8 o    1.864 --    30 h    0.812    29 h    0.811
    29   1 h    0.874 --    28 o    0.811
    30   1 h    0.881 --    28 o    0.812
    31   8 o    1.896 --    33 h    0.843    32 h    0.795
    32   1 h    0.867 --    31 o    0.795
    33   1 h    0.892 --    31 o    0.843
    34   8 o    1.848 --    35 h    0.838    36 h    0.803
    35   1 h    0.884 --    34 o    0.838
    36   1 h    0.876 --    34 o    0.803
    37   8 o    1.812 --    38 h    0.846    39 h    0.802
    38   1 h    0.891 --    37 o    0.846
    39   1 h    0.870 --    37 o    0.802
    40   8 o    1.828 --    41 h    0.826    42 h    0.817
    41   1 h    0.881 --    40 o    0.826
    42   1 h    0.877 --    40 o    0.817
    43   8 o    1.877 --    45 h    0.819    44 h    0.796
    44   1 h    0.870 --    43 o    0.796
    45   1 h    0.882 --    43 o    0.819
    46   8 o    1.884 --    47 h    0.827    48 h    0.778
    47   1 h    0.894 --    46 o    0.827
    48   1 h    0.869 --    46 o    0.778
    49   8 o    1.880 --    50 h    0.810    51 h    0.803
    50   1 h    0.876 --    49 o    0.810
    51   1 h    0.874 --    49 o    0.803
    52   8 o    1.841 --    54 h    0.832    53 h    0.824
    53   1 h    0.883 --    52 o    0.824
    54   1 h    0.880 --    52 o    0.832
    55   8 o    1.858 --    56 h    0.817    57 h    0.794
    56   1 h    0.881 --    55 o    0.817
    57   1 h    0.872 --    55 o    0.794
    58   8 o    1.817 --    60 h    0.825    59 h    0.805
    59   1 h    0.880 --    58 o    0.805
    60   1 h    0.876 --    58 o    0.825
    61   8 o    1.868 --    63 h    0.854    62 h    0.820
    62   1 h    0.872 --    61 o    0.820
    63   1 h    0.885 --    61 o    0.854
    64   8 o    1.815 --    65 h    0.796    66 h    0.772
    65   1 h    0.877 --    64 o    0.796
    66   1 h    0.870 --    64 o    0.772
    67   8 o    1.846 --    68 h    0.846    69 h    0.777
    68   1 h    0.886 --    67 o    0.846
    69   1 h    0.872 --    67 o    0.777
    70   8 o    1.819 --    72 h    0.827    71 h    0.812
    71   1 h    0.880 --    70 o    0.812
    72   1 h    0.882 --    70 o    0.827
    73   8 o    1.822 --    74 h    0.833    75 h    0.803
    74   1 h    0.887 --    73 o    0.833
    75   1 h    0.866 --    73 o    0.803
    76   8 o    1.863 --    78 h    0.820    77 h    0.813
    77   1 h    0.880 --    76 o    0.813
    78   1 h    0.878 --    76 o    0.820
    79   8 o    1.836 --    81 h    0.844    80 h    0.778
    80   1 h    0.865 --    79 o    0.778
    81   1 h    0.895 --    79 o    0.844
    82   8 o    1.861 --    83 h    0.803    84 h    0.793
    83   1 h    0.878 --    82 o    0.803
    84   1 h    0.873 --    82 o    0.793
    85   8 o    1.844 --    87 h    0.838    86 h    0.806
    86   1 h    0.879 --    85 o    0.806
    87   1 h    0.896 --    85 o    0.838
    88   8 o    1.875 --    90 h    0.847    89 h    0.773
    89   1 h    0.873 --    88 o    0.773
    90   1 h    0.893 --    88 o    0.847
    91   8 o    1.825 --    93 h    0.858    92 h    0.772
    92   1 h    0.877 --    91 o    0.772
    93   1 h    0.898 --    91 o    0.858
    94   8 o    1.868 --    95 h    0.838    96 h    0.800
    95   1 h    0.897 --    94 o    0.838
    96   1 h    0.882 --    94 o    0.800
    97   8 o    1.834 --    99 h    0.833    98 h    0.799
    98   1 h    0.872 --    97 o    0.799
    99   1 h    0.880 --    97 o    0.833
   100   8 o    1.870 --   101 h    0.835   102 h    0.829
   101   1 h    0.880 --   100 o    0.835
   102   1 h    0.893 --   100 o    0.829
   103   8 o    1.813 --   104 h    0.841   105 h    0.818
   104   1 h    0.884 --   103 o    0.841
   105   1 h    0.886 --   103 o    0.818
   106   8 o    1.855 --   108 h    0.831   107 h    0.818
   107   1 h    0.892 --   106 o    0.818
   108   1 h    0.887 --   106 o    0.831
   109   8 o    1.872 --   111 h    0.831   110 h    0.805
   110   1 h    0.874 --   109 o    0.805
   111   1 h    0.891 --   109 o    0.831
   112   8 o    1.823 --   113 h    0.854   114 h    0.845
   113   1 h    0.886 --   112 o    0.854
   114   1 h    0.882 --   112 o    0.845
   115   8 o    1.842 --   116 h    0.852   117 h    0.822
   116   1 h    0.884 --   115 o    0.852
   117   1 h    0.878 --   115 o    0.822
   118   8 o    1.890 --   119 h    0.816   120 h    0.797
   119   1 h    0.879 --   118 o    0.816
   120   1 h    0.876 --   118 o    0.797
   121   8 o    1.847 --   122 h    0.867   123 h    0.800
   122   1 h    0.901 --   121 o    0.867
   123   1 h    0.866 --   121 o    0.800
   124   8 o    1.846 --   125 h    0.852   126 h    0.822
   125   1 h    0.897 --   124 o    0.852
   126   1 h    0.875 --   124 o    0.822
   127   8 o    1.847 --   129 h    0.826   128 h    0.814
   128   1 h    0.881 --   127 o    0.814
   129   1 h    0.880 --   127 o    0.826
   130   8 o    1.827 --   132 h    0.829   131 h    0.819
   131   1 h    0.887 --   130 o    0.819
   132   1 h    0.881 --   130 o    0.829
   133   8 o    1.857 --   134 h    0.823   135 h    0.780
   134   1 h    0.888 --   133 o    0.823
   135   1 h    0.863 --   133 o    0.780
   136   8 o    1.851 --   138 h    0.831   137 h    0.806
   137   1 h    0.876 --   136 o    0.806
   138   1 h    0.875 --   136 o    0.831
   139   8 o    1.853 --   140 h    0.819   141 h    0.792
   140   1 h    0.879 --   139 o    0.819
   141   1 h    0.867 --   139 o    0.792
   142   8 o    1.842 --   144 h    0.829   143 h    0.819
   143   1 h    0.887 --   142 o    0.819
   144   1 h    0.874 --   142 o    0.829
   145   8 o    1.837 --   146 h    0.884   147 h    0.817
   146   1 h    0.903 --   145 o    0.884
   147   1 h    0.890 --   145 o    0.817
   148   8 o    1.848 --   150 h    0.828   149 h    0.827
   149   1 h    0.889 --   148 o    0.827
   150   1 h    0.893 --   148 o    0.828
   151   8 o    1.842 --   152 h    0.821   153 h    0.812
   152   1 h    0.884 --   151 o    0.821
   153   1 h    0.875 --   151 o    0.812
   154   8 o    1.842 --   156 h    0.825   155 h    0.817
   155   1 h    0.886 --   154 o    0.817
   156   1 h    0.887 --   154 o    0.825
   157   8 o    1.846 --   158 h    0.844   159 h    0.815
   158   1 h    0.886 --   157 o    0.844
   159   1 h    0.885 --   157 o    0.815
   160   8 o    1.861 --   161 h    0.845   162 h    0.807
   161   1 h    0.896 --   160 o    0.845
   162   1 h    0.871 --   160 o    0.807
   163   8 o    1.843 --   164 h    0.849   165 h    0.795
   164   1 h    0.890 --   163 o    0.849
   165   1 h    0.872 --   163 o    0.795
   166   8 o    1.847 --   167 h    0.835   168 h    0.818
   167   1 h    0.886 --   166 o    0.835
   168   1 h    0.880 --   166 o    0.818
   169   8 o    1.867 --   171 h    0.824   170 h    0.803
   170   1 h    0.879 --   169 o    0.803
   171   1 h    0.880 --   169 o    0.824
   172   8 o    1.837 --   174 h    0.828   173 h    0.809
   173   1 h    0.872 --   172 o    0.809
   174   1 h    0.879 --   172 o    0.828
   175   8 o    1.893 --   176 h    0.832   177 h    0.825
   176   1 h    0.884 --   175 o    0.832
   177   1 h    0.884 --   175 o    0.825
   178   8 o    1.845 --   179 h    0.897   180 h    0.817
   179   1 h    0.901 --   178 o    0.897
   180   1 h    0.875 --   178 o    0.817
   181   8 o    1.841 --   182 h    0.847   183 h    0.799
   182   1 h    0.897 --   181 o    0.847
   183   1 h    0.865 --   181 o    0.799
   184   8 o    1.872 --   186 h    0.853   185 h    0.809
   185   1 h    0.874 --   184 o    0.809
   186   1 h    0.886 --   184 o    0.853
   187   8 o    1.831 --   188 h    0.866   189 h    0.814
   188   1 h    0.901 --   187 o    0.866
   189   1 h    0.868 --   187 o    0.814
   190   8 o    1.865 --   191 h    0.829   192 h    0.819
   191   1 h    0.892 --   190 o    0.829
   192   1 h    0.887 --   190 o    0.819
   193   8 o    1.858 --   194 h    0.823   195 h    0.804
   194   1 h    0.886 --   193 o    0.823
   195   1 h    0.873 --   193 o    0.804
   196   8 o    1.831 --   197 h    0.833   198 h    0.817
   197   1 h    0.889 --   196 o    0.833
   198   1 h    0.876 --   196 o    0.817
   199   8 o    1.850 --   201 h    0.834   200 h    0.808
   200   1 h    0.871 --   199 o    0.808
   201   1 h    0.896 --   199 o    0.834
   202   8 o    1.874 --   204 h    0.834   203 h    0.828
   203   1 h    0.873 --   202 o    0.828
   204   1 h    0.874 --   202 o    0.834
   205   8 o    1.796 --   207 h    0.854   206 h    0.828
   206   1 h    0.879 --   205 o    0.828
   207   1 h    0.901 --   205 o    0.854
   208   8 o    1.798 --   209 h    0.888   210 h    0.806
   209   1 h    0.905 --   208 o    0.888
   210   1 h    0.875 --   208 o    0.806
   211   8 o    1.854 --   213 h    0.872   212 h    0.806
   212   1 h    0.884 --   211 o    0.806
   213   1 h    0.895 --   211 o    0.872
   214   8 o    1.848 --   216 h    0.826   215 h    0.806
   215   1 h    0.880 --   214 o    0.806
   216   1 h    0.876 --   214 o    0.826
   217   8 o    1.838 --   219 h    0.840   218 h    0.803
   218   1 h    0.879 --   217 o    0.803
   219   1 h    0.886 --   217 o    0.840
   220   8 o    1.858 --   222 h    0.840   221 h    0.809
   221   1 h    0.873 --   220 o    0.809
   222   1 h    0.896 --   220 o    0.840
   223   8 o    1.846 --   225 h    0.855   224 h    0.797
   224   1 h    0.868 --   223 o    0.797
   225   1 h    0.882 --   223 o    0.855
   226   8 o    1.870 --   227 h    0.825   228 h    0.816
   227   1 h    0.889 --   226 o    0.825
   228   1 h    0.868 --   226 o    0.816
   229   8 o    1.857 --   230 h    0.848   231 h    0.835
   230   1 h    0.894 --   229 o    0.848
   231   1 h    0.886 --   229 o    0.835
   232   8 o    1.869 --   234 h    0.819   233 h    0.787
   233   1 h    0.870 --   232 o    0.787
   234   1 h    0.891 --   232 o    0.819
   235   8 o    1.862 --   237 h    0.885   236 h    0.809
   236   1 h    0.864 --   235 o    0.809
   237   1 h    0.905 --   235 o    0.885
   238   8 o    1.859 --   239 h    0.861   240 h    0.808
   239   1 h    0.892 --   238 o    0.861
   240   1 h    0.884 --   238 o    0.808
   241   8 o    1.855 --   243 h    0.853   242 h    0.821
   242   1 h    0.877 --   241 o    0.821
   243   1 h    0.892 --   241 o    0.853
   244   8 o    1.830 --   246 h    0.865   245 h    0.807
   245   1 h    0.870 --   244 o    0.807
   246   1 h    0.893 --   244 o    0.865
   247   8 o    1.834 --   249 h    0.858   248 h    0.814
   248   1 h    0.883 --   247 o    0.814
   249   1 h    0.890 --   247 o    0.858
   250   8 o    1.806 --   251 h    0.859   252 h    0.855
   251   1 h    0.890 --   250 o    0.859
   252   1 h    0.889 --   250 o    0.855
   253   8 o    1.890 --   255 h    0.817   254 h    0.800
   254   1 h    0.873 --   253 o    0.800
   255   1 h    0.874 --   253 o    0.817
   256   8 o    1.831 --   257 h    0.865   258 h    0.829
   257   1 h    0.899 --   256 o    0.865
   258   1 h    0.888 --   256 o    0.829
   259   8 o    1.868 --   261 h    0.896   260 h    0.833
   260   1 h    0.879 --   259 o    0.833
   261   1 h    0.904 --   259 o    0.896
   262   8 o    1.837 --   263 h    0.864   264 h    0.805
   263   1 h    0.893 --   262 o    0.864
   264   1 h    0.878 --   262 o    0.805
   265   8 o    1.850 --   267 h    0.849   266 h    0.802
   266   1 h    0.868 --   265 o    0.802
   267   1 h    0.895 --   265 o    0.849
   268   8 o    1.835 --   270 h    0.893   269 h    0.797
   269   1 h    0.878 --   268 o    0.797
   270   1 h    0.906 --   268 o    0.893
   271   8 o    1.875 --   273 h    0.818   272 h    0.810
   272   1 h    0.873 --   271 o    0.810
   273   1 h    0.881 --   271 o    0.818
   274   8 o    1.872 --   276 h    0.845   275 h    0.802
   275   1 h    0.874 --   274 o    0.802
   276   1 h    0.893 --   274 o    0.845
   277   8 o    1.864 --   278 h    0.846   279 h    0.789
   278   1 h    0.887 --   277 o    0.846
   279   1 h    0.867 --   277 o    0.789
   280   8 o    1.910 --   282 h    0.815   281 h    0.797   335 h    0.108
   281   1 h    0.871 --   280 o    0.797
   282   1 h    0.884 --   280 o    0.815
   283   8 o    1.871 --   285 h    0.855   284 h    0.802
   284   1 h    0.873 --   283 o    0.802
   285   1 h    0.882 --   283 o    0.855
   286   8 o    1.847 --   288 h    0.825   287 h    0.824
   287   1 h    0.881 --   286 o    0.824
   288   1 h    0.883 --   286 o    0.825
   289   8 o    1.800 --   291 h    0.853   290 h    0.805
   290   1 h    0.880 --   289 o    0.805
   291   1 h    0.893 --   289 o    0.853
   292   8 o    1.803 --   293 h    0.869   294 h    0.858
   293   1 h    0.894 --   292 o    0.869
   294   1 h    0.894 --   292 o    0.858
   295   8 o    1.871 --   297 h    0.825   296 h    0.812
   296   1 h    0.875 --   295 o    0.812
   297   1 h    0.899 --   295 o    0.825
   298   8 o    1.835 --   299 h    0.829   300 h    0.815
   299   1 h    0.888 --   298 o    0.829
   300   1 h    0.877 --   298 o    0.815
   301   8 o    1.841 --   302 h    0.888   303 h    0.803
   302   1 h    0.907 --   301 o    0.888
   303   1 h    0.873 --   301 o    0.803
   304   8 o    1.828 --   305 h    0.860   306 h    0.820
   305   1 h    0.896 --   304 o    0.860
   306   1 h    0.874 --   304 o    0.820
   307   8 o    1.874 --   309 h    0.844   308 h    0.788
   308   1 h    0.869 --   307 o    0.788
   309   1 h    0.881 --   307 o    0.844
   310   8 o    1.862 --   312 h    0.842   311 h    0.804
   311   1 h    0.871 --   310 o    0.804
   312   1 h    0.894 --   310 o    0.842
   313   8 o    1.829 --   314 h    0.842   315 h    0.820
   314   1 h    0.892 --   313 o    0.842
   315   1 h    0.890 --   313 o    0.820
   316   8 o    1.834 --   318 h    0.840   317 h    0.817
   317   1 h    0.884 --   316 o    0.817
   318   1 h    0.889 --   316 o    0.840
   319   8 o    1.848 --   320 h    0.790   321 h    0.774
   320   1 h    0.875 --   319 o    0.790
   321   1 h    0.874 --   319 o    0.774
   322   8 o    1.868 --   324 h    0.823   323 h    0.823
   323   1 h    0.873 --   322 o    0.823
   324   1 h    0.889 --   322 o    0.823
   325   8 o    1.821 --   327 h    0.847   326 h    0.813
   326   1 h    0.878 --   325 o    0.813
   327   1 h    0.896 --   325 o    0.847
   328   8 o    1.876 --   329 h    0.845   330 h    0.817
   329   1 h    0.889 --   328 o    0.845
   330   1 h    0.888 --   328 o    0.817
   331   8 o    1.825 --   333 h    0.837   332 h    0.800
   332   1 h    0.870 --   331 o    0.800
   333   1 h    0.892 --   331 o    0.837
   334   8 o    1.841 --   336 h    0.898   335 h    0.752
   335   1 h    0.863 --   334 o    0.752   280 o    0.108
   336   1 h    0.905 --   334 o    0.898
   337   8 o    1.872 --   339 h    0.815   338 h    0.813
   338   1 h    0.878 --   337 o    0.813
   339   1 h    0.872 --   337 o    0.815
   340   8 o    1.842 --   342 h    0.859   341 h    0.826
   341   1 h    0.880 --   340 o    0.826
   342   1 h    0.901 --   340 o    0.859
   343   8 o    1.827 --   345 h    0.823   344 h    0.821
   344   1 h    0.884 --   343 o    0.821
   345   1 h    0.883 --   343 o    0.823
   346   8 o    1.893 --   347 h    0.831   348 h    0.820
   347   1 h    0.890 --   346 o    0.831
   348   1 h    0.871 --   346 o    0.820
   349   8 o    1.842 --   351 h    0.838   350 h    0.825
   350   1 h    0.881 --   349 o    0.825
   351   1 h    0.889 --   349 o    0.838
   352   8 o    1.826 --   354 h    0.871   353 h    0.783
   353   1 h    0.874 --   352 o    0.783
   354   1 h    0.893 --   352 o    0.871
   355   8 o    1.844 --   357 h    0.870   356 h    0.778
   356   1 h    0.863 --   355 o    0.778
   357   1 h    0.897 --   355 o    0.870
   358   8 o    1.861 --   359 h    0.820   360 h    0.812
   359   1 h    0.884 --   358 o    0.820
   360   1 h    0.874 --   358 o    0.812
   361   8 o    1.820 --   363 h    0.858   362 h    0.812
   362   1 h    0.884 --   361 o    0.812
   363   1 h    0.896 --   361 o    0.858
[...]
   371   1 h    0.866 --   370 o    0.796
   372   1 h    0.895 --   370 o    0.876
   373   8 o    1.843 --   374 h    0.848   375 h    0.827
   374   1 h    0.889 --   373 o    0.848
   375   1 h    0.887 --   373 o    0.827
   376   8 o    1.858 --   378 h    0.823   377 h    0.805
   377   1 h    0.886 --   376 o    0.805
   378   1 h    0.877 --   376 o    0.823
   379   8 o    1.837 --   381 h    0.846   380 h    0.833
   380   1 h    0.890 --   379 o    0.833
   381   1 h    0.892 --   379 o    0.846
   382   8 o    1.814 --   384 h    0.865   383 h    0.854
   383   1 h    0.888 --   382 o    0.854
   384   1 h    0.894 --   382 o    0.865
   385   8 o    1.858 --   387 h    0.839   386 h    0.792
   386   1 h    0.874 --   385 o    0.792
   387   1 h    0.882 --   385 o    0.839
   388   8 o    1.836 --   389 h    0.833   390 h    0.826
   389   1 h    0.888 --   388 o    0.833
   390   1 h    0.887 --   388 o    0.826
   391   8 o    1.796 --   393 h    0.856   392 h    0.826
   392   1 h    0.890 --   391 o    0.826
   393   1 h    0.894 --   391 o    0.856
   394   8 o    1.881 --   395 h    0.837   396 h    0.790
   395   1 h    0.888 --   394 o    0.837
   396   1 h    0.866 --   394 o    0.790
   397   8 o    1.817 --   398 h    0.849   399 h    0.846
   398   1 h    0.887 --   397 o    0.849
   399   1 h    0.885 --   397 o    0.846
   400   8 o    1.840 --   402 h    0.849   401 h    0.815
   401   1 h    0.867 --   400 o    0.815
   402   1 h    0.890 --   400 o    0.849
   403   8 o    1.839 --   405 h    0.829   404 h    0.788
   404   1 h    0.866 --   403 o    0.788
   405   1 h    0.893 --   403 o    0.829
   406   8 o    1.860 --   408 h    0.837   407 h    0.780
   407   1 h    0.869 --   406 o    0.780
   408   1 h    0.887 --   406 o    0.837
   409   8 o    1.843 --   410 h    0.867   411 h    0.837
   410   1 h    0.890 --   409 o    0.867
   411   1 h    0.882 --   409 o    0.837
   412   8 o    1.864 --   413 h    0.827   414 h    0.803
   413   1 h    0.894 --   412 o    0.827
   414   1 h    0.877 --   412 o    0.803
   415   8 o    1.818 --   416 h    0.862   417 h    0.833
   416   1 h    0.891 --   415 o    0.862
   417   1 h    0.882 --   415 o    0.833
   418   8 o    1.852 --   419 h    0.876   420 h    0.798
   419   1 h    0.898 --   418 o    0.876
   420   1 h    0.885 --   418 o    0.798
   421   8 o    1.825 --   423 h    0.864   422 h    0.852
   422   1 h    0.887 --   421 o    0.852
   423   1 h    0.890 --   421 o    0.864
   424   8 o    1.845 --   425 h    0.900   426 h    0.809
   425   1 h    0.905 --   424 o    0.900
   426   1 h    0.875 --   424 o    0.809
   427   8 o    1.805 --   428 h    0.841   429 h    0.817
   428   1 h    0.887 --   427 o    0.841
   429   1 h    0.881 --   427 o    0.817
   430   8 o    1.876 --   431 h    0.858   432 h    0.784   459 h    0.107
   431   1 h    0.892 --   430 o    0.858
   432   1 h    0.871 --   430 o    0.784
   433   8 o    1.821 --   435 h    0.857   434 h    0.822
   434   1 h    0.870 --   433 o    0.822
   435   1 h    0.896 --   433 o    0.857
   436   8 o    1.872 --   437 h    0.817   438 h    0.809
   437   1 h    0.890 --   436 o    0.817
   438   1 h    0.875 --   436 o    0.809
   439   8 o    1.864 --   441 h    0.814   440 h    0.810
   440   1 h    0.875 --   439 o    0.810
   441   1 h    0.878 --   439 o    0.814
   442   8 o    1.823 --   444 h    0.864   443 h    0.826
   443   1 h    0.885 --   442 o    0.826
   444   1 h    0.890 --   442 o    0.864
   445   8 o    1.844 --   446 h    0.901   447 h    0.821
   446   1 h    0.908 --   445 o    0.901
   447   1 h    0.883 --   445 o    0.821
   448   8 o    1.844 --   450 h    0.846   449 h    0.843
   449   1 h    0.881 --   448 o    0.843
   450   1 h    0.888 --   448 o    0.846
   451   8 o    1.865 --   452 h    0.852   453 h    0.822
   452   1 h    0.890 --   451 o    0.852
   453   1 h    0.880 --   451 o    0.822
   454   8 o    1.810 --   455 h    0.850   456 h    0.840
   455   1 h    0.891 --   454 o    0.850
   456   1 h    0.890 --   454 o    0.840
   457   8 o    1.805 --   458 h    0.892   459 h    0.752
   458   1 h    0.906 --   457 o    0.892
   459   1 h    0.865 --   457 o    0.752   430 o    0.107
   460   8 o    1.822 --   461 h    0.845   462 h    0.836
   461   1 h    0.888 --   460 o    0.845
   462   1 h    0.884 --   460 o    0.836
   463   8 o    1.844 --   465 h    0.868   464 h    0.859
   464   1 h    0.892 --   463 o    0.859
   465   1 h    0.891 --   463 o    0.868
   466   8 o    1.823 --   468 h    0.853   467 h    0.838
   467   1 h    0.879 --   466 o    0.838
   468   1 h    0.887 --   466 o    0.853
   469   8 o    1.847 --   470 h    0.898   471 h    0.808
   470   1 h    0.902 --   469 o    0.898
   471   1 h    0.876 --   469 o    0.808
   472   8 o    1.865 --   473 h    0.855   474 h    0.847
   473   1 h    0.894 --   472 o    0.855
   474   1 h    0.893 --   472 o    0.847
   475   8 o    1.812 --   476 h    0.884   477 h    0.819
   476   1 h    0.904 --   475 o    0.884
   477   1 h    0.877 --   475 o    0.819
   478   8 o    1.850 --   479 h    0.853   480 h    0.814
   479   1 h    0.885 --   478 o    0.853
   480   1 h    0.876 --   478 o    0.814
   481   8 o    1.878 --   483 h    0.836   482 h    0.805
   482   1 h    0.864 --   481 o    0.805
   483   1 h    0.887 --   481 o    0.836
   484   8 o    1.821 --   485 h    0.823   486 h    0.804
   485   1 h    0.881 --   484 o    0.823
   486   1 h    0.878 --   484 o    0.804
   487   8 o    1.804 --   489 h    0.867   488 h    0.804
   488   1 h    0.874 --   487 o    0.804
   489   1 h    0.900 --   487 o    0.867
   490   8 o    1.868 --   492 h    0.854   491 h    0.821
   491   1 h    0.889 --   490 o    0.821
   492   1 h    0.889 --   490 o    0.854
   493   8 o    1.868 --   494 h    0.814   495 h    0.796
   494   1 h    0.888 --   493 o    0.814
   495   1 h    0.874 --   493 o    0.796
   496   8 o    1.842 --   497 h    0.809   498 h    0.805
   497   1 h    0.880 --   496 o    0.809
   498   1 h    0.872 --   496 o    0.805
   499   8 o    1.843 --   500 h    0.832   501 h    0.832
   500   1 h    0.893 --   499 o    0.832
   501   1 h    0.872 --   499 o    0.832
   502   8 o    1.862 --   504 h    0.846   503 h    0.825   683 h    0.103
   503   1 h    0.875 --   502 o    0.825
   504   1 h    0.880 --   502 o    0.846
   505   8 o    1.849 --   506 h    0.900   507 h    0.832
   506   1 h    0.903 --   505 o    0.900
   507   1 h    0.878 --   505 o    0.832
   508   8 o    1.864 --   510 h    0.814   509 h    0.786
   509   1 h    0.865 --   508 o    0.786
   510   1 h    0.888 --   508 o    0.814
   511   8 o    1.862 --   513 h    0.841   512 h    0.811
   512   1 h    0.872 --   511 o    0.811
   513   1 h    0.887 --   511 o    0.841
   514   8 o    1.869 --   516 h    0.902   515 h    0.777
   515   1 h    0.876 --   514 o    0.777
   516   1 h    0.905 --   514 o    0.902
   517   8 o    1.861 --   518 h    0.807   519 h    0.797
   518   1 h    0.878 --   517 o    0.807
   519   1 h    0.880 --   517 o    0.797
   520   8 o    1.851 --   522 h    0.874   521 h    0.787
   521   1 h    0.865 --   520 o    0.787
   522   1 h    0.900 --   520 o    0.874
   523   8 o    1.801 --   524 h    0.897   525 h    0.807
   524   1 h    0.906 --   523 o    0.897
   525   1 h    0.877 --   523 o    0.807
   526   8 o    1.815 --   528 h    0.862   527 h    0.861
   527   1 h    0.888 --   526 o    0.861
   528   1 h    0.887 --   526 o    0.862
   529   8 o    1.826 --   530 h    0.840   531 h    0.815
   530   1 h    0.885 --   529 o    0.840
   531   1 h    0.868 --   529 o    0.815
   532   8 o    1.812 --   534 h    0.872   533 h    0.800
   533   1 h    0.872 --   532 o    0.800
   534   1 h    0.898 --   532 o    0.872
   535   8 o    1.821 --   537 h    0.866   536 h    0.836
   536   1 h    0.885 --   535 o    0.836
   537   1 h    0.893 --   535 o    0.866
   538   8 o    1.819 --   539 h    0.884   540 h    0.805
   539   1 h    0.902 --   538 o    0.884
   540   1 h    0.868 --   538 o    0.805
   541   8 o    1.852 --   543 h    0.880   542 h    0.795
   542   1 h    0.873 --   541 o    0.795
   543   1 h    0.901 --   541 o    0.880
   544   8 o    1.830 --   546 h    0.854   545 h    0.843
   545   1 h    0.888 --   544 o    0.843
   546   1 h    0.885 --   544 o    0.854
   547   8 o    1.824 --   549 h    0.876   548 h    0.776
   548   1 h    0.871 --   547 o    0.776
   549   1 h    0.897 --   547 o    0.876
   550   8 o    1.813 --   551 h    0.892   552 h    0.822
   551   1 h    0.902 --   550 o    0.892
   552   1 h    0.878 --   550 o    0.822
   553   8 o    1.856 --   555 h    0.874   554 h    0.798
   554   1 h    0.883 --   553 o    0.798
   555   1 h    0.896 --   553 o    0.874
   556   8 o    1.826 --   557 h    0.842   558 h    0.842
   557   1 h    0.886 --   556 o    0.842
   558   1 h    0.889 --   556 o    0.842
   559   8 o    1.861 --   560 h    0.882   561 h    0.817
   560   1 h    0.897 --   559 o    0.882
   561   1 h    0.886 --   559 o    0.817
   562   8 o    1.823 --   563 h    0.845   564 h    0.842
   563   1 h    0.886 --   562 o    0.845
   564   1 h    0.889 --   562 o    0.842
   565   8 o    1.852 --   566 h    0.851   567 h    0.790
   566   1 h    0.886 --   565 o    0.851
   567   1 h    0.875 --   565 o    0.790
   568   8 o    1.831 --   569 h    0.897   570 h    0.778
   569   1 h    0.906 --   568 o    0.897
   570   1 h    0.863 --   568 o    0.778
   571   8 o    1.833 --   573 h    0.863   572 h    0.811
   572   1 h    0.881 --   571 o    0.811
   573   1 h    0.891 --   571 o    0.863
   574   8 o    1.869 --   575 h    0.869   576 h    0.790
   575   1 h    0.893 --   574 o    0.869
   576   1 h    0.873 --   574 o    0.790
   577   8 o    1.867 --   578 h    0.858   579 h    0.811
   578   1 h    0.893 --   577 o    0.858
   579   1 h    0.866 --   577 o    0.811
   580   8 o    1.829 --   582 h    0.834   581 h    0.795
   581   1 h    0.871 --   580 o    0.795
   582   1 h    0.887 --   580 o    0.834
   583   8 o    1.888 --   584 h    0.849   585 h    0.836
   584   1 h    0.891 --   583 o    0.849
   585   1 h    0.885 --   583 o    0.836
   586   8 o    1.800 --   588 h    0.852   587 h    0.822
   587   1 h    0.890 --   586 o    0.822
   588   1 h    0.890 --   586 o    0.852
   589   8 o    1.847 --   590 h    0.850   591 h    0.827
   590   1 h    0.890 --   589 o    0.850
   591   1 h    0.887 --   589 o    0.827
   592   8 o    1.825 --   594 h    0.854   593 h    0.821
   593   1 h    0.884 --   592 o    0.821
   594   1 h    0.890 --   592 o    0.854
   595   8 o    1.839 --   596 h    0.856   597 h    0.814
   596   1 h    0.896 --   595 o    0.856
   597   1 h    0.884 --   595 o    0.814
   598   8 o    1.842 --   600 h    0.848   599 h    0.842
   599   1 h    0.885 --   598 o    0.842
   600   1 h    0.889 --   598 o    0.848
   601   8 o    1.833 --   603 h    0.900   602 h    0.808
   602   1 h    0.874 --   601 o    0.808
   603   1 h    0.904 --   601 o    0.900
   604   8 o    1.871 --   606 h    0.812   605 h    0.795
   605   1 h    0.871 --   604 o    0.795
   606   1 h    0.885 --   604 o    0.812
   607   8 o    1.831 --   609 h    0.893   608 h    0.777
   608   1 h    0.872 --   607 o    0.777
   609   1 h    0.902 --   607 o    0.893
   610   8 o    1.822 --   612 h    0.857   611 h    0.834
   611   1 h    0.886 --   610 o    0.834
   612   1 h    0.889 --   610 o    0.857
   613   8 o    1.851 --   615 h    0.847   614 h    0.806
   614   1 h    0.883 --   613 o    0.806
   615   1 h    0.891 --   613 o    0.847
   616   8 o    1.809 --   617 h    0.863   618 h    0.831
   617   1 h    0.891 --   616 o    0.863
   618   1 h    0.885 --   616 o    0.831
   619   8 o    1.865 --   620 h    0.834   621 h    0.812
   620   1 h    0.886 --   619 o    0.834
   621   1 h    0.877 --   619 o    0.812
   622   8 o    1.855 --   623 h    0.827   624 h    0.820
   623   1 h    0.889 --   622 o    0.827
   624   1 h    0.886 --   622 o    0.820
   625   8 o    1.828 --   626 h    0.886   627 h    0.802
   626   1 h    0.900 --   625 o    0.886
   627   1 h    0.873 --   625 o    0.802
   628   8 o    1.830 --   630 h    0.872   629 h    0.813
   629   1 h    0.882 --   628 o    0.813
   630   1 h    0.896 --   628 o    0.872
   631   8 o    1.849 --   633 h    0.854   632 h    0.842
   632   1 h    0.893 --   631 o    0.842
   633   1 h    0.882 --   631 o    0.854
   634   8 o    1.832 --   635 h    0.883   636 h    0.797
   635   1 h    0.901 --   634 o    0.883
   636   1 h    0.872 --   634 o    0.797
   637   8 o    1.851 --   638 h    0.855   639 h    0.840
   638   1 h    0.888 --   637 o    0.855
   639   1 h    0.890 --   637 o    0.840
   640   8 o    1.818 --   641 h    0.872   642 h    0.790
   641   1 h    0.897 --   640 o    0.872
   642   1 h    0.870 --   640 o    0.790
   643   8 o    1.818 --   644 h    0.839   645 h    0.803
   644   1 h    0.893 --   643 o    0.839
   645   1 h    0.877 --   643 o    0.803
   646   8 o    1.834 --   647 h    0.835   648 h    0.781
   647   1 h    0.895 --   646 o    0.835
   648   1 h    0.871 --   646 o    0.781
   649   8 o    1.850 --   650 h    0.873   651 h    0.831
   650   1 h    0.894 --   649 o    0.873
   651   1 h    0.883 --   649 o    0.831
   652   8 o    1.828 --   653 h    0.895   654 h    0.826
   653   1 h    0.903 --   652 o    0.895
   654   1 h    0.878 --   652 o    0.826
   655   8 o    1.859 --   657 h    0.849   656 h    0.811
   656   1 h    0.869 --   655 o    0.811
   657   1 h    0.898 --   655 o    0.849
   658   8 o    1.790 --   659 h    0.837   660 h    0.802
   659   1 h    0.895 --   658 o    0.837
   660   1 h    0.876 --   658 o    0.802
   661   8 o    1.865 --   663 h    0.858   662 h    0.821
   662   1 h    0.884 --   661 o    0.821
   663   1 h    0.889 --   661 o    0.858
   664   8 o    1.815 --   665 h    0.853   666 h    0.831
   665   1 h    0.887 --   664 o    0.853
   666   1 h    0.884 --   664 o    0.831
   667   8 o    1.854 --   669 h    0.846   668 h    0.787
   668   1 h    0.868 --   667 o    0.787
   669   1 h    0.890 --   667 o    0.846
   670   8 o    1.848 --   672 h    0.853   671 h    0.826
   671   1 h    0.875 --   670 o    0.826
   672   1 h    0.897 --   670 o    0.853
   673   8 o    1.829 --   675 h    0.838   674 h    0.794
   674   1 h    0.873 --   673 o    0.794
   675   1 h    0.894 --   673 o    0.838
   676   8 o    1.877 --   678 h    0.831   677 h    0.811
   677   1 h    0.885 --   676 o    0.811
   678   1 h    0.892 --   676 o    0.831
   679   8 o    1.855 --   681 h    0.817   680 h    0.786
   680   1 h    0.876 --   679 o    0.786
   681   1 h    0.881 --   679 o    0.817
   682   8 o    1.866 --   684 h    0.898   683 h    0.775
   683   1 h    0.880 --   682 o    0.775   502 o    0.103
   684   1 h    0.904 --   682 o    0.898
   685   8 o    1.861 --   687 h    0.820   686 h    0.798
   686   1 h    0.869 --   685 o    0.798
   687   1 h    0.886 --   685 o    0.820
   688   8 o    1.892 --   689 h    0.806   690 h    0.802
   689   1 h    0.888 --   688 o    0.806
   690   1 h    0.879 --   688 o    0.802
   691   8 o    1.836 --   693 h    0.841   692 h    0.820
   692   1 h    0.890 --   691 o    0.820
   693   1 h    0.890 --   691 o    0.841
   694   8 o    1.868 --   696 h    0.806   695 h    0.789
   695   1 h    0.872 --   694 o    0.789
   696   1 h    0.877 --   694 o    0.806
   697   8 o    1.877 --   699 h    0.829   698 h    0.794
   698   1 h    0.875 --   697 o    0.794
   699   1 h    0.894 --   697 o    0.829
   700   8 o    1.805 --   702 h    0.858   701 h    0.852
   701   1 h    0.889 --   700 o    0.852
   702   1 h    0.888 --   700 o    0.858
   703   8 o    1.836 --   705 h    0.827   704 h    0.821
   704   1 h    0.889 --   703 o    0.821
   705   1 h    0.883 --   703 o    0.827
   706   8 o    1.807 --   708 h    0.869   707 h    0.835
   707   1 h    0.886 --   706 o    0.835
   708   1 h    0.893 --   706 o    0.869
   709   8 o    1.828 --   711 h    0.864   710 h    0.832
   710   1 h    0.887 --   709 o    0.832
   711   1 h    0.886 --   709 o    0.864
   712   8 o    1.835 --   713 h    0.901   714 h    0.782
   713   1 h    0.905 --   712 o    0.901
   714   1 h    0.869 --   712 o    0.782
   715   8 o    1.877 --   716 h    0.821   717 h    0.792
   716   1 h    0.876 --   715 o    0.821
   717   1 h    0.875 --   715 o    0.792
   718   8 o    1.859 --   719 h    0.827   720 h    0.793
   719   1 h    0.883 --   718 o    0.827
   720   1 h    0.871 --   718 o    0.793
   721   8 o    1.816 --   723 h    0.876   722 h    0.850
   722   1 h    0.884 --   721 o    0.850
   723   1 h    0.890 --   721 o    0.876
   724   8 o    1.815 --   726 h    0.899   725 h    0.828
   725   1 h    0.880 --   724 o    0.828
   726   1 h    0.904 --   724 o    0.899
   727   8 o    1.826 --   728 h    0.883   729 h    0.796
   728   1 h    0.901 --   727 o    0.883
   729   1 h    0.868 --   727 o    0.796
   730   8 o    1.815 --   731 h    0.863   732 h    0.777
   731   1 h    0.896 --   730 o    0.863
   732   1 h    0.871 --   730 o    0.777
   733   8 o    1.818 --   734 h    0.832   735 h    0.827
   734   1 h    0.872 --   733 o    0.832
   735   1 h    0.898 --   733 o    0.827
   736   8 o    1.844 --   738 h    0.855   737 h    0.842
   737   1 h    0.890 --   736 o    0.842
   738   1 h    0.888 --   736 o    0.855
   739   8 o    1.796 --   741 h    0.839   740 h    0.836
   740   1 h    0.889 --   739 o    0.836
   741   1 h    0.888 --   739 o    0.839
   742   8 o    1.832 --   743 h    0.860   744 h    0.816
   743   1 h    0.891 --   742 o    0.860
   744   1 h    0.879 --   742 o    0.816
   745   8 o    1.829 --   746 h    0.844   747 h    0.832
   746   1 h    0.889 --   745 o    0.844
   747   1 h    0.882 --   745 o    0.832
   748   8 o    1.853 --   749 h    0.863   750 h    0.837
   749   1 h    0.893 --   748 o    0.863
   750   1 h    0.882 --   748 o    0.837
   751   8 o    1.860 --   752 h    0.866   753 h    0.855
   752   1 h    0.883 --   751 o    0.866
   753   1 h    0.883 --   751 o    0.855
   754   8 o    1.846 --   756 h    0.852   755 h    0.814
   755   1 h    0.883 --   754 o    0.814
   756   1 h    0.888 --   754 o    0.852
 ---------------------------------------------------------------------------

Topologies differ in total number of bonds
Writing topology from bond orders to xtbtopo.mol

molecular dipole:
                 x           y           z       tot (Debye)
 q only:        0.568      -3.106      -2.314
   full:        1.204      -3.451      -2.425      11.148
molecular quadrupole (traceless):
                xx          xy          yy          xz          yz          zz
 q only:      -21.719     -26.007      39.143      20.916       7.870     -17.424
  q+dip:      -13.555     -31.709      49.715      20.744      -1.360     -36.160
   full:      -10.316     -33.033      48.494      20.469      -2.541     -38.178


           -------------------------------------------------
          | TOTAL ENERGY            -1283.620924733104 Eh   |
          | GRADIENT NORM               0.100256999766 Eh/α |
          | HOMO-LUMO GAP               7.932871085803 eV   |
           -------------------------------------------------

------------------------------------------------------------------------
 * finished run on 2022/11/24 at 09:28:08.165     
------------------------------------------------------------------------
 total:
 * wall-time:     0 d,  0 h,  0 min, 21.639 sec
 *  cpu-time:     0 d,  0 h,  0 min, 34.904 sec
 * ratio c/w:     1.613 speedup
 SCF:
 * wall-time:     0 d,  0 h,  0 min, 20.637 sec
 *  cpu-time:     0 d,  0 h,  0 min, 33.198 sec
 * ratio c/w:     1.609 speedup

