756
 energy: -1283.350708457636 gnorm: 0.020162408146 xtb: 6.5.1 (579679a)
o           -3.81562523929771       -6.34105380959572       -4.38616345826452
h           -3.89928990913538       -6.96644437397360       -5.10449853321971
h           -3.45817567816055       -5.51708143554139       -4.78502320075942
o            3.20866709310953       -2.17662137215950        2.43811979299826
h            4.11222028548017       -2.17086758809347        2.07317410495708
h            3.25555304965934       -2.76923867617806        3.20735925153037
o            2.86558124663999        0.74555239743007       -2.55520571533552
h            2.20687905045216        1.27274086261896       -2.04952925535065
h            2.71233165675766        0.95523249727659       -3.50012588016875
o            4.17218359281697       -0.49087155425833       -0.14506477714122
h            5.08735370921009       -0.63253865911500       -0.47724798442216
h            3.70637157623398        0.04372656384300       -0.79236623818637
o            2.26429141782566       -1.80003545199822       -2.29877343432637
h            1.98176908233737       -1.75135362091464       -1.36376193607401
h            2.50980302734801       -0.88173873889513       -2.53039981443683
o           -1.85148163222475       -4.91561382034382       -0.36817195374210
h           -2.09882723557713       -5.67167372289873       -0.92048230170040
h           -1.15098763111499       -4.43214767199838       -0.86064259065195
o            5.28910647569236        0.29938520252380        2.32844636607370
h            5.34355361304072       -0.45711374959030        2.94239100631358
h            4.86434703070018       -0.03531043162427        1.52359690544538
o            0.08442716066702       -3.60347306758048       -1.56399274829713
h           -0.01380048621979       -2.65402612016721       -1.75124576072456
h            0.71261057428598       -3.70979168691658       -0.82861481912333
o            4.49162873697999       -5.06638923355520        1.57845310205579
h            4.24136221029904       -4.18673116606731        1.25988914851098
h            3.78267697715443       -5.38666492474118        2.15244246080261
o            0.43964775461093        2.07160178800264        1.37879715527949
h            0.33432698338226        1.19572049076469        1.79509910795584
h           -0.45032909211959        2.47537706194201        1.40995306218892
o           -0.28114958391588        3.42583998326070        3.91646510984206
h           -0.25216570540491        4.06585570698200        3.17607832063258
h           -0.22046557454598        3.92166410175946        4.75128858888925
o           -0.16713484919379       -0.24701230258314        2.64163255631694
h            0.29731299831601       -0.50710645285199        3.44991235372716
h           -0.22078626401633       -1.08575434526689        2.13993653986301
o            1.55455902847247       -3.75061344032886       -4.03431958520776
h            1.49102504576685       -3.41965835263402       -4.94317962578637
h            1.64372375440007       -2.96855758038575       -3.45928467455780
o           -2.81741793430801        0.42532373603949        2.50961435036548
h           -3.48233970841873       -0.14384288105484        2.92912123794488
h           -1.92660049815592        0.06034553060111        2.66889098708788
o            6.31088643759442        1.72556496340704       -0.04495544322914
h            5.46304111285520        1.70240425295605        0.44339357396316
h            6.55748889071529        2.66843336363084       -0.04286480862314
o            1.21552130842736       -1.15697628825931       -5.12740465269440
h            1.22759054840761       -0.97188197003144       -6.08600319875823
h            0.96321071473603       -0.29356686356359       -4.71796265088135
o           -2.36660186253353        0.99726933077645       -4.64378821906301
h           -2.81687784115816        1.75074613987067       -4.20951530435330
h           -2.86934755219045        0.19413310598894       -4.40511387170668
o           -6.99011317717808       -1.17721308428163        1.03041557000124
h           -7.71463838325840       -1.26371467355602        1.67540768036052
h           -7.01174036177140       -1.99766435236282        0.51545454817779
o           -4.82789868038178       -2.44501592165850       -0.04618475641518
h           -4.75942207093501       -3.25240460625133       -0.59074034919278
h           -5.12317217598690       -2.81002931819370        0.81504763348253
o           -6.79766210303311        1.43972093912681        1.95581847794497
h           -6.39335719464304        2.27242346917097        1.63883991395316
h           -6.23116365699082        0.73878186455797        1.60959774176638
o           -1.11564071749416        3.10338995957677       -2.31879371606937
h           -2.05976713230062        2.97835968227643       -2.51701356237871
h           -0.70025046053263        3.32081888240416       -3.16093918763745
o            5.47592991835917        1.29860939381885       -2.48957072812492
h            4.50708362014612        1.16048417483379       -2.48342277069520
h            5.76191872332611        1.36001654862141       -1.54430282422388
o           -0.65386124623650       -2.70837505582508        1.86075777286419
h            0.03126392799955       -3.24073667643403        1.44759643539640
h           -1.29044700767621       -2.44744851353312        1.12712463632888
o           -3.70072100105810       -1.14403534505998       -3.77270007757974
h           -4.40804857993436       -0.91727914109732       -3.13913780096017
h           -3.36414793078436       -2.00703331069352       -3.49671001328577
o           -1.80385049084384       -1.91608090933138        4.20313990424477
h           -2.46443098535741       -2.59118359749750        4.41864304275104
h           -1.34739083729311       -2.24791603514515        3.40956539307046
o           -5.67837272527747       -0.72889480177539       -1.96149615701826
h           -6.42990249885259       -1.20528821737673       -2.36827350447827
h           -5.38571454352900       -1.32083800405645       -1.24706049340157
o            3.99127824990086       -0.52595652330341       -7.52611360854929
h            3.89852023610655       -0.67611054147258       -6.55061948065271
h            4.95566568722807       -0.48116482995896       -7.65236979383535
o            4.85531089453869       -5.71401073247099       -0.96479741538907
h            4.73317087727012       -5.65301737432966        0.00745289080862
h            3.95361857629482       -5.63288276359783       -1.33715638314231
o           -7.61690615132607       -3.49929868854525       -0.35663212411289
h           -7.57885036215638       -3.11734665908173       -1.25833318645558
h           -7.64246102805494       -4.46524591432784       -0.46758269301880
o            4.35177147205538        4.95267916240500        1.32041179039591
h            5.22322828610444        4.63677494801366        0.97793257307018
h            4.44123954305480        5.19828605441810        2.25537187055296
o          -11.95225795410464       -0.46935860145403       -3.20988307919664
h          -11.53245357685271        0.20558133642674       -2.61139688372207
h          -12.34494339417234       -1.10279260278607       -2.59132734968437
o           -6.97775523332434       -3.06672917137768        4.34336814123505
h           -6.95960079740845       -4.00309220740461        4.61437660649182
h           -6.67742288978805       -2.52444218218985        5.10734416805586
o            3.57431158368606        3.44423496625380       -1.62152225035967
h            3.80494676428797        2.97422335026029       -0.79725633213311
h            2.60971595537821        3.36170779531080       -1.65614343014790
o            5.64053141808785       -1.67238992264065        4.13913803858273
h            4.78308361713974       -1.47170297715951        4.54294960011855
h            6.29244724530511       -1.55596128114257        4.85763603542273
o            5.70074438200179       -2.34824900423616        1.47956470573035
h            5.77770804916135       -2.85961905599278        0.66911614722158
h            6.59391843823548       -2.30440568280425        1.85630615347744
o           -4.61312259380811       -4.87711610591569       -1.11187842654344
h           -5.23886870775333       -5.32727856735061       -1.71606354688849
h           -4.55057959061037       -5.42638314115631       -0.31164427128682
o           -0.23600707480380        5.19585655114343        1.85588011931698
h           -0.69655651277530        5.00518698243364        1.01320304249780
h           -0.55822611180966        6.07929860458031        2.11905546120039
o            1.54023909800136       -1.35061135349422        0.30869215236053
h            1.77991267666503       -0.46001603932083        0.59614656759126
h            1.96576687832218       -1.91566817286982        0.96858184483777
o           -4.62563264034713        0.41177694329663        0.50041938577260
h           -4.86845131871946       -0.51973445468045        0.46328576621750
h           -3.93768386827302        0.49223719653176        1.18124910380723
o            6.54354726230906       -1.07389311726725       -1.06612768828798
h            6.63547380628003       -2.03783289293600       -0.95548862045269
h            7.31220001719530       -0.65313913000377       -0.62950433599627
o            4.27042201830272       -5.91806282343970       -3.92478133797017
h            5.17398461987281       -6.04667485230701       -4.23074325508402
h            4.25650269669400       -5.02938365228874       -3.51275764239662
o            4.21590145516096        3.70812592367079       -4.28070194914926
h            4.89933353835418        4.39512715813315       -4.32061862574553
h            3.93523780480024        3.62580649490847       -3.35680741956515
o           -3.70040502578728        1.46254609120945       -1.85282855419976
h           -4.32230960158874        1.42864482125433       -2.60346221115833
h           -4.06234314260798        0.91839537099408       -1.13681074813023
o           -4.53044775597817       -0.64378421207166       -7.08866408683458
h           -4.67846239664584        0.32310183972380       -7.03868941537102
h           -3.56148452457617       -0.74292117887399       -7.04628189866692
o            8.02867219262334       -1.96562479573492       -5.31867258334895
h            8.72378122553298       -1.27758189936963       -5.25045990037782
h            7.42861982409467       -1.78377142620709       -4.55569056563641
o            8.19766137864528        0.93734961503524       -2.85465121595359
h            8.50284753233082        1.67642618616616       -2.29031705781086
h            7.23292505825061        0.97462463547723       -2.85070750111951
o            3.71368388865533       -3.14807486063087       -0.18862263100035
h            3.96533296770826       -3.39481143223944       -1.09270586422186
h            3.79776498385473       -2.17581390863443       -0.12052931841790
o           -8.50160037004667       -0.21586682677255       -1.15042012946752
h           -9.05601909040936       -0.98078456910589       -0.90400995612850
h           -7.85692097455771       -0.15895423695290       -0.42848345974665
o           -3.46694087744747        6.08364620027736        0.84407840498865
h           -3.07857752107888        6.85334873636636        0.42272451958108
h           -4.39143407557580        6.33144576428723        1.05578294754735
o           -3.31794356497101        3.35631693401070       -3.77528100684058
h           -4.23849451436502        3.63750005162343       -3.91342432482399
h           -2.77939215753603        3.87007058374606       -4.40747724638717
o            4.38212506093933       -3.41834002405638       -2.82142234253649
h            5.12264046183642       -2.87451588001095       -3.15461810802365
h            3.60192507802375       -2.83288189207378       -2.82651569576403
o            0.21670342239474        0.96457153751003       -3.99380733156604
h           -0.72813288614580        0.93891486939007       -4.25355430196769
h            0.53282523356618        1.84921424193513       -4.24309147163825
o            6.98444862750311        5.85771680033812        4.22344767386070
h            6.05634336791038        6.12366432256436        4.12871198905031
h            7.02288078963749        5.32350992630035        5.05019384315801
o            4.53005975411460        2.62029370799674        3.49463547207796
h            4.56769584352268        2.62865490622126        4.46762579970668
h            4.75309093532222        1.71973237104807        3.18374190032189
o            1.72514613764616        2.67425646619033        6.86692281130706
h            1.07045878028611        3.38921283105900        6.88280482343357
h            1.66021480256995        2.28331731586060        5.96861417474950
o            8.92767495421676       -1.65710792505817       -2.54201285895957
h            9.06350481521450       -1.90904363568430       -1.61480969328289
h            8.72116555157600       -0.70762101704901       -2.55901482388211
o           -4.71712157105910        3.05384178747336        3.78496572104205
h           -5.32585914438235        2.36226299193626        4.12191187128109
h           -3.82011442628120        2.72408182786749        3.95770077801628
o           -3.60528331391218       -0.28996356899816        5.33046726405512
h           -3.01051677929291       -0.84386471180859        4.79921510154313
h           -3.30583987629412        0.62097576108744        5.20550674444838
o           -7.57176530211378       -2.37388265655799       -2.75652858865740
h           -7.36457096733649       -3.17744658790597       -3.26592082249729
h           -8.35176686184777       -1.97402657115579       -3.17812903234234
o          -12.18645236627688        3.33919739449886        0.46309391223544
h          -12.80955653136721        4.05801538140944        0.56483267749626
h          -11.63158768565571        3.56701699996284       -0.31327819823516
o            6.29280972117137       -4.27170428988400        3.75353089815842
h            7.09458529878546       -4.17660319670728        4.29826019211987
h            6.00032498570738       -3.34212042372782        3.63332405391076
o           -5.40751071010699        1.33156397906147       -3.93235649806745
h           -5.61416078073478        0.42084651435495       -4.22373365563444
h           -6.24165443501771        1.64404784847011       -3.56554875349905
o           -4.87627156809394        1.97666764791076       -6.52618025642000
h           -5.77692483163384        2.31089178720230       -6.63870446628068
h           -4.80814786131402        1.84774912847137       -5.55872663057768
o           -1.71337225213856       -3.88542711292132        6.68549619713944
h           -2.04407713305644       -4.77307747116777        6.94291062225710
h           -2.33298792685237       -3.21458020266091        7.03355176964792
o           -5.99628807488225        0.96579546009641        4.75858005661279
h           -6.96027718464592        0.81584396950837        4.78521689844145
h           -5.64734495075603        0.29161523344484        4.14254773206638
o           -9.34091343897753        0.56411245566344        1.55521747071169
h           -9.50867013131340        1.30726532851589        0.95070766439600
h           -8.44119283605075        0.75622548003988        1.86961231434297
o            4.91895845133328        5.73485986183671       -2.02213820549183
h            4.34229201343510        5.00616057314291       -1.71636578886079
h            4.99483360829381        6.36319056644211       -1.28080166157101
o           -3.08625290366635       -4.13564723090693        2.00862084114617
h           -2.27233818197888       -4.34960243305677        2.49558224916704
h           -2.81881462087841       -4.00351484906553        1.08999963907295
o           -8.10278574704760        1.03016175782457       -3.59746843103757
h           -8.14799840645250        0.53170612606989       -2.76862949613445
h           -9.00901613406993        1.04898927787811       -3.93999224365883
o           -1.85370465761889       -0.88866418565246       -6.91721963044063
h           -1.02884406494698       -0.79016262219104       -7.39307159049257
h           -1.66145961955446       -1.37592480104557       -6.09172420922750
o            1.28480685309923       -3.35753715859772       -6.80386752665732
h            2.21277174950570       -3.49239633738597       -7.11444007534338
h            0.95953369817714       -2.61269399420176       -7.31867108679512
o           -1.13359819772787       -2.35501770120835       -4.77807874450408
h           -0.20064007808494       -2.13381434733084       -4.97232306838235
h           -1.26571165307111       -1.97561848270784       -3.89337410118398
o            1.18253762348755        2.20375786784207       -1.15820404824514
h            0.99755476974984        2.13269417603489       -0.19901211963640
h            0.35024361620546        2.47083612746309       -1.57171378848115
o            1.18885954580124       -1.73134184777127        4.59239048303155
h            1.17904209711210       -2.45678162846719        3.93726005291239
h            1.04850716002245       -2.20405393711460        5.43370689357666
o           -6.50376181209992        1.74010197515869       -1.13047286031783
h           -6.26878993930000        0.85754038873992       -1.48301739010985
h           -5.89051997329497        1.89862577275087       -0.40612382102097
o           -0.87531093169135       -5.08747986479840       -3.64273988813730
h           -0.68495523255201       -5.16185504629843       -4.59570509752377
h           -0.19045665933009       -4.51979301296664       -3.24788582387078
o           -2.72423600755322        4.82999562798724        3.18473091723003
h           -2.11987565472410        5.34862863087005        3.73684144800684
h           -3.00830012649893        5.40024542358100        2.44886897610123
o           -2.36705511919164        2.11831910216832        4.82390639695208
h           -1.65250145298553        2.56824215512594        4.31940173035840
h           -2.56266765744305        2.72343497792766        5.57293476285949
o           -4.14744895821198       -3.20836498883708        4.26828701960083
h           -3.97738860568944       -3.58521723517412        3.38385266455602
h           -4.67033892839983       -3.84595016968386        4.75482457716127
o          -10.56313810658322        4.23340801573658       -1.47625720773709
h          -10.44145271777261        4.14915371015356       -2.42748268178510
h          -10.23060486313440        5.13247275472422       -1.23748111179005
o           -5.73060075953181        4.36377170694209       -4.46565262148978
h           -6.16829467102395        4.49184274496016       -3.60240202177992
h           -6.33815376826455        3.84831675436443       -5.01262614804333
o          -12.34086758035061       -1.90535147942731       -0.86026567818684
h          -11.41109847121164       -1.97684589559417       -0.56001390884330
h          -12.66834625776812       -1.10018092952839       -0.43257441806716
o           -5.92591543441103       -3.72568731034193        1.97624786724960
h           -6.25384542498649       -3.45025366099576        2.85108588198470
h           -6.72206622094640       -3.92406646643646        1.47012883780553
o            1.01407398001703        6.41565558737414       -5.48477915243819
h            1.42362818342015        5.69974688539398       -5.98653220928734
h            1.72556897750670        6.74785160035410       -4.91692747362175
o            1.89880465733452        5.28051016908986        0.26012232116637
h            1.20105948356928        5.15409206971845        0.93538430471772
h            2.72953381686196        4.98822683370710        0.67203656045030
o            2.68734470787613        1.22675006008589       -5.15876352078482
h            2.20740470080332        1.65737287683371       -5.87100148310560
h            3.64064525873179        1.33044690026497       -5.31885563353199
o            0.62560266895842        1.92528835307749       -7.17014571987488
h           -0.34322788085616        2.01754813261778       -7.15482977759578
h            0.97594057865524        2.61566286172648       -7.73422802144125
o            9.25131927768974       -4.17285945665425       -4.34993302512609
h           10.15960867662142       -3.88228097581313       -4.19556762304774
h            8.79316727329550       -3.37407787186287       -4.69707015751969
o            9.61203807502335        0.19521358608888       -5.02107600695937
h            9.11630179111652        0.54142275836849       -4.25034737266505
h           10.52767007067380        0.07626567692445       -4.72435026638856
o           -0.83938987722393        6.28853667196821        4.70852810825652
h            0.10668227510243        6.17595976101253        4.45013222112971
h           -1.07014931571483        7.19970557353263        4.52663687193197
o            8.52468597340455        0.26814587782226        0.07901160926957
h            7.83684858232012        0.94663425977418        0.21003847881328
h            9.18759697620164        0.64080721624792       -0.53480205188251
o            8.26813231890693       -2.41523659192134        2.12558682059433
h            8.67203961113389       -2.48709800825450        1.23503329171722
h            8.71565762558694       -3.08129332782682        2.66352870608537
o            3.84954692075029        2.23061068455073        0.71240764580497
h            3.82345032237157        3.03351599035940        1.25023850030678
h            3.33491623619629        1.54923119016679        1.19084913081677
o           -6.14188328227415       -1.03790264070670       -5.00312914632430
h           -5.95622345429909       -1.88945505670202       -4.55094165027715
h           -5.45637005577410       -0.95255921982428       -5.70076553179990
o           -9.85163175059470       -2.09172605993577        0.13716684237408
h           -9.17238565531313       -2.79752519375358        0.09936951558084
h           -9.73591144593048       -1.62873255759122        0.97622235202920
o           -5.10361689220131       -0.96385889257621        3.06794250806554
h           -5.76932014313968       -1.18184912515171        2.39418587237436
h           -4.89666061250202       -1.77770933656947        3.55944668396486
o            0.88308884286985        8.29991042165875       -2.30701517686202
h            0.23986104604658        7.65209856526084       -2.66468986387771
h            1.69936871703777        8.09143733480013       -2.78996709115505
o           -2.42154620293622        0.67801422049576        7.96718975552768
h           -2.62341106280771       -0.25066841814347        8.13371825857741
h           -1.47782771929129        0.77968844496286        8.14964903919941
o            7.03272621872407        3.58074537768911        2.88122175908882
h            6.18527749434785        3.15813796089722        3.12721164216638
h            7.05561814820072        4.43053290084808        3.37034864020904
o            2.51663951961357        0.43749509221028        2.15610364466299
h            2.14676899282896        0.83961113370314        2.95611505084051
h            2.83020390912214       -0.45248748601957        2.39865627575977
o           11.88314827631616       -1.34271926862663       -0.77679175253178
h           12.78885347278782       -1.02981534525691       -0.85655836653108
h           11.34536596941011       -0.58703724063656       -1.10716740118002
o            8.65647323607787        3.34887648990094       -4.46581547247490
h            8.34967335824190        2.89419727178483       -5.25950429803858
h            7.89187825161460        3.55124455622579       -3.90110522246693
o            6.10288941599165       -1.48065071632959       -3.60422244111062
h            6.29938071886210       -1.12317742349480       -2.71422553958194
h            5.38982912294752       -0.96838028705644       -4.00902100425460
o          -10.79301586605551        1.16566103635332       -1.55699345774667
h           -9.92579711171344        0.75941852024364       -1.36749995042750
h          -11.36036799091823        0.98366780293804       -0.78713261887236
o          -10.36783410760287        3.64862393019140        2.54429951254747
h          -10.94999483179139        3.40021064033847        1.80802004565728
h          -10.12016029228108        4.58544477937587        2.38834658401599
o           -5.83791318607549        7.02077783383283        1.55216213879519
h           -6.35043325142545        6.49199558539156        2.19783212809169
h           -6.36620417726212        7.06471909055630        0.73860226597457
o           -3.57146365805023        3.61110121377278       -0.44299960779986
h           -2.94986300362051        3.30307121005099        0.25213458410790
h           -3.63592640826937        2.85705308203083       -1.07987439031245
o            5.41080453550153        1.28355534171555       -5.22689193326409
h            5.51238750847681        1.38805702832036       -4.27120536643011
h            5.58220230599965        2.15972565382708       -5.63190868608786
o           -7.02652486119965        5.69301593411894        3.55580161860314
h           -7.29642524315921        4.75291154443875        3.56823534644966
h           -6.30643557480726        5.76244418477741        4.20191079955931
o           -0.67391512537606        6.36156192139302       -3.33765240364227
h           -0.32800099596892        6.37443171629882       -4.24877320581132
h           -1.62575734576727        6.57212472155748       -3.35129927197626
o            6.61257867450442       -0.31057534778585       -6.98753687711662
h            6.19638314031770        0.19645590197340       -6.25655320753516
h            7.14748803297721       -0.99710183599195       -6.55239420128831
o           -8.19788832092406       -1.25721267665926       -6.55521286482669
h           -7.46747026438995       -1.10609368847977       -5.88334037526103
h           -7.76322253045086       -1.24608318039206       -7.40988599853245
o           -0.58835593081422        0.17177636736286        5.48423620108845
h           -1.28860572004692        0.83636764180442        5.33836615952231
h           -0.90878596018560       -0.67686820730222        5.13398574608405
o           -5.47386196445141       -3.51976854904621       -4.17513958644283
h           -4.61054146284768       -3.59514749225292       -3.73797747290168
h           -5.33166232414429       -3.69553455403898       -5.11542453920597
o           -3.02261662307032       -3.60897565296972       -2.84598507855799
h           -2.26569585949549       -4.13042897189070       -3.16569628809602
h           -3.43891539534771       -4.11197224530340       -2.12306413032832
o           -8.92209816603370        2.59828151163926       -0.09984933203635
h           -9.54843833862391        2.98792741438874       -0.73923040641648
h           -8.20342849770979        2.16525718391380       -0.59125146094565
o           -6.10038945862404       -6.25977336083659       -2.81570660836725
h           -6.78957316098334       -5.71196575176047       -3.24133777297823
h           -5.36877376450080       -6.31037167274235       -3.45139508958951
o           11.90160989710367        1.26168294964482        2.56910975034551
h           11.35239064505864        0.52074382848713        2.21370161101902
h           11.27471129116523        1.80822373893853        3.05716197316549
o           -2.09027226407074        2.15886520850709       -6.97805877529612
h           -2.15422185093761        1.57722883496922       -6.17870762905772
h           -2.99804417035031        2.20132364156765       -7.29698302220733
o            6.64022058663996        3.74068548185035       -2.60550451876879
h            6.15598505436578        4.56212125323959       -2.40214441103615
h            5.99692438852280        3.01297582166495       -2.62090367104005
o          -12.58360480592987        0.58106916189009        0.42541364153150
h          -12.30842166196055        0.33122975786966        1.33489560105207
h          -12.73445692323457        1.53539375995068        0.46886256350029
o            2.21581830152294        3.72953692938472        2.59421971761578
h            2.95049458526160        3.25664611485809        3.01940592736847
h            1.61517180524932        3.08784627051871        2.17138026134563
o            0.46323208842277        0.49631896115284        7.91175119267083
h            0.95544753985642        1.32243687980815        7.75232051886221
h            0.09055696759835        0.25830366283529        7.03854462788440
o           -3.41266581648296       -1.93753049404152        7.45662524109637
h           -3.38627921473081       -1.32542903493070        6.69161527497159
h           -4.34121984603444       -2.18778961132339        7.51449968702698
o            0.93000126841713       -3.49391784414482        6.61796131080524
h            1.24954305307087       -4.34178059758261        6.27040813445017
h           -0.03010908740674       -3.60804925425554        6.75546231824789
o            0.62943203180297        3.56926113225468       -4.49534988423481
h            1.26265513495468        3.68971528837887       -5.23667458295663
h            1.04182430084277        4.01928432970283       -3.73741447625357
o            4.34130890072591        2.80399008305412        6.22990266460788
h            3.43663813345884        2.94385363817805        6.55882809209110
h            4.64190707273726        1.97043685188873        6.62637011592466
o           -0.86900644137618       -8.19690822941510        0.02997199921940
h           -1.37736996641182       -7.83658340074462       -0.70832220458393