      -----------------------------------------------------------      
     |                   =====================                   |     
     |                           x T B                           |     
     |                   =====================                   |     
     |                         S. Grimme                         |     
     |          Mulliken Center for Theoretical Chemistry        |     
     |                    University of Bonn                     |     
      -----------------------------------------------------------      

   * xtb version 6.5.1 (579679a) compiled by 'ehlert@majestix' on 2022-07-11

   xtb is free software: you can redistribute it and/or modify it under
   the terms of the GNU Lesser General Public License as published by
   the Free Software Foundation, either version 3 of the License, or
   (at your option) any later version.
   
   xtb is distributed in the hope that it will be useful,
   but WITHOUT ANY WARRANTY; without even the implied warranty of
   MERCHANTABILITY or FITNESS FOR A PARTICULAR PURPOSE.  See the
   GNU Lesser General Public License for more details.
   
   Cite this work as:
   * C. Bannwarth, E. Caldeweyher, S. Ehlert, A. Hansen, P. Pracht,
     J. Seibert, S. Spicher, S. Grimme, WIREs Comput. Mol. Sci., 2020, 11,
     e01493. DOI: 10.1002/wcms.1493
   
   for GFN2-xTB:
   * C. Bannwarth, S. Ehlert and S. Grimme., J. Chem. Theory Comput., 2019,
     15, 1652-1671. DOI: 10.1021/acs.jctc.8b01176
   for GFN1-xTB:
   * S. Grimme, C. Bannwarth, P. Shushkov, J. Chem. Theory Comput., 2017,
     13, 1989-2009. DOI: 10.1021/acs.jctc.7b00118
   for GFN0-xTB:
   * P. Pracht, E. Caldeweyher, S. Ehlert, S. Grimme, ChemRxiv, 2019, preprint.
     DOI: 10.26434/chemrxiv.8326202.v1
   for GFN-FF:
   * S. Spicher and S. Grimme, Angew. Chem. Int. Ed., 2020, 59, 15665-15673.
     DOI: 10.1002/anie.202004239
   
   for ALPB and GBSA implicit solvation:
   * S. Ehlert, M. Stahn, S. Spicher, S. Grimme, J. Chem. Theory Comput.,
     2021, 17, 4250-4261. DOI: 10.1021/acs.jctc.1c00471
   
   for DFT-D4:
   * E. Caldeweyher, C. Bannwarth and S. Grimme, J. Chem. Phys., 2017,
     147, 034112. DOI: 10.1063/1.4993215
   * E. Caldeweyher, S. Ehlert, A. Hansen, H. Neugebauer, S. Spicher,
     C. Bannwarth and S. Grimme, J. Chem. Phys., 2019, 150, 154122.
     DOI: 10.1063/1.5090222
   * E. Caldeweyher, J.-M. Mewes, S. Ehlert and S. Grimme, Phys. Chem. Chem. Phys.
     2020, 22, 8499-8512. DOI: 10.1039/D0CP00502A
   
   for sTDA-xTB:
   * S. Grimme and C. Bannwarth, J. Chem. Phys., 2016, 145, 054103.
     DOI: 10.1063/1.4959605
   
   in the mass-spec context:
   * V. Asgeirsson, C. Bauer and S. Grimme, Chem. Sci., 2017, 8, 4879.
     DOI: 10.1039/c7sc00601b
   * J. Koopman and S. Grimme, ACS Omega 2019, 4, 12, 15120-15133.
     DOI: 10.1021/acsomega.9b02011
   
   for metadynamics refer to:
   * S. Grimme, J. Chem. Theory Comput., 2019, 155, 2847-2862
     DOI: 10.1021/acs.jctc.9b00143
   
   for SPH calculations refer to:
   * S. Spicher and S. Grimme, J. Chem. Theory Comput., 2021, 17, 1701-1714
     DOI: 10.1021/acs.jctc.0c01306
   
   with help from (in alphabetical order)
   P. Atkinson, C. Bannwarth, F. Bohle, G. Brandenburg, E. Caldeweyher
   M. Checinski, S. Dohm, S. Ehlert, S. Ehrlich, I. Gerasimov, C. Hölzer
   A. Katbashev, J. Koopman, C. Lavigne, S. Lehtola, F. März, M. Müller,
   F. Musil, H. Neugebauer, J. Pisarek, C. Plett, P. Pracht, F. Pultar,
   J. Seibert, P. Shushkov, S. Spicher, M. Stahn, M. Steiner, T. Strunk,
   J. Stückrath, T. Rose, and J. Unsleber
   
 * started run on 2022/11/24 at 09:07:52.367     

           -------------------------------------------------
          |                Calculation Setup                |
           -------------------------------------------------

          program call               : xtb solvent_cluster.coord --gfn2 --input xcontrol --opt 1
          hostname                   : cn0341
          coordinate file            : solvent_cluster.coord
          omp threads                :                     2

   ID    Z sym.   atoms
    1    8 o      1, 4, 7, 10, 13, 16, 19, 22, 25, 28, 31, 34, 37, 40, 43,
                  46, 49, 52, 55, 58, 61, 64, 67, 70, 73, 76, 79, 82, 85, 88,
                  91, 94, 97, 100, 103, 106, 109, 112, 115, 118, 121, 124,
                  127, 130, 133, 136, 139, 142, 145, 148, 151, 154, 157, 160,
                  163, 166, 169, 172, 175, 178, 181, 184, 187, 190, 193, 196,
                  199, 202, 205, 208, 211, 214, 217, 220, 223, 226, 229, 232,
                  235, 238, 241, 244, 247, 250, 253, 256, 259, 262, 265, 268,
                  271, 274, 277, 280, 283, 286, 289, 292, 295, 298, 301, 304,
                  307, 310, 313, 316, 319, 322, 325, 328, 331, 334, 337, 340,
                  343, 346, 349, 352, 355, 358, 361, 364, 367, 370, 373, 376,
                  379, 382, 385, 388, 391, 394, 397, 400, 403, 406, 409, 412,
                  415, 418, 421, 424, 427, 430, 433, 436, 439, 442, 445, 448,
                  451, 454, 457, 460, 463, 466, 469, 472, 475, 478, 481, 484,
                  487, 490, 493, 496, 499, 502, 505, 508, 511, 514, 517, 520,
                  523, 526, 529, 532, 535, 538, 541, 544, 547, 550, 553, 556,
                  559, 562, 565, 568, 571, 574, 577, 580, 583, 586, 589, 592,
                  595, 598, 601, 604, 607, 610, 613, 616, 619, 622, 625, 628,
                  631, 634, 637, 640, 643, 646, 649, 652, 655, 658, 661, 664,
                  667, 670, 673, 676, 679, 682, 685, 688, 691, 694, 697, 700,
                  703, 706, 709, 712, 715, 718, 721, 724, 727, 730, 733, 736,
                  739, 742, 745, 748, 751, 754
    2    1 h      2, 3, 5, 6, 8, 9, 11, 12, 14, 15, 17, 18, 20, 21, 23, 24,
                  26, 27, 29, 30, 32, 33, 35, 36, 38, 39, 41, 42, 44, 45, 47,
                  48, 50, 51, 53, 54, 56, 57, 59, 60, 62, 63, 65, 66, 68, 69,
                  71, 72, 74, 75, 77, 78, 80, 81, 83, 84, 86, 87, 89, 90, 92,
                  93, 95, 96, 98, 99, 101, 102, 104, 105, 107, 108, 110, 111,
                  113, 114, 116, 117, 119, 120, 122, 123, 125, 126, 128, 129,
                  131, 132, 134, 135, 137, 138, 140, 141, 143, 144, 146, 147,
                  149, 150, 152, 153, 155, 156, 158, 159, 161, 162, 164, 165,
                  167, 168, 170, 171, 173, 174, 176, 177, 179, 180, 182, 183,
                  185, 186, 188, 189, 191, 192, 194, 195, 197, 198, 200, 201,
                  203, 204, 206, 207, 209, 210, 212, 213, 215, 216, 218, 219,
                  221, 222, 224, 225, 227, 228, 230, 231, 233, 234, 236, 237,
                  239, 240, 242, 243, 245, 246, 248, 249, 251, 252, 254, 255,
                  257, 258, 260, 261, 263, 264, 266, 267, 269, 270, 272, 273,
                  275, 276, 278, 279, 281, 282, 284, 285, 287, 288, 290, 291,
                  293, 294, 296, 297, 299, 300, 302, 303, 305, 306, 308, 309,
                  311, 312, 314, 315, 317, 318, 320, 321, 323, 324, 326, 327,
                  329, 330, 332, 333, 335, 336, 338, 339, 341, 342, 344, 345,
                  347, 348, 350, 351, 353, 354, 356, 357, 359, 360, 362, 363,
                  365, 366, 368, 369, 371, 372, 374, 375, 377, 378, 380, 381,
                  383, 384, 386, 387, 389, 390, 392, 393, 395, 396, 398, 399,
                  401, 402, 404, 405, 407, 408, 410, 411, 413, 414, 416, 417,
                  419, 420, 422, 423, 425, 426, 428, 429, 431, 432, 434, 435,
                  437, 438, 440, 441, 443, 444, 446, 447, 449, 450, 452, 453,
                  455, 456, 458, 459, 461, 462, 464, 465, 467, 468, 470, 471,
                  473, 474, 476, 477, 479, 480, 482, 483, 485, 486, 488, 489,
                  491, 492, 494, 495, 497, 498, 500, 501, 503, 504, 506, 507,
                  509, 510, 512, 513, 515, 516, 518, 519, 521, 522, 524, 525,
                  527, 528, 530, 531, 533, 534, 536, 537, 539, 540, 542, 543,
                  545, 546, 548, 549, 551, 552, 554, 555, 557, 558, 560, 561,
                  563, 564, 566, 567, 569, 570, 572, 573, 575, 576, 578, 579,
                  581, 582, 584, 585, 587, 588, 590, 591, 593, 594, 596, 597,
                  599, 600, 602, 603, 605, 606, 608, 609, 611, 612, 614, 615,
                  617, 618, 620, 621, 623, 624, 626, 627, 629, 630, 632, 633,
                  635, 636, 638, 639, 641, 642, 644, 645, 647, 648, 650, 651,
                  653, 654, 656, 657, 659, 660, 662, 663, 665, 666, 668, 669,
                  671, 672, 674, 675, 677, 678, 680, 681, 683, 684, 686, 687,
                  689, 690, 692, 693, 695, 696, 698, 699, 701, 702, 704, 705,
                  707, 708, 710, 711, 713, 714, 716, 717, 719, 720, 722, 723,
                  725, 726, 728, 729, 731, 732, 734, 735, 737, 738, 740, 741,
                  743, 744, 746, 747, 749, 750, 752, 753, 755, 756

molecular fragmentation (1/2 indicates fragments):
111222222222222222222222222222222222222222222222222222222222222222222222
222222222222222222222222222222222222222222222222222222222222222222222222
222222222222222222222222222222222222222222222222222222222222222222222222
222222222222222222222222222222222222222222222222222222222222222222222222
222222222222222222222222222222222222222222222222222222222222222222222222
222222222222222222222222222222222222222222222222222222222222222222222222
222222222222222222222222222222222222222222222222222222222222222222222222
222222222222222222222222222222222222222222222222222222222222222222222222
222222222222222222222222222222222222222222222222222222222222222222222222
222222222222222222222222222222222222222222222222222222222222222222222222
222222222222222222222222222222222222
# atoms in fragment 1/2:     3   753
 fragment masses (1/2) :       18.02     4521.84
CMA distance (Bohr)    :  15.595
constraining FC (au)   :  0.0500

           -------------------------------------------------
          |                 G F N 2 - x T B                 |
           -------------------------------------------------

        Reference                      10.1021/acs.jctc.8b01176
      * Hamiltonian:
        H0-scaling (s, p, d)           1.850000    2.230000    2.230000
        zeta-weighting                 0.500000
      * Dispersion:
        s8                             2.700000
        a1                             0.520000
        a2                             5.000000
        s9                             5.000000
      * Repulsion:
        kExp                           1.500000    1.000000
        rExp                           1.000000
      * Coulomb:
        alpha                          2.000000
        third order                    shell-resolved
        anisotropic                    true
        a3                             3.000000
        a5                             4.000000
        cn-shift                       1.200000
        cn-exp                         4.000000
        max-rad                        5.000000


          ...................................................
          :                      SETUP                      :
          :.................................................:
          :  # basis functions                1512          :
          :  # atomic orbitals                1512          :
          :  # shells                         1008          :
          :  # electrons                      2016          :
          :  max. iterations                   250          :
          :  Hamiltonian                  GFN2-xTB          :
          :  restarted?                      false          :
          :  GBSA solvation                  false          :
          :  PC potential                    false          :
          :  electronic temp.          300.0000000     K    :
          :  accuracy                    1.0000000          :
          :  -> integral cutoff          0.2500000E+02      :
          :  -> integral neglect         0.1000000E-07      :
          :  -> SCF convergence          0.1000000E-05 Eh   :
          :  -> wf. convergence          0.1000000E-03 e    :
          :  Broyden damping             0.4000000          :
          ...................................................

 iter      E             dE          RMSdq      gap      omega  full diag
   1  -1290.9987882 -0.129100E+04  0.407E+00    8.48       0.0  T
   2  -1291.0678496 -0.690614E-01  0.241E+00    8.41       1.0  T
   3  -1291.0980862 -0.302365E-01  0.206E-01    7.94       1.0  T
   4  -1291.1029912 -0.490504E-02  0.449E-02    8.14       1.0  T
   5  -1291.1030574 -0.662254E-04  0.304E-02    8.11       1.0  T
   6  -1291.1030945 -0.370890E-04  0.408E-03    8.13       1.0  T
   7  -1291.1030967 -0.213115E-05  0.770E-04    8.13       4.7  T
   8  -1291.1030967 -0.352131E-07  0.391E-04    8.13       9.3  T
   9  -1291.1030967 -0.148284E-07  0.656E-05    8.13      55.5  T

   *** convergence criteria satisfied after 9 iterations ***

         #    Occupation            Energy/Eh            Energy/eV
      -------------------------------------------------------------
         1        2.0000           -0.6927892             -18.8518
       ...           ...                  ...                  ...
      1002        2.0000           -0.4116069             -11.2004
      1003        2.0000           -0.4109285             -11.1819
      1004        2.0000           -0.4102058             -11.1623
      1005        2.0000           -0.4101589             -11.1610
      1006        2.0000           -0.4082216             -11.1083
      1007        2.0000           -0.4081702             -11.1069
      1008        2.0000           -0.4055930             -11.0367 (HOMO)
      1009                         -0.1068667              -2.9080 (LUMO)
      1010                         -0.0958191              -2.6074
      1011                         -0.0859689              -2.3393
      1012                         -0.0807392              -2.1970
      1013                         -0.0705338              -1.9193
       ...                                ...                  ...
      1512                          0.4338136              11.8047
      -------------------------------------------------------------
                  HL-Gap            0.2987263 Eh            8.1288 eV
             Fermi-level           -0.2562298 Eh           -6.9724 eV

 SCC (total)                   0 d,  0 h,  0 min, 22.641 sec
 SCC setup                      ...        0 min,  0.042 sec (  0.187%)
 Dispersion                     ...        0 min,  0.118 sec (  0.523%)
 classical contributions        ...        0 min,  0.023 sec (  0.103%)
 integral evaluation            ...        0 min,  0.623 sec (  2.754%)
 iterations                     ...        0 min,  9.129 sec ( 40.322%)
 molecular gradient             ...        0 min, 12.630 sec ( 55.785%)
 printout                       ...        0 min,  0.074 sec (  0.327%)

         :::::::::::::::::::::::::::::::::::::::::::::::::::::
         ::                     SUMMARY                     ::
         :::::::::::::::::::::::::::::::::::::::::::::::::::::
         :: total energy           -1283.338350995348 Eh    ::
         :: gradient norm              0.043853640939 Eh/a0 ::
         :: HOMO-LUMO gap              8.128757401084 eV    ::
         ::.................................................::
         :: SCC energy             -1291.103096708566 Eh    ::
         :: -> isotropic ES            7.172212265278 Eh    ::
         :: -> anisotropic ES         -1.627677456935 Eh    ::
         :: -> anisotropic XC         -0.126728346527 Eh    ::
         :: -> dispersion             -0.788156421601 Eh    ::
         :: repulsion energy           7.610484923490 Eh    ::
         :: add. restraining           0.000000000000 Eh    ::
         :: total charge              -0.000000000000 e     ::
         :::::::::::::::::::::::::::::::::::::::::::::::::::::

      ----------------------------------------------------------- 
     |                       L-ANC optimizer                     |
      ----------------------------------------------------------- 
          low memory version by Sebastian Ehlert

          ...................................................
          :                      SETUP                      :
          :.................................................:
          :   energy convergence        0.1000000E-05 Eh    :
          :   grad. convergence         0.8000000E-03 Eh/a0 :
          :   optimization log               true           :
          :   writing optlog all                1     steps :
          :   Hessian reset                    20     steps :
          :   maximium step len.        1.0000000     a0    :
          :   LBFGS images                     20           :
          ...................................................
 * calculating model hessian...
Using Lindh-Hessian (1995)
 Shifting diagonal of input Hessian by   1.000007584633721E-002
 Lowest  eigenvalues of input Hessian
    0.010000   -0.000000   -0.000000   -0.000000   -0.000000   -0.000000
   -0.000000   -0.000000   -0.000000   -0.000000   -0.000000   -0.000000
   -0.000000   -0.000000   -0.000000   -0.000000   -0.000000   -0.000000
 Highest eigenvalues
    0.312281    0.319163    1.186579    1.227512    1.440207    1.449242
 

........................................................................
.............................. CYCLE    1 ..............................
........................................................................
   1  -1291.1034864 -0.129110E+04  0.191E-02    8.13       0.0  T
   2  -1291.1034975 -0.111231E-04  0.115E-02    8.13       1.0  T
   3  -1291.1035003 -0.279796E-05  0.186E-03    8.13       2.0  T
   4  -1291.1035007 -0.337295E-06  0.359E-04    8.13      10.1  T
   5  -1291.1035007 -0.381283E-08  0.590E-05    8.13      61.7  T
     SCC iter.                  ...        0 min,  3.907 sec
     gradient                   ...        0 min, 12.450 sec
 * total energy  : -1283.3408882 Eh     change       -0.2537174E-02 Eh
   gradient norm :     0.0084785 Eh/a0  converged?    E=F G=F D=F
   step length   :     0.3669732 a0

........................................................................
.............................. CYCLE    2 ..............................
........................................................................
   1  -1291.1031403 -0.129110E+04  0.131E-02    8.13       0.0  T
   2  -1291.1031527 -0.123826E-04  0.787E-03    8.13       1.0  T
   3  -1291.1031549 -0.226220E-05  0.202E-03    8.13       1.8  T
   4  -1291.1031552 -0.247383E-06  0.295E-04    8.13      12.3  T
   5  -1291.1031552 -0.460818E-08  0.564E-05    8.13      64.5  T
     SCC iter.                  ...        0 min,  3.664 sec
     gradient                   ...        0 min, 12.699 sec
 * total energy  : -1283.3422053 Eh     change       -0.1317156E-02 Eh
   gradient norm :     0.0089239 Eh/a0  converged?    E=F G=F D=F
   step length   :     0.4750399 a0

........................................................................
.............................. CYCLE    3 ..............................
........................................................................
   1  -1291.1050931 -0.129111E+04  0.761E-03    8.13       0.0  T
   2  -1291.1050987 -0.559273E-05  0.426E-03    8.13       1.0  T
   3  -1291.1050995 -0.821799E-06  0.129E-03    8.13       2.8  T
   4  -1291.1050996 -0.579325E-07  0.161E-04    8.13      22.7  T
   5  -1291.1050996 -0.124146E-08  0.299E-05    8.13     121.5  T
     SCC iter.                  ...        0 min,  3.520 sec
     gradient                   ...        0 min, 12.815 sec
 * total energy  : -1283.3425422 Eh     change       -0.3368710E-03 Eh
   gradient norm :     0.0072784 Eh/a0  converged?    E=F G=F D=F
   step length   :     0.2712126 a0

........................................................................
.............................. CYCLE    4 ..............................
........................................................................
   1  -1291.1044976 -0.129110E+04  0.512E-03    8.13       0.0  T
   2  -1291.1044983 -0.690118E-06  0.308E-03    8.13       1.2  T
   3  -1291.1044984 -0.135943E-06  0.454E-04    8.13       8.0  T
   4  -1291.1044984 -0.227706E-07  0.948E-05    8.13      38.4  T
     SCC iter.                  ...        0 min,  2.757 sec
     gradient                   ...        0 min, 12.706 sec
 * total energy  : -1283.3426739 Eh     change       -0.1317040E-03 Eh
   gradient norm :     0.0077003 Eh/a0  converged?    E=F G=F D=F
   step length   :     0.1212988 a0

........................................................................
.............................. CYCLE    5 ..............................
........................................................................
   1  -1291.1034937 -0.129110E+04  0.110E-02    8.12       0.0  T
   2  -1291.1034970 -0.337196E-05  0.655E-03    8.12       1.0  T
   3  -1291.1034976 -0.551799E-06  0.100E-03    8.12       3.6  T
   4  -1291.1034977 -0.110280E-06  0.177E-04    8.12      20.5  T
   5  -1291.1034977 -0.120872E-08  0.365E-05    8.12      99.6  T
     SCC iter.                  ...        0 min,  3.402 sec
     gradient                   ...        0 min, 12.568 sec
 * total energy  : -1283.3428266 Eh     change       -0.1527373E-03 Eh
   gradient norm :     0.0075024 Eh/a0  converged?    E=F G=F D=F
   step length   :     0.2280707 a0

........................................................................
.............................. CYCLE    6 ..............................
........................................................................
   1  -1291.1044386 -0.129110E+04  0.205E-03    8.12       0.0  T
   2  -1291.1044387 -0.118658E-06  0.124E-03    8.12       2.9  T
   3  -1291.1044387 -0.298878E-07  0.195E-04    8.12      18.7  T
   4  -1291.1044387 -0.371028E-08  0.483E-05    8.12      75.3  T
     SCC iter.                  ...        0 min,  2.529 sec
     gradient                   ...        0 min, 12.525 sec
 * total energy  : -1283.3428674 Eh     change       -0.4077594E-04 Eh
   gradient norm :     0.0046416 Eh/a0  converged?    E=F G=F D=F
   step length   :     0.0308448 a0

........................................................................
.............................. CYCLE    7 ..............................
........................................................................
   1  -1291.1048074 -0.129110E+04  0.501E-03    8.13       0.0  T
   2  -1291.1048078 -0.474574E-06  0.305E-03    8.13       1.2  T
   3  -1291.1048080 -0.139827E-06  0.364E-04    8.13      10.0  T
   4  -1291.1048080 -0.157527E-07  0.939E-05    8.13      38.7  T
     SCC iter.                  ...        0 min,  2.535 sec
     gradient                   ...        0 min, 12.513 sec
 * total energy  : -1283.3429212 Eh     change       -0.5376220E-04 Eh
   gradient norm :     0.0027663 Eh/a0  converged?    E=F G=F D=F
   step length   :     0.0832205 a0

........................................................................
.............................. CYCLE    8 ..............................
........................................................................
   1  -1291.1050318 -0.129111E+04  0.349E-03    8.13       0.0  T
   2  -1291.1050320 -0.172648E-06  0.211E-03    8.13       1.7  T
   3  -1291.1050320 -0.539026E-07  0.221E-04    8.13      16.5  T
   4  -1291.1050321 -0.551336E-08  0.595E-05    8.13      61.1  T
     SCC iter.                  ...        0 min,  2.523 sec
     gradient                   ...        0 min, 12.514 sec
 * total energy  : -1283.3429447 Eh     change       -0.2352190E-04 Eh
   gradient norm :     0.0025207 Eh/a0  converged?    E=F G=F D=F
   step length   :     0.0667622 a0

........................................................................
.............................. CYCLE    9 ..............................
........................................................................
   1  -1291.1054809 -0.129111E+04  0.245E-03    8.13       0.0  T
   2  -1291.1054810 -0.794785E-07  0.146E-03    8.13       2.5  T
   3  -1291.1054810 -0.205803E-07  0.153E-04    8.13      23.8  T
   4  -1291.1054810 -0.261275E-08  0.382E-05    8.13      95.2  T
     SCC iter.                  ...        0 min,  2.659 sec
     gradient                   ...        0 min, 12.833 sec
 * total energy  : -1283.3429543 Eh     change       -0.9590706E-05 Eh
   gradient norm :     0.0020051 Eh/a0  converged?    E=F G=F D=F
   step length   :     0.0433822 a0

........................................................................
.............................. CYCLE   10 ..............................
........................................................................
   1  -1291.1050527 -0.129111E+04  0.330E-03    8.13       0.0  T
   2  -1291.1050528 -0.133862E-06  0.201E-03    8.13       1.8  T
   3  -1291.1050529 -0.596419E-07  0.194E-04    8.13      18.7  T
   4  -1291.1050529 -0.318073E-08  0.651E-05    8.13      55.9  T
     SCC iter.                  ...        0 min,  2.647 sec
     gradient                   ...        0 min, 12.553 sec
 * total energy  : -1283.3429563 Eh     change       -0.2038600E-05 Eh
   gradient norm :     0.0025826 Eh/a0  converged?    E=F G=F D=F
   step length   :     0.0609238 a0

........................................................................
.............................. CYCLE   11 ..............................
........................................................................
   1  -1291.1052778 -0.129111E+04  0.196E-03    8.13       0.0  T
   2  -1291.1052778 -0.496138E-07  0.119E-03    8.13       3.1  T
   3  -1291.1052779 -0.210341E-07  0.120E-04    8.13      30.3  T
   4  -1291.1052779 -0.131240E-08  0.397E-05    8.13      91.7  T
     SCC iter.                  ...        0 min,  2.650 sec
     gradient                   ...        0 min, 13.142 sec
 * total energy  : -1283.3429618 Eh     change       -0.5473740E-05 Eh
   gradient norm :     0.0010854 Eh/a0  converged?    E=F G=F D=F
   step length   :     0.0369416 a0

........................................................................
.............................. CYCLE   12 ..............................
........................................................................
   1  -1291.1051767 -0.129111E+04  0.618E-04    8.13       0.0  T
   2  -1291.1051767 -0.105886E-07  0.371E-04    8.13       9.8  T
   3  -1291.1051767 -0.201385E-08  0.565E-05    8.13      64.3  T
     SCC iter.                  ...        0 min,  1.995 sec
     gradient                   ...        0 min, 13.125 sec
 * total energy  : -1283.3429633 Eh     change       -0.1526035E-05 Eh
   gradient norm :     0.0003039 Eh/a0  converged?    E=F G=T D=F
   step length   :     0.0093183 a0

........................................................................
.............................. CYCLE   13 ..............................
........................................................................
   1  -1291.1051281 -0.129111E+04  0.592E-04    8.13       0.0  T
   2  -1291.1051281 -0.567115E-08  0.359E-04    8.13      10.1  T
   3  -1291.1051281 -0.140312E-08  0.390E-05    8.13      93.2  T
     SCC iter.                  ...        0 min,  1.991 sec
     gradient                   ...        0 min, 13.191 sec
 * total energy  : -1283.3429637 Eh     change       -0.3603971E-06 Eh
   gradient norm :     0.0001721 Eh/a0  converged?    E=T G=T D=F
   step length   :     0.0090973 a0

   *** GEOMETRY OPTIMIZATION CONVERGED AFTER 13 CYCLES ***

------------------------------------------------------------------------
 total energy gain   :        -0.0046127 Eh       -2.8945 kcal/mol
 total RMSD          :         0.0497577 a0        0.0263 Å
 total power (kW/mol):        -0.9315863 (step)   -0.0540 (real)
------------------------------------------------------------------------

 L-ANCopt (total)              0 d,  0 h,  3 min, 44.137 sec
 setup                          ...        0 min,  0.030 sec (  0.014%)
 model hessian                  ...        0 min,  7.685 sec (  3.429%)
 ANC generation                 ...        0 min,  2.598 sec (  1.159%)
 coordinate transformation      ...        0 min,  0.002 sec (  0.001%)
 Rational function              ...        0 min,  0.000 sec (  0.000%)
 singlepoint calculation        ...        3 min, 33.722 sec ( 95.354%)
 optimization log               ...        0 min,  0.094 sec (  0.042%)
 hessian update                 ...        0 min,  0.000 sec (  0.000%)

================
 final structure:
================
$coord
       -5.49763984794100      -12.18572637229300       -7.89691843315400      o
       -7.12715345496900      -11.88470647132500       -8.66951633995000      h
       -4.28397997752200      -11.45533091992700       -9.08184442827300      h
        7.34285937721500       -5.54086072727300        8.84693035354500      o
        8.20961588391000       -5.46671347461200        7.22100488955300      h
        5.75672234574100       -4.59564087372200        8.70088187255100      h
        3.78866392614800       -0.18704812712500       -4.71413189107900      o
        3.34620205184200       -0.26238957452600       -2.92727053237300      h
        3.57105396441300        1.54617451362100       -5.24415074468600      h
        6.92152504436800       -1.85889654177500        2.44378376104100      o
        8.19936174657200       -2.86290596028300        3.28650840438600      h
        6.43129098763600       -2.74276147996200        0.91355726944900      h
        5.87052860944900       -4.44050768942700       -1.84324701896700      o
        6.47250526506000       -4.02001727001600       -3.50961939483200      h
        4.06093532004800       -4.78546494004700       -2.03563090598400      h
       -0.25739515980000      -10.19869003630300       -1.53374589357800      o
       -0.05023489614800       -8.42032662609100       -2.04147977957300      h
       -1.95558388563400      -10.39882475751100       -0.82455030739600      h
        9.72793638203600        2.04449143487400        4.25002851766500      o
        9.34498864331400        0.88299614669800        5.61817802015900      h
        8.14886729826600        2.33995450787100        3.36552658555300      h
        1.18236723191800       -5.64491781600700       -2.82860349346800      o
       -0.14560240853900       -4.39147191377800       -2.18360192764100      h
        1.18250519041600       -5.41734981147900       -4.64725044553100      h
        8.82000865059800      -10.31963328960900        5.95513397476700      o
        9.51042770526500       -9.86433145634400        7.59370203492900      h
       10.21393447027600      -11.14719412054900        5.09500729623200      h
        1.78926107142200        5.46271583533300        5.00514060203600      o
        2.75087680241600        3.92831897519600        5.24497019392000      h
        2.69395082150700        6.82162168419700        5.82608699323200      h
       -2.03354952856400       10.10521601948700        6.62762423464700      o
       -0.93611015787000       11.46184349550500        7.23962412840600      h
       -3.74104972613500       10.53835922446900        7.24657491385800      h
       -0.81920882182300       -0.07688166022100        6.51476528318700      o
        0.18376358387000       -1.37607110932900        5.69750945042500      h
        0.35614441463300        1.16627837088100        7.15634314804100      h
        2.82974214765000       -4.85319222428400       -7.87594081556000      o
        2.61552557171500       -4.40332363148000       -9.64471711029300      h
        4.64763756061600       -5.00833600389400       -7.55330946477200      h
       -5.16060433908300        2.03721429337300        4.91467803416200      o
       -3.63920701089800        1.10159181140900        5.32030950366200      h
       -4.54603948023000        3.66847563763400        4.25120005761400      h
       10.60663086070600        0.44829846713400       -0.78445182357200      o
       10.53988564210000        0.78913181379000        1.01596840404700      h
       10.42542411932100       -1.36939521172900       -1.03240486713300      h
       -0.29711482764800       -1.56125531131100      -11.32983800456600      o
        1.06759608925800       -0.32763189786300      -11.32181124015000      h
       -1.35478373409300       -1.21925879090100      -12.77482801037200      h
       -5.95950152544300        0.77804505318300      -11.09463525227800      o
       -5.82722431440100        2.54001069169100      -10.55122164074100      h
       -5.85473640647400       -0.29686202426800       -9.56682805493200      h
      -13.63118502560000       -2.62922231578900       -2.36483920794300      o
      -13.54860539585500       -2.79629401648900       -0.54840808484500      h
      -15.05901911166800       -3.61210940318900       -2.99225929587400      h
       -6.70760252566400       -5.94550826862800       -0.01818118034800      o
       -7.30356190230100       -6.85936644858900        1.45059974062400      h
       -6.45059039366100       -7.16441447880800       -1.36183812509300      h
      -11.61531904999100        2.34799526457400       -1.94543184659900      o
      -10.48338254878900        1.31873008998900       -0.95236242313200      h
      -11.15542615474400        2.11993312637800       -3.70518520297000      h
       -3.97479723448400        8.35363784717400       -6.61081792271300      o
       -4.10831010066500        7.47631868459400       -4.99293479844500      h
       -5.06771019469000        9.83603520907200       -6.47023580246100      h
        8.63792983054500       -1.15017255371100       -5.84276997465800      o
        9.74848809981000        0.31963169449100       -5.92660579953900      h
        6.97916893197600       -0.59515244098000       -5.25125931167200      h
       -2.48620953988100       -6.48652891868400        3.34862915613600      o
       -3.15997833296900       -8.02139358690500        2.61119984842100      h
       -3.91337454296500       -5.40047674497600        3.66763777018700      h
       -5.79623602382300       -2.33386143728100       -7.30464542675200      o
       -6.96815197028700       -2.38801510820800       -5.88330626093000      h
       -6.04588888740200       -3.81016819562500       -8.35179889003500      h
       -6.28329366307200       -3.43288519030500        5.96916860996600      o
       -5.80587699479000       -2.10412348274400        7.14764580265600      h
       -8.09509642440000       -3.67324210322300        6.26557041812400      h
       -8.59974558978600       -2.33816046460500       -3.15760046227200      o
      -10.43076268753500       -2.41181027412300       -3.05914054715800      h
       -7.96704097904700       -3.47412077854600       -1.85998128887900      h
        8.11231672407800        1.07757713700700      -14.89486744687400      o
        8.06625749451100        0.11657681019800      -13.30971223763500      h
        9.73436325570800        0.77130660319800      -15.63201396484800      h
        8.51038014067300       -9.43474216957100       -0.54396945004800      o
        9.39663198925100      -11.03449175688300       -0.75464816137400      h
        7.36772781751800       -9.31321340149800       -1.98900682977200      h
      -11.82896316803200       -7.68564413746700       -0.72621713714600      o
      -11.52094216917000       -7.22711902680800       -2.47854416873500      h
      -13.65172549893800       -7.55904489811200       -0.43732277346900      h
        8.82476320146500       11.55927310519700        6.12878482344500      o
        8.83052102125500       10.01092033489900        5.12496092462500      h
        8.41915100433500       12.92553389425700        4.96863200376400      h
      -23.48792763865200       -1.75611999597300       -1.40478989535600      o
      -24.27957641055900       -2.54067316517000        0.05728363403200      h
      -24.16419282907200       -0.01931712220600       -1.46229486826400      h
      -11.06521059521700       -4.30174270432600        7.38611569023200      o
      -10.81779385588100       -5.92107558098800        8.19864696925900      h
      -11.33066619472700       -3.10306763276300        8.77394162912400      h
        5.37752798807000        3.58519689338100        1.47568479851200      o
        6.11840841346800        3.75777451869300       -0.22775787285300      h
        4.28290616890800        2.11501184480200        1.31076916211400      h
        9.01148437141800       -0.52701997927900        8.64677181668800      o
        7.69665634800700        0.02659078509900        9.79866548933000      h
        8.99533384673400       -2.35045396659700        8.78506398952200      h
       10.56419990893000       -4.46112503020300        5.11640948800400      o
       11.35175685875100       -5.66975290038000        3.95245735502700      h
       11.80875953173000       -4.16544517502500        6.42400936502800      h
       -8.79905337296600      -11.81547284798300       -0.97282750037300      o
       -9.72683102747100      -10.26041094396200       -0.63416088646700      h
       -9.98042350837200      -12.78227154640000       -1.99813900657800      h
       -0.38407875123000       11.06302400579300        1.95012651242800      o
       -1.32864894780200       10.64807715169000        3.47672172421000      h
       -1.58652570577200       11.60548549705300        0.64902040140600      h
        1.77505012743700       -3.76748620358300        3.51660504912900      o
        3.31054019951700       -4.75704523962300        3.44705924702800      h
        0.33750432567700       -4.89116836086300        3.25339336765900      h
       -8.23237736632900        0.31993356479500        1.33320264876800      o
       -9.19238638183400       -1.21996430421100        1.69217635523500      h
       -7.06028015527300        0.55798802843500        2.73235621311500      h
       10.87316148505700       -4.51523939766400       -1.41259278185900      o
        9.12878691877300       -5.00480051561600       -1.21367860157100      h
       11.57200961961200       -5.74485001679800       -2.60996244207500      h
        6.48135972811800      -11.02585886570400      -10.98024517833600      o
        4.82030772297400      -10.45505276020400      -10.36320262136700      h
        7.21111540148200       -9.57132601994300      -11.80753119587900      h
        4.26409519127900        4.78873967902600       -6.67284242807400      o
        3.09468838494700        6.15620443781000       -6.23348221803800      h
        5.41109209246800        4.61975372826900       -5.24125803024900      h
       -1.56225258678000        3.31497737639000       -5.47696684207500      o
       -1.29196334834900        1.51907437972700       -5.88614146099200      h
       -3.32289850663700        3.37925095231800       -4.95353670507300      h
       -9.56975563972600        0.85133566699400      -14.38561689309900      o
       -8.22921755708100        0.80894069730100      -13.05956650026900      h
       -8.71027829427100        1.02326452179700      -15.96803560417500      h
       17.28265536145700       -4.49950961328200      -10.28480478375100      o
       16.42809160431400       -6.10198740172600      -10.15453655397100      h
       18.75506570312600       -4.62349159580300       -9.18798966909500      h
       14.91272410401800        0.51679098380000       -3.47137086899800      o
       15.59771719310100        2.12790549465400       -2.89162199146700      h
       13.29743556610900        0.39865589122300       -2.60340608249100      h
        5.83952777317000       -7.25714334512400        3.19780731394200      o
        6.85101024031200       -8.12138053230000        4.47722588948700      h
        6.70282790760900       -7.67572068799800        1.62587804963500      h
      -15.56408085317200        1.16325417800500       -5.19678832117600      o
      -17.32386019365200        0.61872023299000       -5.05437559694100      h
      -14.58523100784800       -0.09344868693000       -4.27611137069600      h
       -8.95955528758000       15.46837176072200        0.18197229922500      o
       -9.23283417923100       15.64564629969200        2.01898041952900      h
      -10.51231142434200       16.02204569296900       -0.58669520719800      h
       -6.04341855827300        5.63567679438800      -10.19627052417200      o
       -5.15561534503600        6.47848648258200       -8.79412443384300      h
       -7.69030003689100        6.44917707008000      -10.24062294967100      h
        7.50118509703200       -6.24894721288700       -6.89139993109300      o
        8.09153519616500       -6.62997034283000       -8.58115097727400      h
        7.04656817150500       -7.83656924279000       -6.10972280139200      h
       -0.42736896328500        5.38716768989700       -9.81759951797600      o
       -1.40775046758400        6.92375515077900       -9.88898112458600      h
       -0.84248566860200        4.58905507107400       -8.17732982139100      h
       13.99140598861000       10.51153543559300        6.33276220523900      o
       12.41489516575200       11.40775639489900        6.55775242552900      h
       13.54898697971300        8.71871377863100        6.45141140758800      h
        6.72623564965700        4.63491643367300        8.23538636373000      o
        6.07584707116900        3.11042139169000        7.41320367224400      h
        7.58300582625200        5.58920820218200        6.92911744223500      h
        4.39430271002200        7.43121404517600       12.05621903915500      o
        3.09438086663100        8.65529215522200       12.58262872010000      h
        6.04167349500200        8.25095247138900       12.15448450600500      h
       16.33855468071300       -4.39966187700500       -4.40444050316900      o
       14.87702719481900       -4.86799259439100       -5.40350877416800      h
       16.00610434148300       -2.66102296251400       -3.91645253085900      h
       -8.54205449228900        6.28792832329900        5.58638233320900      o
      -10.28850840756100        5.68567467147000        5.62646402020400      h
       -7.70452154047600        5.62503051510600        7.07778819293900      h
       -4.72000548133900       -0.24268499916300        9.75990240642600      o
       -5.47026099458600        1.41203071103200        9.57211781322600      h
       -3.05805171408900       -0.19820807908500        8.97470403452300      h
      -17.37409150328900       -4.95479961100400       -4.82480898839100      o
      -16.64252551385100       -6.44960144224600       -5.59425023573400      h
      -19.07131621302100       -5.40247336686400       -4.25656673266700      h
      -24.92814287673700        3.03805648111200       -1.59856410534300      o
      -23.93975098948900        3.83153932257000       -2.91849264611300      h
      -24.45494052314300        3.90800072777100       -0.05542830468600      h
       12.07631181940800       -9.40902321369600        9.85687517146900      o
       13.41137307619800       -9.39802516740800        8.52604678194200      h
       12.58040957164300      -10.63168534641900       11.08531858984300      h
      -10.42380149196100        1.89564740537000       -7.03875132654000      o
      -10.88701248575900        0.12659036142300       -7.30779645009700      h
      -11.02711893629000        2.81034809111000       -8.51217848476700      h
      -12.07869657097500        4.14288553140000      -11.34904125604300      o
      -11.47601547636400        5.86852729121400      -11.31926189666600      h
      -11.25432136728600        3.22463877794000      -12.70958077828200      h
        0.13239006113000       -3.10367349061800       13.01867724002400      o
       -1.49436607782400       -3.95698280496800       13.20399122762800      h
       -0.08964679888200       -1.39497095207800       13.69983046040200      h
       -9.75676980394100        1.04274958867300        6.97098210304800      o
      -10.92437817452700        0.39852880129400        5.72865869652100      h
       -8.16984734869400        1.46349000843300        6.15676664035000      h
      -14.35244135282800        0.05723023907000        4.45910721862800      o
      -15.13250053205200        0.65595291623100        2.89227927651300      h
      -14.69476856828700       -1.77020475407400        4.50227131566500      h
        7.45746859077100        3.47710682881600       -2.97632850644400      o
        8.61879950113500        2.17278308538800       -2.32568924654900      h
        8.47915139002800        5.00047046995200       -3.12619493853500      h
       -4.28991754161900      -10.92397848539400        1.26644735395500      o
       -3.87251830057900      -12.57800938290500        1.98303749862600      h
       -5.92879597339500      -11.12655766236100        0.47069413375800      h
      -14.17448013110000        6.02160007669300       -4.53422930097200      o
      -12.38982249312800        6.31018652180900       -4.93869995377400      h
      -14.47100868166600        4.19928346939900       -4.63894615293900      h
       -3.54108748682800       -0.51879978516100      -15.31293097817500      o
       -2.52803317890100        0.95481609319300      -15.67975058546500      h
       -4.51733894442100       -0.07596577317000      -13.80079570766100      h
       -2.25683994659900       -5.68127877962900      -14.34918277497400      o
       -0.52310442591600       -5.45433477640400      -13.75880024247500      h
       -2.68544477232400       -4.12174541608200      -15.19832639407100      h
       -0.80427118448000       -1.44831306847900       -6.52187323015400      o
       -0.85576828528100       -1.46463595487800       -8.37985134376300      h
        0.98471121661600       -1.50962941529300       -6.07859555359600      h
        1.44818698747600        6.84718831757800       -0.27394709175500      o
        2.28496626725800        5.81167221017800        0.97759321082700      h
        0.89440853146300        8.37544108868200        0.60905911962300      h
        2.83050814711900       -3.29077010263100        8.68597929170300      o
        1.95136186804400       -4.71527438310600        7.89905245512600      h
        1.97615013747900       -3.03274281457200       10.29434709514900      h
       -6.44293841916000        2.60148094137700       -4.16621663164400      o
       -7.52173839178200        2.25566847487000       -5.62056310053800      h
       -6.69428482357700        1.15165788227600       -3.09034899477700      h
       -2.11911789274500       -6.41441888262500       -6.85064211697200      o
       -2.34331592687900       -6.98329773203000       -8.56713263737000      h
       -1.99414238113700       -4.57429251967500       -6.87109822066100      h
       -5.84374007964700       10.36310151006900        3.17838727272600      o
       -5.15383624326600       12.04489248423100        2.97801993853600      h
       -6.87152632579100       10.10267086911500        1.67401044954200      h
       -1.86083244695700        6.54686033088400        9.99688020003000      o
       -0.62434874639200        5.24726510243500        9.65675348181100      h
       -1.82118676906100        7.72086816107700        8.54205937590700      h
       -8.36116905288000       -8.72745107036500        4.14801148031200      o
       -8.34045799662700       -8.15227405482200        5.88659035424200      h
       -7.79031824440100      -10.47944997353100        4.24541043052400      h
      -20.96905313618400        4.98001438497200       -4.45866555754900      o
      -19.97407415428200        5.36382471499200       -2.97306397595400      h
      -20.13228210770100        5.86506165117500       -5.84732419397600      h
      -10.08208831819400        8.66284061072500       -9.80306247948000      o
       -8.95510139797000       10.07654363587000      -10.28009593174900      h
       -9.89040409068200        8.43078458265600       -7.98035726875300      h
      -23.31811711637000       -8.31723608512600        1.15484527112900      o
      -24.02596240662300       -6.86979073439400        2.02285140540600      h
      -21.99769117629900       -8.99681170521200        2.24002213284800      h
      -13.34705430974100       -9.43644180590800        4.11993787488100      o
      -11.55610966654200       -9.07213965789100        3.79180666323400      h
      -14.01044803569200      -10.35242699601300        2.66792466271100      h
        6.37114710276900       10.26624717925300       -7.35838048199600      o
        6.15773570523400        9.46128304417300       -5.69182207451600      h
        8.12649824521900       10.08719560398300       -7.81760811169400      h
        4.65890259607900       10.39836728849600        2.00251456553500      o
        3.55779937085700       10.35425073329900        3.43935435736600      h
        6.08851056581700        9.31829638749000        2.39363768692600      h
        3.45390752032700        1.70734481447700      -10.67210257277500      o
        3.43963346440900        2.75804417200400       -9.17089697996500      h
        3.89606094978500        2.82173449119900      -12.07977619578700      h
       -0.28217793977000        3.51282648143300      -14.55724961461900      o
       -0.41019908962100        3.87286090260200      -12.73761261207600      h
        1.30962580194800        4.26805640949100      -15.04687080941500      h
       18.01568562110900       -9.37537128768500       -6.67914473365700      o
       18.23512925763300       -7.70222708492800       -5.99164830476700      h
       16.52185505741500       -9.29872531559700       -7.76492048297800      h
       19.92922573751600        0.36727267343300       -5.44990582267300      o
       18.50578944756600        0.71365753093800       -6.56698712337000      h
       20.67553991851400        1.95508012967100       -4.89147879653800      h
       -4.07727069054300       15.96356491452400        7.11520899443000      o
       -2.38938998436900       15.95816529833500        7.78022373882800      h
       -3.91160833366100       15.77682391322000        5.27922767883100      h
       14.78863692744500        2.07274555902100        2.95321931161600      o
       16.60634227215300        2.41262651025500        2.80722957615400      h
       14.54178013261600        0.48308103961200        2.02965353046300      h
       16.20369948001900       -4.09792107374400        5.50583565703500      o
       18.05977350255000       -4.12969061746900        5.43992877944200      h
       15.70867199641200       -2.65556970758700        6.54007568333500      h
        8.09506427751600        7.10156008253300        3.76886679730000      o
        9.68695867486800        6.66209250148100        2.87390419535400      h
        6.88665274978000        5.88583404245300        3.09051822105900      h
      -11.90529686082900       -2.80153937926200       -7.99942300411800      o
      -13.74335142538100       -2.70867707599500       -8.20627424787700      h
      -11.28084463002100       -3.15260997666500       -9.71526846221600      h
      -16.78045206610000       -7.04970923467100        0.16158898891500      o
      -17.72808769787300       -7.93725290349800       -1.12944766655300      h
      -17.44792689069800       -5.33397736403100        0.30165733935700      h
      -11.20398267038200       -3.58007573681500        2.21286812192200      o
      -11.02702542546900       -5.17748874261900        1.32024247111400      h
      -11.34452892023400       -3.94805077527300        3.99716107812300      h
        4.59072440527800       14.86767566694000       -5.91673990167300      o
        3.81549740931800       14.09710829297500       -4.42022702203800      h
        5.35921607251200       13.43914755312800       -6.78593333526800      h
       -5.43400233883800        2.67306953307100       14.96154935134600      o
       -6.20573861677300        1.01511357819900       15.08370112313600      h
       -6.02878412008900        3.38360065925700       13.38168952252400      h
       12.64420725901900        5.60670982895200        6.75225550092600      o
       12.32204454514900        5.52243899577200        8.56787076923900      h
       11.62702477464700        4.34153876037700        5.87309120973900      h
        4.44014044821200        0.72497468409700        5.91552113860700      o
        3.96008197461100       -0.63179862056100        7.05693242015000      h
        5.26523229720800       -0.16064056380700        4.51372374920300      h
       19.38407998692200       -1.52088842347500       -0.68464113575100      o
       19.30039317033400       -0.79950182798900       -2.37878284036600      h
       17.66275740817000       -2.04759063286300       -0.23194144037900      h
       15.06860153457800        5.70828888679000       -9.25034031073100      o
       15.32439970020600        4.93373437513200      -10.87105671131800      h
       14.04350081350800        4.49179356422100       -8.27137799609900      h
       12.34723172137100       -4.18869741530500       -7.72985982447500      o
       10.84012811132500       -3.71020073632800       -6.81107739663600      h
       12.14141673302400       -3.65407797379700       -9.47422042681900      h
      -18.72093549579200       -2.31308933021800        0.42747593424600      o
      -20.37562677258700       -2.13992637363100       -0.36531770507300      h
      -17.81398553388300       -0.73954935951000        0.11647303778700      h
      -22.62149041608500        5.76028380943700        2.21375901867000      o
      -21.09566343119100        5.99198142962500        1.19481227122300      h
      -23.01036869989500        7.40335834517900        2.87196817452100      h
      -14.00683496547100       14.94142519975300       -1.22807787167600      o
      -13.94012146459200       13.77411539263800        0.21665337830300      h
      -15.76243637793500       15.09567864915400       -1.64100963106400      h
       -3.92098505366600        6.93768976561800       -1.81746336530000      o
       -5.48039988982100        6.42004181245400       -0.96166816257400      h
       -2.56731409244600        6.37812388650300       -0.72593852067600      h
       12.81228329633800        1.70346315221500      -12.26492112151600      o
       13.81538323302100        1.24725298721300      -10.76276512996800      h
       11.27107073610800        2.46829591638200      -11.67325189464900      h
      -13.79084136381800       11.47819898969200        2.48007650196500      o
      -13.56968686239500        9.83782643400100        1.66376582262800      h
      -12.64172444106900       11.46705287997400        3.93032386444600      h
       -0.87632073513500       13.33244834179000       -6.54021502095500      o
       -1.23465728383700       12.42554732869700       -8.08422191913500      h
        0.79375675232200       14.03644721732800       -6.73169039047500      h
       12.62245721745500       -3.33654344897600      -12.86003647019900      o
       12.61346594220600       -1.48893521369400      -12.92048605924600      h
       14.37242915521400       -3.81735308410600      -12.74814942331400      h
      -16.69767311429800        2.56394649327900       -9.94685583957300      o
      -16.14965316763600        2.10555599233400       -8.24093628154000      h
      -15.15866373396300        3.06276099997200      -10.81126261944800      h
       -0.56042256332000        1.72733995410200       14.38104882946000      o
       -2.33054275971700        2.14743012369800       14.78248771082900      h
       -0.21383663935200        2.48048451099400       12.74695256236100      h
      -10.51141384136600       -6.97950241720500       -5.67117370708600      o
       -8.71434870084900       -7.18325057543100       -5.18703787214900      h
      -10.80959032328800       -5.25519517788800       -6.31232379921200      h
       -5.91331631748500       -8.30255898033100       -4.46944022046600      o
       -4.46045888536500       -7.38939801324800       -5.22852478676000      h
       -5.88696848405800       -9.93314322350100       -5.30961984383100      h
      -16.12724679968300        2.07174531857200        0.20305705653300      o
      -14.51816120103100        2.13114108909400       -0.73200002415100      h
      -16.83845781884100        3.76299336162000        0.11555678564100      h
       -9.54198410963500       -9.69437455589100       -9.95340751887200      o
       -9.98948344662400       -8.73862057867000       -8.43287285776400      h
      -11.01194726356900       -9.67940894569100      -11.01185390619400      h
       21.16248701900000       -4.56708753150100        4.97628169774300      o
       21.38991905831300       -5.76642006990200        3.57493072774900      h
       22.28362010907300       -3.16880974420600        4.63567475953100      h
       -3.74764579642000        7.45089330841600      -14.41775581966600      o
       -4.73503153914800        6.72258956819100      -13.03849984048800      h
       -2.57309514018000        6.13680099670200      -14.91582055736900      h
       11.51656873143000        2.94782374945600       -6.90541027367700      o
       11.59444975715700        4.14821940270100       -5.49506470251600      h
       10.21289528181900        3.62865325921200       -8.03798703557300      h
      -24.95321298462400       -3.73230672761700        3.16183571644800      o
      -23.42427557034500       -3.06226739731800        4.01873755440700      h
      -26.37362134419800       -3.29122797207900        4.18697612062900      h
        4.14644374004300        9.55705901818200        7.40365883031300      o
        5.79938571075400       10.29756664770500        7.09204981238200      h
        4.31439513311700        8.58315290078800        8.96418227022800      h
        4.13590192084200        3.56361829172300       15.44303087513600      o
        4.01635386562200        5.08740223739000       14.40595927534800      h
        2.40261767559700        3.00392195065200       15.67831996125500      h
       -6.98072334249600       -2.15992207356000       13.85777415000800      o
       -6.14253243988600       -1.58415982916600       12.31350443932500      h
       -6.16340109947300       -3.74234494260000       14.26190742663400      h
        2.52221948917500       -7.51472626166900       14.07568842640700      o
        1.15646566766700       -8.73277337994500       14.17190508091700      h
        1.70685929380300       -5.90108525241600       13.68710679442300      h
        0.99467782024500        8.32889230179700       -5.09101405774700      o
        0.69948809327100        7.33119586053300       -3.58151423664700      h
       -0.63430294378100        8.52212674482600       -5.91586891375500      h
        8.73711366225400        3.42095488929400       12.69436491016300      o
        7.94048505731300        3.90294382037500       11.07768181573000      h
        7.53985580710700        3.78227167868100       14.01169682442500      h
       -0.46290454374400      -16.30482896090400       -1.25042765197400      o
       -1.88815023608500      -15.47343617599900       -2.09877150541200      h
       -0.19793950424100      -17.86426691294300       -2.12668040478500      h
       -3.34340358011600       11.96259261839800       -2.07828362636000      o
       -3.66202138447900       10.13779051957000       -2.05425416164000      h
       -2.32426044044300       12.33769222037200       -3.55893280826200      h
       -4.02305481853100       15.21413845882200        2.09594950338600      o
       -2.66519695385200       15.67268407489800        0.92576215973500      h
       -5.57250191344200       15.57163564832700        1.20182678125700      h
       22.19653181695700        4.40123552890400       -3.30696642633500      o
       21.61512245386400        5.43845179477300       -1.92139658476600      h
       23.30646754189700        3.15579383569900       -2.50959472786100      h
       19.73317521221500        2.16439485419300        2.58854640371400      o
       19.88419167331600        0.78287042549800        1.34284157505200      h
       20.07229681260300        1.44397657903900        4.24038817352100      h
      -12.83664861449300        8.51484993780700       10.00662813685500      o
      -14.61729851297800        8.47708756117000        9.62037236426200      h
      -12.38957953295300        6.75101235038000       10.35808883246400      h
        2.11251953797100       -9.61274449699500       -9.07853353146700      o
        1.69103002082900      -10.67960783934700       -7.63099664467800      h
        2.24072165534900       -7.85071335340400       -8.46430580539300      h
      -10.47297556625900       10.84849130081700        6.30728657765800      o
       -9.45571172276000        9.44065809592800        5.64464595096200      h
      -11.44598646226800       10.11359805313600        7.72228784264100      h
        1.83975070073900      -10.13583767809700        3.03028239195300      o
        3.27609971826800       -8.94042383132600        2.94773384328700      h
        1.12997198538000      -10.25008549970600        1.31596151561800      h
      -18.20077106412300        6.78747754145700       -0.17662213187300      o
      -18.22125420355400        7.89856114395400        1.33936947876400      h
      -17.70119659393500        7.99875442172300       -1.49849318506200      h
      -16.43315957038700        1.53880927895500        8.84944456211100      o
      -18.06417534872900        2.14906666151900        8.30855398491600      h
      -15.65595177426900        0.81092367253300        7.33307169038200      h
       19.06266005194600        9.12737301107800        5.52008066181800      o
       17.58095454574100       10.10997645477100        5.91670851313600      h
       18.85013049993900        7.55572052680400        6.45580163648800      h
      -16.81157877929200       -2.66031051750000       -9.39418854827600      o
      -17.20935480315200       -0.95216627279100       -9.93105085184500      h
      -17.68793216530100       -2.93395959078100       -7.80501256856700      h
       12.46637906228200       11.79202142038400       -4.30458739137800      o
       11.19669275112100       11.82693182413000       -2.94870900253700      h
       14.08826914501200       12.01094395099300       -3.51964836149600      h
       11.35576369116800        9.34196549375500       -8.81644126261200      o
       12.77877852593300        8.21306996411800       -9.10705896054600      h
       11.91098427396500       10.47637446268900       -7.49345731485100      h
       11.47077770896700      -13.58518690882500       -1.26662559706400      o
       10.57373705703100      -14.66078738700900       -2.43966662267400      h
       13.10002239759900      -13.15949442120800       -2.02342797118700      h
       -0.21341780578400      -13.37285925476100        6.54624314261000      o
        0.40962681427400      -12.13169541884700        5.34608769243000      h
        1.28486796031300      -14.01031022478200        7.47277728468500      h
       -3.99216915500100      -11.88071324021000        9.44266848806000      o
       -4.20164325598600      -10.08773092328300        9.00212085266100      h
       -2.53917779668000      -12.46057640572100        8.43601382663300      h
      -15.80097293768800       -4.69942160798800        4.62929425538800      o
      -16.68654479030300       -4.88637416052200        6.23423247023100      h
      -14.82712211594300       -6.21994691722000        4.35531568930200      h
       12.64058705338200       -7.80251004682200        2.05967133432800      o
       11.28389681332900       -8.23764289039900        0.89632373375200      h
       13.02870415935900       -9.29811514122900        3.04866919678300      h
       18.03895884830700       -2.82004439797700       10.63794415372300      o
       17.65856140360200       -1.47147664489600       11.80448436163000      h
       16.41340322503700       -3.58305731051300       10.23373352683400      h
       12.99956898223500       -4.28847967371100        9.93447585011500      o
       12.46711245982100       -6.02350439586200       10.18328796932800      h
       12.24711116441400       -3.29032940304400       11.28040641315500      h
      -19.17618869563700       -9.77704746231900        3.85801617080100      o
      -18.15709550595600       -8.56795347970900        2.90060921835500      h
      -18.64544236008900       -9.66397456780400        5.59940739025700      h
       -6.07306746608900       11.61093573049600        9.03824540873100      o
       -7.69173927938600       11.38346887147000        8.20667814278300      h
       -5.58942174064700       13.35688116397900        8.74097653062400      h
       -9.43578109724500       -8.78767166317800        9.27924390420700      o
       -8.20610604847200       -9.13553742180800       10.55720563502700      h
      -10.36974473808600      -10.36259452966700        8.95431835563000      h
       -3.16243646278400      -15.53579774573100        3.09990211540800      o
       -1.98229130008300      -15.09180850288200        4.45068498956300      h
       -2.14339897466500      -16.12731969548400        1.69384924023400      h
      -18.54104236659800      -10.51081356689400       -3.37099328417900      o
      -17.46000658664000      -10.27613614122400       -4.83247972654800      h
      -20.18553900709900       -9.85412318076600       -3.78672243323500      h
        8.22149800635800       -6.18581583381000      -12.12299810199700      o
        9.91921998405600       -5.95119042662600      -12.73826829747000      h
        7.67575789613500       -4.46033671552700      -11.68836634627900      h
        8.94848095872400        9.66803541331300       11.23200833308700      o
       10.54040352055200        8.83427332232700       11.52626256596900      h
        9.10374188754800       10.55272862140800        9.64600725341100      h
        7.35483809187100       14.95342931421500        2.38729335062500      o
        7.63067861873000       15.92005392257400        0.85051909883700      h
        5.52994489143400       14.96140536991300        2.66810866173700      h
      -15.95611289003600      -12.47908266182900        0.72627564003800      o
      -16.89668576178000      -11.85239136182800       -0.71767563897200      h
      -17.19267932526000      -12.45060895776200        2.07227067485900      h
       12.90031681047700        5.91659477601100       11.81027477144400      o
       11.31251591631100        5.16176162388400       12.39080352394600      h
       14.12485783572800        4.59200960449400       12.19948095521000      h
        4.41114565051400      -15.49023824682100       -8.21316189985200      o
        3.02035278556800      -14.66352746450200       -7.35932387381900      h
        5.02999358400200      -14.32055070601500       -9.46315778213900      h
      -13.42135696855200        5.12295246322600        4.86915388503300      o
      -13.62394317624300        3.30720688753700        4.82546139340900      h
      -13.45085375021600        5.72061861577300        3.11895339890500      h
      -11.82230829306600      -12.93289891084900        7.66876897242300      o
      -10.28151272713400      -13.69464480956700        7.02555334728500      h
      -12.55919393078200      -12.08640945304400        6.21165413948400      h
       -1.56760156095900      -10.90430702521100       13.79174744810500      o
       -2.42935307896600      -11.36920517446300       12.19934441740800      h
       -1.31575043474100      -12.44676252906300       14.69847958772800      h
        5.45721338006900      -13.64903951749600        3.74279212734900      o
        4.02614868806000      -12.48622637809500        3.60747769962800      h
        6.84477654595400      -12.61978593014400        4.35548470374600      h
       12.44244127534900       -8.25202414272300       -4.21844428178900      o
       13.69605304317100       -9.46482258988200       -3.65852142588300      h
       11.20295765524800       -9.20478977592500       -5.17322718156900      h
       14.15488932687700        0.21871920762400        7.55493033941000      o
       12.38002007701500       -0.07627553270100        7.88957982718300      h
       14.27411117382500        1.06131224421900        5.89750551185800      h
      -11.54632352739400       -1.69069016344400       11.71473030681600      o
      -11.65618012402900        0.13869224992800       11.59938007672500      h
      -10.01123407400400       -2.03051745250700       12.67676961893600      h
       -6.74157892612400       12.27178355623200      -10.69136528448000      o
       -5.02240477907200       11.83087650799700      -11.09576354377000      h
       -6.71320549242800       12.87681044797700       -8.95951942643900      h
       17.00703054587000       -7.47240604651100       -0.46625453387800      o
       16.80933334871600       -6.29060314761100       -1.89023430258500      h
       15.47728154040500       -7.32581816629800        0.55423663103000      h
        1.23001162653900       13.68347416459300        8.05827847383300      o
        2.47645087168000       12.31718504060400        8.05362987423200      h
        1.60886182883200       14.62422049088100        6.51990001743500      h
       -9.20350499717200        7.10672005728300       -4.90408576135700      o
       -8.23916143977900        5.63581317477600       -4.38626509366600      h
       -8.94766769361900        8.38571563317000       -3.61338306959800      h
        7.86737824675200      -15.50591130200900       -4.49341883587400      o
        6.83991049634300      -15.94260635708300       -5.96467805116900      h
        6.61455885576000      -15.02710008778500       -3.22583510523500      h
      -12.73088979352600        7.05117384050100        0.24530298486400      o
      -13.50059180396400        6.61729838580000       -1.37985814375300      h
      -11.02359388666900        6.29479742629200        0.20155101581700      h
       -7.14681461198800      -13.48666100712600        5.69092433922800      o
       -6.13533839379300      -14.61790090847800        4.67648682352700      h
       -6.12025022598300      -13.07818245421200        7.17269105592300      h
      -16.63018567502300       -2.25975984871300       12.26223126500200      o
      -14.81337736300300       -2.49232763686800       12.38586014372600      h
      -16.79753497514200       -0.69576819570800       11.30208084924100      h
       -9.33363391616600       15.78480378748700        5.17065776201300      o
       -9.76306830040300       14.08207295037600        5.70738135818600      h
       -7.79098819458000       16.23510291787700        6.02046850331400      h
       -6.51118325190300        4.90323188320700       10.18395539804600      o
       -7.59227637257100        6.13338671091000       10.96206186864500      h
       -4.79038242667500        5.63728946667100       10.14732180233900      h
      -17.04785477081900       10.43177436630600       -3.41621004897300      o
      -15.23560980284800       10.44582457889400       -3.74696561639900      h
      -17.85178963226800       10.20241992579200       -5.02544003138000      h
      -12.05812382168500        3.51267467748000       10.63047259853900      o
      -11.03452415680100        2.82227385942500        9.24578742990600      h
      -13.78973807812500        3.06204426679300       10.20458287720100      h
       -0.32602697818100       16.48798752123200       -1.19266122924500      o
        0.61138883707900       14.93587070691600       -1.60118742215000      h
       -1.00126242594000       17.06595228789700       -2.76783144253000      h
       18.44860228083100        7.48748404570500       -5.90161592695800      o
       17.44350367153000        6.86682771402500       -7.31748450188500      h
       19.99217776081300        6.52675386089000       -5.80740234548200      h
      -14.56064700947300       -6.96812979038400      -11.33556479146500      o
      -15.72035220693300       -5.60019332652400      -10.95039062525100      h
      -13.11283771906600       -6.11349388917400      -12.06988395986600      h
      -18.58162971288700        9.96011728319500        3.58300234896700      o
      -18.27014190556900        9.08669496172200        5.19081664072300      h
      -17.06812857699100       10.95976395773300        3.28598627953100      h
      -21.95712031276600       -6.49254379109200       -3.27180699866100      o
      -22.95418221108000       -4.97220262866200       -3.33873663316500      h
      -22.42930627253300       -7.27094488489500       -1.63716127106400      h
      -18.68515607945800       -5.07928458207000        8.75959447463800      o
      -18.30123229917300       -6.82118389384300        9.13471841042500      h
      -17.99842899352900       -4.07913440252500       10.18934118503100      h
      -20.62164974360400        3.04009198902500        6.19425329198800      o
      -21.45136443202400        3.93851664771100        4.82526019183100      h
      -20.81534891333000        1.25062797709800        5.79812772982700      h
      -14.91389752518800       -9.18105578837600       -6.77950860643600      o
      -14.95168285368100       -8.67689054250000       -8.55931998287300      h
      -13.29992112926400       -8.54146900567900       -6.15962919136000      h
      -17.74631108808400        7.11426575340700       -7.86087299348400      o
      -16.37222267884300        6.79617221269100       -6.63634128136900      h
      -17.69108079927700        5.64848705989400       -8.98401305944300      h
        5.09445977894100       -0.20136273429400       12.11972290041300      o
        4.88897861238400        1.00920456427000       13.49883364054600      h
        5.40012692325400       -1.82309291370500       12.91069046296500      h
       10.88970705562800       -1.29427304718300       13.67430989532700      o
        9.56674810629600       -2.39801463237500       14.26785670892200      h
       10.06903860853700        0.28971699237400       13.20979913800500      h
        3.29163873462700       -0.84429958460400      -15.84028394077300      o
        2.08910846622500        0.49971309557000      -15.60187502936200      h
        4.95739265364500       -0.08305467774600      -15.76064612319100      h
        7.25818260463400       -1.51085125143100      -10.61234132717600      o
        5.66658401156500       -0.56632721122600      -10.56118896908000      h
        7.88967906595200       -1.48401554840100       -8.85962750855900      h
       -6.15417536649300       -5.82944387330600      -11.05023674826800      o
       -6.76010966646600       -7.54960869709300      -10.91279814631500      h
       -4.71623187209500       -5.80193161569300      -12.21810167088400      h
       17.51723371635400        4.89886039755400        8.04651709901500      o
       15.81770143921200        4.91990851515400        7.29628162782400      h
       17.29646379797200        5.26773744982900        9.80597804505100      h
       14.80715628502300       -2.53927429251200        1.05194728114400      o
       15.22141358663100       -3.36453030918200        2.66317469953300      h
       13.43122018565200       -3.47074971664500        0.27076776485100      h
        6.45603680041000       -4.19839756870900       15.14517652515900      o
        6.00029595716200       -3.82018435750600       16.85563539635100      h
        5.47890305698300       -5.67131502589500       14.66679394915800      h
        4.61381556871900       -9.58793570154500        9.90498086595800      o
        5.91247719507100       -8.33362122268800        9.45554455552400      h
        4.02199136183600       -9.06556051180300       11.56775585500400      h
        2.19906386718100       15.20854562098900        3.26459715993800      o
        1.60783581327700       16.50788144997000        2.14106792778700      h
        1.36308402897000       13.65103264509100        2.66293374416700      h
       15.36373506941700        1.49249799585100       12.27154609572600      o
       14.10515457391300        0.54472667419600       13.18698823093800      h
       15.05424421204300        1.08423628898900       10.47974310271800      h
        0.43443604662800       10.37065602365500       12.70499361386000      o
       -0.74330158593700        9.12951430811700       12.02405371803000      h
        0.31386278333300       11.84952511432600       11.65774627938500      h
        4.08277071410800      -14.57060236072900        8.66501509891000      o
        4.92678122015300      -14.75812710111500        7.04413218001800      h
        4.54288993181600      -12.89635500172500        9.27586447403300      h
       20.30574732519700        0.57836607283500        7.45682836163400      o
       19.31980564300900        2.06679123891300        7.89395024400700      h
       19.61716649502300       -0.82694532641100        8.44079308283200      h
       20.15370555473200        6.91108386970400        1.09522761635700      o
       20.33851100631200        5.19212428440300        1.75331816412500      h
       19.89360262495000        7.92973302840000        2.61700108334200      h
       -3.89061051451800       -6.19749229719400       13.51338212605700      o
       -4.09794317692300       -6.41897646301000       11.66911221015100      h
       -3.21992098885700       -7.78313226951600       14.11335934408800      h
       24.43159536844000       -0.35820627553000        4.59043571732500      o
       26.02374351063400       -0.52936919662800        5.42725679973500      h
       23.21593593647600        0.22690765529100        5.84765205122400      h
       20.50106928763300       -9.71985389432600        6.35485877322100      o
       21.05078196859800       -9.77660831967700        4.61233968708300      h
       20.91006568460600       -8.02775234691700        6.90272095516700      h
        0.72534089427800       -7.64768887877000        7.43032412938500      o
        2.06267351624300       -8.59012845582200        8.31399464122900      h
        0.65408716920300       -8.27364417586700        5.71058455686500      h
       15.99705066332600      -11.80140042979200       -2.76671181996700      o
       16.60422452922500      -10.48765965491400       -1.60764064049200      h
       16.91958390672300      -11.43572229407600       -4.33004328228300      h
       15.47201831972100       -9.08571151489000        6.30006221412500      o
       17.23810850092100       -9.60063158382900        6.46736829772300      h
       15.56387002721900       -7.25940738364300        6.02414899593400      h
        0.34829792648300      -12.90361345062300       -5.71308539108400      o
        0.13763785031100      -12.01915044440900       -4.08790427256800      h
       -1.32048675655500      -13.27836706343000       -6.30857005533500      h
        4.85123779052800       -9.68993242774600       -4.03005311906300      o
        3.56244962888200       -8.49867892717100       -3.54970193843900      h
        4.41237291640200      -11.29806482311800       -3.25070622687000      h
      -17.31656075168500        7.06981700819900        7.47745436472500      o
      -18.63037396788400        5.80527086897100        7.44783391882700      h
      -15.86650276298700        6.30792796519600        6.60211629105200      h
       18.08525588117700       10.84597525222500       -1.93642420896900      o
       18.11305029490500        9.99425635976900       -3.55986239091200      h
       19.28346800692100        9.91771048589700       -0.91932992547700      h
       -4.67753564958600      -14.40713349568300       -3.33694460359100      o
[...]
   385   8 o      386   1 h                                       0.9803353
   385   8 o      387   1 h                                       0.9716816
   388   8 o      389   1 h                                       0.9791039
   388   8 o      390   1 h                                       0.9653745
   391   8 o      392   1 h                                       0.9661882
   391   8 o      393   1 h                                       0.9784606
   394   8 o      395   1 h                                       0.9876206
   394   8 o      396   1 h                                       0.9703713
   397   8 o      398   1 h                                       0.9644005
   397   8 o      399   1 h                                       0.9806953
   400   8 o      401   1 h                                       0.9773624
   400   8 o      402   1 h                                       0.9897829
   403   8 o      404   1 h                                       0.9837450
   403   8 o      405   1 h                                       0.9884497
   406   8 o      407   1 h                                       0.9898482
   406   8 o      408   1 h                                       0.9837197
   409   8 o      410   1 h                                       0.9946783
   409   8 o      411   1 h                                       0.9849110
   412   8 o      413   1 h                                       0.9649601
   412   8 o      414   1 h                                       0.9805151
   415   8 o      416   1 h                                       0.9639562
   415   8 o      417   1 h                                       0.9744385
   418   8 o      419   1 h                                       0.9706045
   418   8 o      420   1 h                                       0.9712038
   421   8 o      422   1 h                                       0.9831493
   421   8 o      423   1 h                                       0.9605090
   424   8 o      425   1 h                                       0.9734323
   424   8 o      426   1 h                                       0.9678940
   427   8 o      428   1 h                                       0.9667626
   427   8 o      429   1 h                                       0.9769596
   430   8 o      431   1 h                                       0.9713027
   430   8 o      432   1 h                                       0.9913666
   433   8 o      434   1 h                                       0.9832944
   433   8 o      435   1 h                                       0.9844374
   436   8 o      437   1 h                                       0.9750391
   436   8 o      438   1 h                                       0.9664473
   439   8 o      440   1 h                                       0.9733592
   439   8 o      441   1 h                                       0.9708040
   442   8 o      443   1 h                                       0.9648098
   442   8 o      444   1 h                                       0.9740321
   445   8 o      446   1 h                                       0.9693811
   445   8 o      447   1 h                                       0.9720204
   448   8 o      449   1 h                                       0.9782035
   448   8 o      450   1 h                                       0.9652113
   451   8 o      452   1 h                                       0.9704805
   451   8 o      453   1 h                                       0.9715279
   454   8 o      455   1 h                                       0.9563768
   454   8 o      456   1 h                                       0.9840772
   457   8 o      458   1 h                                       0.9778307
   457   8 o      459   1 h                                       0.9707656
   460   8 o      461   1 h                                       0.9699481
   460   8 o      462   1 h                                       0.9625271
   463   8 o      464   1 h                                       0.9636064
   463   8 o      465   1 h                                       0.9848976
   466   8 o      467   1 h                                       0.9636203
   466   8 o      468   1 h                                       0.9645244
   469   8 o      470   1 h                                       0.9717467
   469   8 o      471   1 h                                       0.9770676
   472   8 o      473   1 h                                       0.9703464
   472   8 o      474   1 h                                       0.9673398
   475   8 o      476   1 h                                       0.9797497
   475   8 o      477   1 h                                       0.9765447
   478   8 o      479   1 h                                       0.9680900
   478   8 o      480   1 h                                       0.9632816
   481   8 o      482   1 h                                       0.9670897
   481   8 o      483   1 h                                       0.9788029
   484   8 o      485   1 h                                       0.9711569
   484   8 o      486   1 h                                       0.9732732
   487   8 o      488   1 h                                       0.9892209
   487   8 o      489   1 h                                       0.9561519
   490   8 o      491   1 h                                       0.9783900
   490   8 o      492   1 h                                       0.9700105
   493   8 o      494   1 h                                       0.9694112
   493   8 o      495   1 h                                       0.9693760
   496   8 o      497   1 h                                       0.9684339
   496   8 o      498   1 h                                       0.9859233
   499   8 o      500   1 h                                       0.9717306
   499   8 o      501   1 h                                       0.9753961
   502   8 o      503   1 h                                       0.9632620
   502   8 o      504   1 h                                       0.9708856
   505   8 o      506   1 h                                       0.9848187
   505   8 o      507   1 h                                       0.9761882
   508   8 o      509   1 h                                       0.9786744
   508   8 o      510   1 h                                       0.9750569
   511   8 o      512   1 h                                       0.9702381
   511   8 o      513   1 h                                       0.9710361
   514   8 o      515   1 h                                       0.9773313
   514   8 o      516   1 h                                       0.9765558
   517   8 o      518   1 h                                       0.9788832
   517   8 o      519   1 h                                       0.9884259
   520   8 o      521   1 h                                       0.9659292
   520   8 o      522   1 h                                       0.9780939
   523   8 o      524   1 h                                       0.9714640
   523   8 o      525   1 h                                       0.9751754
   526   8 o      527   1 h                                       0.9716966
   526   8 o      528   1 h                                       0.9619830
   529   8 o      530   1 h                                       0.9594748
   529   8 o      531   1 h                                       0.9901892
   532   8 o      533   1 h                                       0.9748687
   532   8 o      534   1 h                                       0.9596270
   535   8 o      536   1 h                                       0.9817290
   535   8 o      537   1 h                                       0.9733033
   538   8 o      539   1 h                                       0.9835737
   538   8 o      540   1 h                                       0.9570866
   541   8 o      542   1 h                                       0.9757721
   541   8 o      543   1 h                                       0.9634084
   544   8 o      545   1 h                                       0.9706509
   544   8 o      546   1 h                                       0.9708317
   547   8 o      548   1 h                                       0.9821846
   547   8 o      549   1 h                                       0.9726211
   550   8 o      551   1 h                                       0.9627608
   550   8 o      552   1 h                                       0.9901322
   553   8 o      554   1 h                                       0.9645449
   553   8 o      555   1 h                                       0.9922702
   556   8 o      557   1 h                                       0.9714022
   556   8 o      558   1 h                                       0.9752690
   559   8 o      560   1 h                                       0.9790979
   559   8 o      561   1 h                                       0.9755023
   562   8 o      563   1 h                                       0.9884120
   562   8 o      564   1 h                                       0.9776185
   565   8 o      566   1 h                                       0.9771373
   565   8 o      567   1 h                                       0.9684191
   568   8 o      569   1 h                                       0.9643177
   568   8 o      570   1 h                                       0.9755094
   571   8 o      572   1 h                                       0.9626501
   571   8 o      573   1 h                                       0.9700805
   574   8 o      575   1 h                                       0.9797540
   574   8 o      576   1 h                                       0.9859630
   577   8 o      578   1 h                                       0.9678322
   577   8 o      579   1 h                                       0.9803852
   580   8 o      581   1 h                                       0.9831462
   580   8 o      582   1 h                                       0.9584556
   583   8 o      584   1 h                                       0.9827194
   583   8 o      585   1 h                                       0.9715971
   586   8 o      587   1 h                                       0.9578568
   586   8 o      588   1 h                                       0.9690052
   589   8 o      590   1 h                                       0.9845854
   589   8 o      591   1 h                                       0.9740244
   592   8 o      593   1 h                                       0.9613189
   592   8 o      594   1 h                                       0.9881183
   595   8 o      596   1 h                                       0.9642547
   595   8 o      597   1 h                                       0.9861769
   598   8 o      599   1 h                                       0.9744879
   598   8 o      600   1 h                                       0.9610533
   601   8 o      602   1 h                                       0.9721291
   601   8 o      603   1 h                                       0.9740242
   604   8 o      605   1 h                                       0.9726742
   604   8 o      606   1 h                                       0.9782240
   607   8 o      608   1 h                                       0.9789148
   607   8 o      609   1 h                                       0.9787768
   610   8 o      611   1 h                                       0.9890624
   610   8 o      612   1 h                                       0.9647950
   613   8 o      614   1 h                                       0.9561139
   613   8 o      615   1 h                                       0.9758664
   616   8 o      617   1 h                                       0.9673641
   616   8 o      618   1 h                                       0.9657505
   619   8 o      620   1 h                                       0.9839744
   619   8 o      621   1 h                                       0.9691895
   622   8 o      623   1 h                                       0.9811952
   622   8 o      624   1 h                                       0.9798776
   625   8 o      626   1 h                                       0.9775049
   625   8 o      627   1 h                                       0.9786134
   628   8 o      629   1 h                                       0.9854449
   628   8 o      630   1 h                                       0.9583639
   631   8 o      632   1 h                                       0.9628696
   631   8 o      633   1 h                                       0.9737543
   634   8 o      635   1 h                                       0.9650864
   634   8 o      636   1 h                                       0.9828119
   637   8 o      638   1 h                                       0.9702504
   637   8 o      639   1 h                                       0.9659288
   640   8 o      641   1 h                                       0.9654473
   640   8 o      642   1 h                                       0.9675732
   643   8 o      644   1 h                                       0.9716508
   643   8 o      645   1 h                                       0.9763189
   646   8 o      647   1 h                                       0.9802686
   646   8 o      648   1 h                                       0.9579012
   649   8 o      650   1 h                                       0.9621156
   649   8 o      651   1 h                                       0.9739525
   652   8 o      653   1 h                                       0.9724609
   652   8 o      654   1 h                                       0.9581935
   655   8 o      656   1 h                                       0.9740149
   655   8 o      657   1 h                                       0.9802379
   658   8 o      659   1 h                                       0.9696203
   658   8 o      660   1 h                                       0.9693404
   661   8 o      662   1 h                                       0.9752427
   661   8 o      663   1 h                                       0.9742652
   664   8 o      665   1 h                                       0.9722203
   664   8 o      666   1 h                                       0.9823051
   667   8 o      668   1 h                                       0.9836146
   667   8 o      669   1 h                                       0.9717963
   670   8 o      671   1 h                                       0.9636338
   670   8 o      672   1 h                                       0.9801420
   673   8 o      674   1 h                                       0.9756752
   673   8 o      675   1 h                                       0.9771687
   676   8 o      677   1 h                                       0.9698702
   676   8 o      678   1 h                                       0.9689295
   679   8 o      680   1 h                                       0.9775839
   679   8 o      681   1 h                                       0.9700064
   682   8 o      683   1 h                                       0.9707096
   682   8 o      684   1 h                                       0.9760820
   685   8 o      686   1 h                                       0.9790929
   685   8 o      687   1 h                                       0.9893063
   688   8 o      689   1 h                                       0.9733248
   688   8 o      690   1 h                                       0.9831045
   691   8 o      692   1 h                                       0.9713220
   691   8 o      693   1 h                                       0.9740310
   694   8 o      695   1 h                                       0.9688270
   694   8 o      696   1 h                                       0.9751266
   697   8 o      698   1 h                                       0.9814488
   697   8 o      699   1 h                                       0.9650435
   700   8 o      701   1 h                                       0.9818347
   700   8 o      702   1 h                                       0.9651867
   703   8 o      704   1 h                                       0.9709076
   703   8 o      705   1 h                                       0.9824421
   706   8 o      707   1 h                                       0.9654175
   706   8 o      708   1 h                                       0.9781092
   709   8 o      710   1 h                                       0.9764731
   709   8 o      711   1 h                                       0.9568773
   712   8 o      713   1 h                                       0.9731419
   712   8 o      714   1 h                                       0.9796412
   715   8 o      716   1 h                                       0.9673266
   715   8 o      717   1 h                                       0.9775224
   718   8 o      719   1 h                                       0.9786960
   718   8 o      720   1 h                                       0.9729715
   721   8 o      722   1 h                                       0.9829039
   721   8 o      723   1 h                                       0.9673032
   724   8 o      725   1 h                                       0.9662365
   724   8 o      726   1 h                                       0.9682252
   727   8 o      728   1 h                                       0.9742046
   727   8 o      729   1 h                                       0.9793717
   730   8 o      731   1 h                                       0.9566108
   730   8 o      732   1 h                                       0.9826997
   733   8 o      734   1 h                                       0.9716284
   733   8 o      735   1 h                                       0.9712824
   736   8 o      737   1 h                                       0.9627564
   736   8 o      738   1 h                                       0.9649708
   739   8 o      740   1 h                                       0.9756364
   739   8 o      741   1 h                                       0.9795020
   742   8 o      743   1 h                                       0.9857623
   742   8 o      744   1 h                                       0.9611789
   745   8 o      746   1 h                                       0.9792452
   745   8 o      747   1 h                                       0.9602747
   748   8 o      749   1 h                                       0.9655117
   748   8 o      750   1 h                                       0.9771526
   751   8 o      752   1 h                                       0.9819045
   751   8 o      753   1 h                                       0.9603296
   754   8 o      755   1 h                                       0.9703607
   754   8 o      756   1 h                                       0.9608451

 * 1 distinct bonds (by element types)

   Z      Z             #   av. dist./Å        max./Å        min./Å
   1 H    8 O         503     0.9739123     0.9980639     0.9551746


optimized geometry written to: xtbopt.coord


           -------------------------------------------------
          | TOTAL ENERGY            -1283.342963687784 Eh   |
          | GRADIENT NORM               0.004596752300 Eh/α |
          | HOMO-LUMO GAP               8.125302939159 eV   |
           -------------------------------------------------

------------------------------------------------------------------------
 * finished run on 2022/11/24 at 09:12:16.188     
------------------------------------------------------------------------
 total:
 * wall-time:     0 d,  0 h,  4 min, 23.821 sec
 *  cpu-time:     0 d,  0 h,  6 min, 31.803 sec
 * ratio c/w:     1.485 speedup
 SCF:
 * wall-time:     0 d,  0 h,  0 min, 22.649 sec
 *  cpu-time:     0 d,  0 h,  0 min, 36.837 sec
 * ratio c/w:     1.626 speedup
 ANC optimizer:
 * wall-time:     0 d,  0 h,  4 min,  0.110 sec
 *  cpu-time:     0 d,  0 h,  5 min, 53.189 sec
 * ratio c/w:     1.471 speedup

