      -----------------------------------------------------------      
     |                   =====================                   |     
     |                           x T B                           |     
     |                   =====================                   |     
     |                         S. Grimme                         |     
     |          Mulliken Center for Theoretical Chemistry        |     
     |                    University of Bonn                     |     
      -----------------------------------------------------------      

   * xtb version 6.5.1 (579679a) compiled by 'ehlert@majestix' on 2022-07-11

   xtb is free software: you can redistribute it and/or modify it under
   the terms of the GNU Lesser General Public License as published by
   the Free Software Foundation, either version 3 of the License, or
   (at your option) any later version.
   
   xtb is distributed in the hope that it will be useful,
   but WITHOUT ANY WARRANTY; without even the implied warranty of
   MERCHANTABILITY or FITNESS FOR A PARTICULAR PURPOSE.  See the
   GNU Lesser General Public License for more details.
   
   Cite this work as:
   * C. Bannwarth, E. Caldeweyher, S. Ehlert, A. Hansen, P. Pracht,
     J. Seibert, S. Spicher, S. Grimme, WIREs Comput. Mol. Sci., 2020, 11,
     e01493. DOI: 10.1002/wcms.1493
   
   for GFN2-xTB:
   * C. Bannwarth, S. Ehlert and S. Grimme., J. Chem. Theory Comput., 2019,
     15, 1652-1671. DOI: 10.1021/acs.jctc.8b01176
   for GFN1-xTB:
   * S. Grimme, C. Bannwarth, P. Shushkov, J. Chem. Theory Comput., 2017,
     13, 1989-2009. DOI: 10.1021/acs.jctc.7b00118
   for GFN0-xTB:
   * P. Pracht, E. Caldeweyher, S. Ehlert, S. Grimme, ChemRxiv, 2019, preprint.
     DOI: 10.26434/chemrxiv.8326202.v1
   for GFN-FF:
   * S. Spicher and S. Grimme, Angew. Chem. Int. Ed., 2020, 59, 15665-15673.
     DOI: 10.1002/anie.202004239
   
   for ALPB and GBSA implicit solvation:
   * S. Ehlert, M. Stahn, S. Spicher, S. Grimme, J. Chem. Theory Comput.,
     2021, 17, 4250-4261. DOI: 10.1021/acs.jctc.1c00471
   
   for DFT-D4:
   * E. Caldeweyher, C. Bannwarth and S. Grimme, J. Chem. Phys., 2017,
     147, 034112. DOI: 10.1063/1.4993215
   * E. Caldeweyher, S. Ehlert, A. Hansen, H. Neugebauer, S. Spicher,
     C. Bannwarth and S. Grimme, J. Chem. Phys., 2019, 150, 154122.
     DOI: 10.1063/1.5090222
   * E. Caldeweyher, J.-M. Mewes, S. Ehlert and S. Grimme, Phys. Chem. Chem. Phys.
     2020, 22, 8499-8512. DOI: 10.1039/D0CP00502A
   
   for sTDA-xTB:
   * S. Grimme and C. Bannwarth, J. Chem. Phys., 2016, 145, 054103.
     DOI: 10.1063/1.4959605
   
   in the mass-spec context:
   * V. Asgeirsson, C. Bauer and S. Grimme, Chem. Sci., 2017, 8, 4879.
     DOI: 10.1039/c7sc00601b
   * J. Koopman and S. Grimme, ACS Omega 2019, 4, 12, 15120-15133.
     DOI: 10.1021/acsomega.9b02011
   
   for metadynamics refer to:
   * S. Grimme, J. Chem. Theory Comput., 2019, 155, 2847-2862
     DOI: 10.1021/acs.jctc.9b00143
   
   for SPH calculations refer to:
   * S. Spicher and S. Grimme, J. Chem. Theory Comput., 2021, 17, 1701-1714
     DOI: 10.1021/acs.jctc.0c01306
   
   with help from (in alphabetical order)
   P. Atkinson, C. Bannwarth, F. Bohle, G. Brandenburg, E. Caldeweyher
   M. Checinski, S. Dohm, S. Ehlert, S. Ehrlich, I. Gerasimov, C. Hölzer
   A. Katbashev, J. Koopman, C. Lavigne, S. Lehtola, F. März, M. Müller,
   F. Musil, H. Neugebauer, J. Pisarek, C. Plett, P. Pracht, F. Pultar,
   J. Seibert, P. Shushkov, S. Spicher, M. Stahn, M. Steiner, T. Strunk,
   J. Stückrath, T. Rose, and J. Unsleber
   
 * started run on 2022/11/24 at 09:27:46.528     

           -------------------------------------------------
          |                Calculation Setup                |
           -------------------------------------------------

          program call               : xtb xtbopt.coord --gfn2 --sp --gbsa water
          hostname                   : cn0341
          coordinate file            : xtbopt.coord
          omp threads                :                     2

   ID    Z sym.   atoms
    1    8 o      1, 4, 7, 10, 13, 16, 19, 22, 25, 28, 31, 34, 37, 40, 43,
                  46, 49, 52, 55, 58, 61, 64, 67, 70, 73, 76, 79, 82, 85, 88,
                  91, 94, 97, 100, 103, 106, 109, 112, 115, 118, 121, 124,
                  127, 130, 133, 136, 139, 142, 145, 148, 151, 154, 157, 160,
                  163, 166, 169, 172, 175, 178, 181, 184, 187, 190, 193, 196,
                  199, 202, 205, 208, 211, 214, 217, 220, 223, 226, 229, 232,
                  235, 238, 241, 244, 247, 250, 253, 256, 259, 262, 265, 268,
                  271, 274, 277, 280, 283, 286, 289, 292, 295, 298, 301, 304,
                  307, 310, 313, 316, 319, 322, 325, 328, 331, 334, 337, 340,
                  343, 346, 349, 352, 355, 358, 361, 364, 367, 370, 373, 376,
                  379, 382, 385, 388, 391, 394, 397, 400, 403, 406, 409, 412,
                  415, 418, 421, 424, 427, 430, 433, 436, 439, 442, 445, 448,
                  451, 454, 457, 460, 463, 466, 469, 472, 475, 478, 481, 484,
                  487, 490, 493, 496, 499, 502, 505, 508, 511, 514, 517, 520,
                  523, 526, 529, 532, 535, 538, 541, 544, 547, 550, 553, 556,
                  559, 562, 565, 568, 571, 574, 577, 580, 583, 586, 589, 592,
                  595, 598, 601, 604, 607, 610, 613, 616, 619, 622, 625, 628,
                  631, 634, 637, 640, 643, 646, 649, 652, 655, 658, 661, 664,
                  667, 670, 673, 676, 679, 682, 685, 688, 691, 694, 697, 700,
                  703, 706, 709, 712, 715, 718, 721, 724, 727, 730, 733, 736,
                  739, 742, 745, 748, 751, 754
    2    1 h      2, 3, 5, 6, 8, 9, 11, 12, 14, 15, 17, 18, 20, 21, 23, 24,
                  26, 27, 29, 30, 32, 33, 35, 36, 38, 39, 41, 42, 44, 45, 47,
                  48, 50, 51, 53, 54, 56, 57, 59, 60, 62, 63, 65, 66, 68, 69,
                  71, 72, 74, 75, 77, 78, 80, 81, 83, 84, 86, 87, 89, 90, 92,
                  93, 95, 96, 98, 99, 101, 102, 104, 105, 107, 108, 110, 111,
                  113, 114, 116, 117, 119, 120, 122, 123, 125, 126, 128, 129,
                  131, 132, 134, 135, 137, 138, 140, 141, 143, 144, 146, 147,
                  149, 150, 152, 153, 155, 156, 158, 159, 161, 162, 164, 165,
                  167, 168, 170, 171, 173, 174, 176, 177, 179, 180, 182, 183,
                  185, 186, 188, 189, 191, 192, 194, 195, 197, 198, 200, 201,
                  203, 204, 206, 207, 209, 210, 212, 213, 215, 216, 218, 219,
                  221, 222, 224, 225, 227, 228, 230, 231, 233, 234, 236, 237,
                  239, 240, 242, 243, 245, 246, 248, 249, 251, 252, 254, 255,
                  257, 258, 260, 261, 263, 264, 266, 267, 269, 270, 272, 273,
                  275, 276, 278, 279, 281, 282, 284, 285, 287, 288, 290, 291,
                  293, 294, 296, 297, 299, 300, 302, 303, 305, 306, 308, 309,
                  311, 312, 314, 315, 317, 318, 320, 321, 323, 324, 326, 327,
                  329, 330, 332, 333, 335, 336, 338, 339, 341, 342, 344, 345,
                  347, 348, 350, 351, 353, 354, 356, 357, 359, 360, 362, 363,
                  365, 366, 368, 369, 371, 372, 374, 375, 377, 378, 380, 381,
                  383, 384, 386, 387, 389, 390, 392, 393, 395, 396, 398, 399,
                  401, 402, 404, 405, 407, 408, 410, 411, 413, 414, 416, 417,
                  419, 420, 422, 423, 425, 426, 428, 429, 431, 432, 434, 435,
                  437, 438, 440, 441, 443, 444, 446, 447, 449, 450, 452, 453,
                  455, 456, 458, 459, 461, 462, 464, 465, 467, 468, 470, 471,
                  473, 474, 476, 477, 479, 480, 482, 483, 485, 486, 488, 489,
                  491, 492, 494, 495, 497, 498, 500, 501, 503, 504, 506, 507,
                  509, 510, 512, 513, 515, 516, 518, 519, 521, 522, 524, 525,
                  527, 528, 530, 531, 533, 534, 536, 537, 539, 540, 542, 543,
                  545, 546, 548, 549, 551, 552, 554, 555, 557, 558, 560, 561,
                  563, 564, 566, 567, 569, 570, 572, 573, 575, 576, 578, 579,
                  581, 582, 584, 585, 587, 588, 590, 591, 593, 594, 596, 597,
                  599, 600, 602, 603, 605, 606, 608, 609, 611, 612, 614, 615,
                  617, 618, 620, 621, 623, 624, 626, 627, 629, 630, 632, 633,
                  635, 636, 638, 639, 641, 642, 644, 645, 647, 648, 650, 651,
                  653, 654, 656, 657, 659, 660, 662, 663, 665, 666, 668, 669,
                  671, 672, 674, 675, 677, 678, 680, 681, 683, 684, 686, 687,
                  689, 690, 692, 693, 695, 696, 698, 699, 701, 702, 704, 705,
                  707, 708, 710, 711, 713, 714, 716, 717, 719, 720, 722, 723,
                  725, 726, 728, 729, 731, 732, 734, 735, 737, 738, 740, 741,
                  743, 744, 746, 747, 749, 750, 752, 753, 755, 756

molecular fragmentation (1/2 indicates fragments):
111222222222222222222222222222222222222222222222222222222222222222222222
222222222222222222222222222222222222222222222222222222222222222222222222
222222222222222222222222222222222222222222222222222222222222222222222222
222222222222222222222222222222222222222222222222222222222222222222222222
222222222222222222222222222222222222222222222222222222222222222222222222
222222222222222222222222222222222222222222222222222222222222222222222222
222222222222222222222222222222222222222222222222222222222222222222222222
222222222222222222222222222222222222222222222222222222222222222222222222
222222222222222222222222222222222222222222222222222222222222222222222222
222222222222222222222222222222222222222222222222222222222222222222222222
222222222222222222222222222222222222
# atoms in fragment 1/2:     3   753
 fragment masses (1/2) :       18.02     4521.84
CMA distance (Bohr)    :  15.592
constraining FC (au)   :  0.0500

           -------------------------------------------------
          |                 G F N 2 - x T B                 |
           -------------------------------------------------

        Reference                      10.1021/acs.jctc.8b01176
      * Hamiltonian:
        H0-scaling (s, p, d)           1.850000    2.230000    2.230000
        zeta-weighting                 0.500000
      * Dispersion:
        s8                             2.700000
        a1                             0.520000
        a2                             5.000000
        s9                             5.000000
      * Repulsion:
        kExp                           1.500000    1.000000
        rExp                           1.000000
      * Coulomb:
        alpha                          2.000000
        third order                    shell-resolved
        anisotropic                    true
        a3                             3.000000
        a5                             4.000000
        cn-shift                       1.200000
        cn-exp                         4.000000
        max-rad                        5.000000

      * Solvation model:               GBSA
        Solvent                        water
        Parameter file                 internal GFN2-xTB/GBSA
        Dielectric constant                8.0200E+01
        Reference state                gsolv [1 M gas/solution]
        Free energy shift                  1.8574E-03 Eh       1.1656E+00 kcal/mol
        Temperature                        2.9815E+02 K
        Density                            1.0000E+00 kg/L
        Solvent mass                       1.8000E+01 g/mol
        Interaction kernel             Still
        Born radius scaling (c1)           1.5524E+00
        Born radii integrator          GBOBC
        Born offset                        2.4628E-02 a0       4.6540E-02 AA
        H-bond correction              true
        Ion screening                  false
        Surface tension                    1.0000E-05 Eh       1.5569E+01 dyn/cm
        Grid points                               230 per atom

          ...................................................
          :                      SETUP                      :
          :.................................................:
          :  # basis functions                1512          :
          :  # atomic orbitals                1512          :
          :  # shells                         1008          :
          :  # electrons                      2016          :
          :  max. iterations                   250          :
          :  Hamiltonian                  GFN2-xTB          :
          :  restarted?                      false          :
          :  GBSA solvation                   true          :
          :  PC potential                    false          :
          :  electronic temp.          300.0000000     K    :
          :  accuracy                    1.0000000          :
          :  -> integral cutoff          0.2500000E+02      :
          :  -> integral neglect         0.1000000E-07      :
          :  -> SCF convergence          0.1000000E-05 Eh   :
          :  -> wf. convergence          0.1000000E-03 e    :
          :  Broyden damping             0.4000000          :
          ...................................................

 iter      E             dE          RMSdq      gap      omega  full diag
   1  -1291.2493784 -0.129125E+04  0.408E+00    8.36       0.0  T
   2  -1291.3313488 -0.819704E-01  0.242E+00    8.23       1.0  T
   3  -1291.3665434 -0.351946E-01  0.223E-01    7.91       1.0  T
   4  -1291.3719291 -0.538569E-02  0.476E-02    7.97       1.0  T
   5  -1291.3720747 -0.145613E-03  0.306E-02    7.95       1.0  T
   6  -1291.3721238 -0.491163E-04  0.394E-03    7.94       1.0  T
   7  -1291.3721257 -0.184233E-05  0.969E-04    7.94       3.8  T
   8  -1291.3721258 -0.131784E-06  0.456E-04    7.94       8.0  T
   9  -1291.3721258 -0.378898E-07  0.135E-04    7.94      26.9  T

   *** convergence criteria satisfied after 9 iterations ***

         #    Occupation            Energy/Eh            Energy/eV
      -------------------------------------------------------------
         1        2.0000           -0.6556788             -17.8419
       ...           ...                  ...                  ...
      1002        2.0000           -0.3573575              -9.7242
      1003        2.0000           -0.3564291              -9.6989
      1004        2.0000           -0.3543454              -9.6422
      1005        2.0000           -0.3529991              -9.6056
      1006        2.0000           -0.3526952              -9.5973
      1007        2.0000           -0.3515278              -9.5656
      1008        2.0000           -0.3489440              -9.4952 (HOMO)
      1009                         -0.0571580              -1.5553 (LUMO)
      1010                         -0.0493089              -1.3418
      1011                         -0.0395544              -1.0763
      1012                         -0.0359410              -0.9780
      1013                         -0.0285143              -0.7759
       ...                                ...                  ...
      1512                          0.4921444              13.3919
      -------------------------------------------------------------
                  HL-Gap            0.2917860 Eh            7.9399 eV
             Fermi-level           -0.2030510 Eh           -5.5253 eV

 SCC (total)                   0 d,  0 h,  0 min, 20.292 sec
 SCC setup                      ...        0 min,  0.117 sec (  0.577%)
 Dispersion                     ...        0 min,  0.110 sec (  0.540%)
 classical contributions        ...        0 min,  0.023 sec (  0.115%)
 integral evaluation            ...        0 min,  0.602 sec (  2.965%)
 iterations                     ...        0 min,  6.897 sec ( 33.990%)
 molecular gradient             ...        0 min, 12.474 sec ( 61.476%)
 printout                       ...        0 min,  0.068 sec (  0.337%)

         :::::::::::::::::::::::::::::::::::::::::::::::::::::
         ::                     SUMMARY                     ::
         :::::::::::::::::::::::::::::::::::::::::::::::::::::
         :: total energy           -1283.609961461505 Eh    ::
         :: total w/o Gsasa/hb     -1283.379766667665 Eh    ::
         :: gradient norm              0.104150759975 Eh/a0 ::
         :: HOMO-LUMO gap              7.939900802655 eV    ::
         ::.................................................::
         :: SCC energy             -1291.372125836619 Eh    ::
         :: -> isotropic ES            7.373428847699 Eh    ::
         :: -> anisotropic ES         -1.660916687227 Eh    ::
         :: -> anisotropic XC         -0.119195496289 Eh    ::
         :: -> dispersion             -0.788694567715 Eh    ::
         :: -> Gsolv                  -0.291160419315 Eh    ::
         ::    -> Gelec               -0.060965625475 Eh    ::
         ::    -> Gsasa                0.008223745550 Eh    ::
         ::    -> Ghb                 -0.240275982516 Eh    ::
         ::    -> Gshift               0.001857443127 Eh    ::
         :: repulsion energy           7.607947128379 Eh    ::
         :: add. restraining           0.000000000000 Eh    ::
         :: total charge               0.000000000000 e     ::
         :::::::::::::::::::::::::::::::::::::::::::::::::::::

           -------------------------------------------------
          |                Property Printout                |
           -------------------------------------------------

    * Orbital Energies and Occupations

         #    Occupation            Energy/Eh            Energy/eV
      -------------------------------------------------------------
         1        2.0000           -0.6556788             -17.8419
       ...           ...                  ...                  ...
       996        2.0000           -0.3603381              -9.8053
       997        2.0000           -0.3598509              -9.7920
       998        2.0000           -0.3596306              -9.7860
       999        2.0000           -0.3591677              -9.7734
      1000        2.0000           -0.3587862              -9.7631
      1001        2.0000           -0.3580463              -9.7429
      1002        2.0000           -0.3573575              -9.7242
      1003        2.0000           -0.3564291              -9.6989
      1004        2.0000           -0.3543454              -9.6422
      1005        2.0000           -0.3529991              -9.6056
      1006        2.0000           -0.3526952              -9.5973
      1007        2.0000           -0.3515278              -9.5656
      1008        2.0000           -0.3489440              -9.4952 (HOMO)
      1009                         -0.0571580              -1.5553 (LUMO)
      1010                         -0.0493089              -1.3418
      1011                         -0.0395544              -1.0763
      1012                         -0.0359410              -0.9780
      1013                         -0.0285143              -0.7759
      1014                         -0.0248737              -0.6768
      1015                         -0.0196149              -0.5337
      1016                         -0.0120120              -0.3269
      1017                         -0.0104168              -0.2835
      1018                         -0.0072343              -0.1969
      1019                         -0.0047194              -0.1284
       ...                                ...                  ...
      1512                          0.4921444              13.3919
      -------------------------------------------------------------
                  HL-Gap            0.2917860 Eh            7.9399 eV
             Fermi-level           -0.2030510 Eh           -5.5253 eV

     #   Z          covCN         q      C6AA      α(0)
     1   8 o        1.608    -0.676    27.091     7.025
     2   1 h        0.805     0.330     0.638     1.254
     3   1 h        0.803     0.348     0.593     1.210
     4   8 o        1.606    -0.710    27.975     7.138
     5   1 h        0.804     0.347     0.594     1.211
     6   1 h        0.803     0.351     0.586     1.203
     7   8 o        1.608    -0.676    27.085     7.024
     8   1 h        0.804     0.357     0.572     1.188
     9   1 h        0.805     0.336     0.622     1.238
    10   8 o        1.609    -0.686    27.353     7.059
    11   1 h        0.804     0.334     0.627     1.243
    12   1 h        0.804     0.347     0.594     1.211
    13   8 o        1.608    -0.690    27.448     7.071
    14   1 h        0.805     0.340     0.612     1.229
    15   1 h        0.803     0.353     0.582     1.198
    16   8 o        1.606    -0.695    27.569     7.086
    17   1 h        0.803     0.357     0.572     1.188
    18   1 h        0.803     0.344     0.602     1.219
    19   8 o        1.608    -0.692    27.490     7.076
    20   1 h        0.804     0.343     0.606     1.223
    21   1 h        0.804     0.353     0.582     1.198
    22   8 o        1.597    -0.676    27.091     7.024
    23   1 h        0.792     0.367     0.553     1.169
    24   1 h        0.804     0.356     0.573     1.190
    25   8 o        1.608    -0.660    26.666     6.969
    26   1 h        0.804     0.330     0.636     1.253
    27   1 h        0.804     0.334     0.627     1.243
    28   8 o        1.609    -0.678    27.142     7.031
    29   1 h        0.805     0.344     0.604     1.220
    30   1 h        0.805     0.327     0.646     1.262
    31   8 o        1.606    -0.671    26.965     7.008
    32   1 h        0.803     0.330     0.637     1.253
    33   1 h        0.802     0.346     0.599     1.216
    34   8 o        1.609    -0.674    27.035     7.018
    35   1 h        0.804     0.355     0.576     1.192
    36   1 h        0.805     0.343     0.606     1.222
    37   8 o        1.607    -0.672    26.973     7.010
    38   1 h        0.804     0.335     0.626     1.243
    39   1 h        0.803     0.346     0.597     1.214
    40   8 o        1.606    -0.708    27.933     7.133
    41   1 h        0.804     0.340     0.611     1.228
    42   1 h        0.803     0.352     0.583     1.200
    43   8 o        1.609    -0.682    27.237     7.044
    44   1 h        0.804     0.357     0.572     1.188
    45   1 h        0.804     0.359     0.568     1.184
    46   8 o        1.611    -0.675    27.059     7.021
    47   1 h        0.804     0.345     0.601     1.217
    48   1 h        0.805     0.320     0.664     1.280
    49   8 o        1.607    -0.707    27.910     7.130
    50   1 h        0.804     0.348     0.594     1.211
    51   1 h        0.803     0.369     0.546     1.161
    52   8 o        1.608    -0.673    27.005     7.014
    53   1 h        0.805     0.346     0.597     1.214
    54   1 h        0.804     0.342     0.608     1.225
    55   8 o        1.609    -0.674    27.039     7.018
    56   1 h        0.804     0.338     0.617     1.234
    57   1 h        0.804     0.341     0.610     1.226
    58   8 o        1.609    -0.688    27.380     7.062
    59   1 h        0.805     0.349     0.590     1.206
    60   1 h        0.804     0.347     0.596     1.212
    61   8 o        1.607    -0.688    27.392     7.064
    62   1 h        0.803     0.367     0.550     1.165
    63   1 h        0.803     0.338     0.617     1.234
    64   8 o        1.607    -0.696    27.614     7.092
    65   1 h        0.803     0.343     0.606     1.223
    66   1 h        0.803     0.358     0.571     1.187
    67   8 o        1.609    -0.667    26.835     6.992
    68   1 h        0.804     0.338     0.618     1.235
    69   1 h        0.805     0.333     0.629     1.246
    70   8 o        1.610    -0.681    27.208     7.040
    71   1 h        0.804     0.351     0.585     1.201
    72   1 h        0.805     0.328     0.642     1.258
    73   8 o        1.608    -0.682    27.243     7.044
    74   1 h        0.804     0.342     0.607     1.224
    75   1 h        0.803     0.339     0.614     1.231
    76   8 o        1.608    -0.693    27.534     7.082
    77   1 h        0.804     0.344     0.602     1.219
    78   1 h        0.804     0.346     0.598     1.214
    79   8 o        1.608    -0.670    26.935     7.005
    80   1 h        0.803     0.361     0.563     1.179
    81   1 h        0.806     0.306     0.703     1.317
    82   8 o        1.607    -0.684    27.293     7.051
    83   1 h        0.804     0.323     0.657     1.273
    84   1 h        0.803     0.345     0.600     1.217
    85   8 o        1.607    -0.687    27.368     7.061
    86   1 h        0.804     0.340     0.612     1.229
    87   1 h        0.803     0.343     0.605     1.222
    88   8 o        1.607    -0.691    27.467     7.073
    89   1 h        0.803     0.368     0.548     1.163
    90   1 h        0.804     0.338     0.618     1.235
    91   8 o        1.606    -0.680    27.177     7.036
    92   1 h        0.804     0.328     0.642     1.259
    93   1 h        0.802     0.333     0.629     1.246
    94   8 o        1.607    -0.662    26.726     6.977
    95   1 h        0.805     0.327     0.645     1.262
    96   1 h        0.803     0.339     0.615     1.232
    97   8 o        1.606    -0.710    27.983     7.139
    98   1 h        0.803     0.350     0.589     1.206
    99   1 h        0.804     0.350     0.589     1.206
   100   8 o        1.609    -0.679    27.159     7.034
   101   1 h        0.804     0.344     0.602     1.219
   102   1 h        0.805     0.337     0.620     1.237
   103   8 o        1.607    -0.682    27.235     7.043
   104   1 h        0.803     0.346     0.598     1.215
   105   1 h        0.804     0.331     0.634     1.251
   106   8 o        1.607    -0.693    27.525     7.081
   107   1 h        0.804     0.352     0.584     1.201
   108   1 h        0.804     0.317     0.672     1.288
   109   8 o        1.607    -0.687    27.376     7.062
   110   1 h        0.804     0.348     0.593     1.209
   111   1 h        0.803     0.351     0.585     1.202
   112   8 o        1.608    -0.674    27.016     7.015
   113   1 h        0.805     0.343     0.606     1.223
   114   1 h        0.804     0.350     0.587     1.204
   115   8 o        1.607    -0.717    28.172     7.164
   116   1 h        0.803     0.344     0.602     1.218
   117   1 h        0.804     0.339     0.614     1.231
   118   8 o        1.608    -0.694    27.558     7.085
   119   1 h        0.805     0.352     0.583     1.199
   120   1 h        0.803     0.351     0.586     1.203
   121   8 o        1.607    -0.703    27.782     7.114
   122   1 h        0.803     0.353     0.581     1.197
   123   1 h        0.805     0.326     0.647     1.263
   124   8 o        1.606    -0.704    27.831     7.120
   125   1 h        0.803     0.352     0.583     1.200
   126   1 h        0.804     0.362     0.561     1.176
   127   8 o        1.607    -0.703    27.801     7.116
   128   1 h        0.803     0.341     0.611     1.227
   129   1 h        0.804     0.335     0.624     1.241
   130   8 o        1.605    -0.685    27.323     7.055
   131   1 h        0.802     0.366     0.552     1.167
   132   1 h        0.806     0.310     0.691     1.305
   133   8 o        1.609    -0.666    26.817     6.989
   134   1 h        0.805     0.328     0.642     1.259
   135   1 h        0.804     0.332     0.632     1.248
   136   8 o        1.607    -0.698    27.669     7.099
   137   1 h        0.804     0.336     0.622     1.239
   138   1 h        0.804     0.352     0.584     1.201
   139   8 o        1.608    -0.671    26.946     7.006
   140   1 h        0.803     0.340     0.611     1.228
   141   1 h        0.804     0.352     0.585     1.201
   142   8 o        1.607    -0.692    27.505     7.078
   143   1 h        0.803     0.332     0.632     1.249
   144   1 h        0.804     0.363     0.559     1.174
   145   8 o        1.607    -0.667    26.856     6.994
   146   1 h        0.802     0.344     0.604     1.221
   147   1 h        0.805     0.322     0.658     1.274
   148   8 o        1.607    -0.694    27.560     7.085
   149   1 h        0.803     0.359     0.567     1.183
   150   1 h        0.804     0.327     0.644     1.261
   151   8 o        1.609    -0.649    26.383     6.932
   152   1 h        0.804     0.322     0.657     1.273
   153   1 h        0.805     0.342     0.606     1.223
   154   8 o        1.606    -0.694    27.544     7.083
   155   1 h        0.805     0.323     0.655     1.271
   156   1 h        0.802     0.365     0.554     1.169
   157   8 o        1.608    -0.692    27.491     7.076
   158   1 h        0.805     0.327     0.646     1.263
   159   1 h        0.803     0.359     0.568     1.184
   160   8 o        1.608    -0.701    27.744     7.109
   161   1 h        0.803     0.357     0.572     1.188
   162   1 h        0.804     0.336     0.621     1.238
   163   8 o        1.606    -0.662    26.730     6.978
   164   1 h        0.802     0.335     0.624     1.241
   165   1 h        0.804     0.336     0.621     1.238
   166   8 o        1.609    -0.690    27.440     7.070
   167   1 h        0.804     0.343     0.605     1.222
   168   1 h        0.804     0.352     0.583     1.199
   169   8 o        1.607    -0.675    27.048     7.019
   170   1 h        0.803     0.344     0.602     1.219
   171   1 h        0.804     0.338     0.617     1.234
   172   8 o        1.609    -0.673    27.008     7.014
   173   1 h        0.805     0.341     0.610     1.226
   174   1 h        0.804     0.357     0.571     1.187
   175   8 o        1.608    -0.662    26.723     6.977
   176   1 h        0.804     0.328     0.644     1.260
   177   1 h        0.803     0.327     0.645     1.262
   178   8 o        1.609    -0.672    26.970     7.009
   179   1 h        0.804     0.338     0.617     1.234
   180   1 h        0.804     0.340     0.613     1.230
   181   8 o        1.606    -0.672    26.972     7.009
   182   1 h        0.801     0.353     0.582     1.199
   183   1 h        0.806     0.308     0.697     1.312
   184   8 o        1.607    -0.683    27.269     7.048
   185   1 h        0.803     0.342     0.607     1.224
   186   1 h        0.804     0.323     0.656     1.272
   187   8 o        1.609    -0.658    26.626     6.964
   188   1 h        0.805     0.334     0.627     1.243
   189   1 h        0.804     0.335     0.624     1.240
   190   8 o        1.606    -0.683    27.260     7.047
   191   1 h        0.803     0.329     0.639     1.256
   192   1 h        0.803     0.336     0.621     1.238
   193   8 o        1.609    -0.689    27.432     7.069
   194   1 h        0.805     0.338     0.618     1.235
   195   1 h        0.804     0.356     0.574     1.190
   196   8 o        1.605    -0.706    27.875     7.126
   197   1 h        0.803     0.346     0.598     1.215
   198   1 h        0.803     0.353     0.581     1.197
   199   8 o        1.607    -0.700    27.714     7.105
   200   1 h        0.803     0.362     0.560     1.176
   201   1 h        0.804     0.343     0.605     1.221
   202   8 o        1.607    -0.665    26.796     6.986
   203   1 h        0.803     0.330     0.639     1.256
   204   1 h        0.804     0.342     0.607     1.223
   205   8 o        1.606    -0.692    27.504     7.078
   206   1 h        0.803     0.354     0.579     1.196
   207   1 h        0.803     0.355     0.577     1.193
   208   8 o        1.607    -0.697    27.628     7.094
   209   1 h        0.805     0.322     0.658     1.274
   210   1 h        0.803     0.355     0.577     1.194
   211   8 o        1.608    -0.672    26.970     7.009
   212   1 h        0.803     0.351     0.585     1.202
   213   1 h        0.805     0.328     0.643     1.259
   214   8 o        1.607    -0.691    27.472     7.074
   215   1 h        0.805     0.347     0.596     1.212
   216   1 h        0.803     0.351     0.586     1.203
   217   8 o        1.608    -0.694    27.539     7.083
   218   1 h        0.805     0.340     0.612     1.228
   219   1 h        0.803     0.346     0.598     1.215
   220   8 o        1.607    -0.683    27.256     7.046
   221   1 h        0.803     0.351     0.587     1.203
   222   1 h        0.804     0.334     0.628     1.244
   223   8 o        1.608    -0.672    26.985     7.011
   224   1 h        0.804     0.346     0.597     1.214
   225   1 h        0.805     0.339     0.613     1.230
   226   8 o        1.611    -0.661    26.702     6.974
   227   1 h        0.805     0.320     0.662     1.278
   228   1 h        0.803     0.359     0.569     1.185
   229   8 o        1.608    -0.682    27.243     7.045
   230   1 h        0.805     0.321     0.660     1.276
   231   1 h        0.804     0.343     0.605     1.222
   232   8 o        1.607    -0.700    27.720     7.106
   233   1 h        0.805     0.350     0.589     1.206
   234   1 h        0.802     0.356     0.575     1.191
   235   8 o        1.608    -0.656    26.574     6.957
   236   1 h        0.804     0.341     0.610     1.227
   237   1 h        0.803     0.338     0.618     1.235
   238   8 o        1.608    -0.682    27.239     7.044
   239   1 h        0.805     0.344     0.603     1.220
   240   1 h        0.803     0.333     0.631     1.248
   241   8 o        1.605    -0.691    27.469     7.073
   242   1 h        0.802     0.339     0.615     1.232
   243   1 h        0.803     0.366     0.552     1.167
   244   8 o        1.609    -0.676    27.089     7.025
   245   1 h        0.804     0.330     0.638     1.254
   246   1 h        0.804     0.343     0.605     1.222
   247   8 o        1.606    -0.686    27.346     7.058
   248   1 h        0.803     0.355     0.576     1.192
   249   1 h        0.804     0.336     0.623     1.240
   250   8 o        1.607    -0.689    27.422     7.068
   251   1 h        0.802     0.373     0.539     1.153
   252   1 h        0.805     0.322     0.657     1.274
   253   8 o        1.610    -0.680    27.174     7.036
   254   1 h        0.806     0.327     0.645     1.262
   255   1 h        0.804     0.347     0.594     1.211
   256   8 o        1.608    -0.678    27.133     7.030
   257   1 h        0.804     0.360     0.566     1.182
   258   1 h        0.803     0.335     0.625     1.242
   259   8 o        1.607    -0.693    27.536     7.082
   260   1 h        0.802     0.367     0.551     1.167
   261   1 h        0.805     0.324     0.654     1.271
   262   8 o        1.608    -0.684    27.281     7.049
   263   1 h        0.805     0.338     0.618     1.235
   264   1 h        0.803     0.336     0.623     1.240
   265   8 o        1.607    -0.679    27.164     7.034
   266   1 h        0.804     0.346     0.599     1.215
   267   1 h        0.804     0.334     0.628     1.245
   268   8 o        1.608    -0.681    27.216     7.041
   269   1 h        0.805     0.320     0.663     1.279
   270   1 h        0.803     0.353     0.582     1.198
   271   8 o        1.606    -0.683    27.259     7.046
   272   1 h        0.803     0.333     0.631     1.248
   273   1 h        0.803     0.359     0.567     1.183
   274   8 o        1.607    -0.670    26.914     7.002
   275   1 h        0.803     0.335     0.625     1.242
   276   1 h        0.804     0.350     0.587     1.204
   277   8 o        1.604    -0.724    28.361     7.187
   278   1 h        0.803     0.356     0.574     1.190
   279   1 h        0.804     0.366     0.552     1.167
   280   8 o        1.606    -0.668    26.878     6.997
   281   1 h        0.803     0.337     0.619     1.236
   282   1 h        0.803     0.336     0.622     1.239
   283   8 o        1.608    -0.662    26.732     6.978
   284   1 h        0.804     0.324     0.653     1.269
   285   1 h        0.803     0.353     0.582     1.198
   286   8 o        1.609    -0.679    27.156     7.033
   287   1 h        0.804     0.346     0.598     1.215
   288   1 h        0.805     0.337     0.620     1.237
   289   8 o        1.607    -0.720    28.252     7.174
   290   1 h        0.803     0.351     0.586     1.203
   291   1 h        0.804     0.334     0.628     1.245
   292   8 o        1.609    -0.681    27.211     7.040
   293   1 h        0.804     0.336     0.622     1.239
   294   1 h        0.804     0.342     0.606     1.223
   295   8 o        1.607    -0.691    27.480     7.075
   296   1 h        0.803     0.330     0.638     1.255
   297   1 h        0.803     0.370     0.543     1.158
   298   8 o        1.607    -0.707    27.904     7.129
   299   1 h        0.804     0.341     0.611     1.228
   300   1 h        0.803     0.359     0.567     1.183
   301   8 o        1.607    -0.687    27.374     7.061
   302   1 h        0.804     0.343     0.604     1.221
   303   1 h        0.803     0.366     0.551     1.167
   304   8 o        1.607    -0.676    27.080     7.023
   305   1 h        0.805     0.319     0.667     1.283
   306   1 h        0.802     0.369     0.546     1.161
   307   8 o        1.609    -0.676    27.077     7.023
   308   1 h        0.805     0.362     0.561     1.177
   309   1 h        0.804     0.327     0.645     1.261
   310   8 o        1.607    -0.670    26.916     7.002
   311   1 h        0.804     0.325     0.651     1.268
   312   1 h        0.804     0.350     0.587     1.204
   313   8 o        1.609    -0.658    26.627     6.964
   314   1 h        0.803     0.356     0.574     1.190
   315   1 h        0.805     0.321     0.662     1.278
   316   8 o        1.608    -0.669    26.907     7.001
   317   1 h        0.802     0.354     0.578     1.195
   318   1 h        0.806     0.315     0.679     1.294
   319   8 o        1.608    -0.684    27.294     7.051
   320   1 h        0.803     0.357     0.573     1.189
   321   1 h        0.805     0.347     0.595     1.212
   322   8 o        1.607    -0.697    27.632     7.095
   323   1 h        0.802     0.353     0.582     1.198
   324   1 h        0.805     0.337     0.620     1.237
   325   8 o        1.606    -0.698    27.664     7.099
   326   1 h        0.803     0.354     0.578     1.195
   327   1 h        0.803     0.339     0.615     1.232
   328   8 o        1.610    -0.649    26.378     6.932
   329   1 h        0.805     0.329     0.639     1.256
   330   1 h        0.805     0.316     0.675     1.290
   331   8 o        1.608    -0.667    26.845     6.993
   332   1 h        0.803     0.338     0.618     1.235
   333   1 h        0.805     0.319     0.665     1.281
   334   8 o        1.607    -0.706    27.875     7.126
   335   1 h        0.803     0.362     0.562     1.178
   336   1 h        0.804     0.334     0.628     1.245
   337   8 o        1.606    -0.690    27.455     7.072
   338   1 h        0.802     0.334     0.627     1.244
   339   1 h        0.804     0.349     0.591     1.208
   340   8 o        1.603    -0.714    28.089     7.153
   341   1 h        0.802     0.361     0.563     1.178
   342   1 h        0.802     0.357     0.571     1.188
   343   8 o        1.605    -0.686    27.331     7.056
   344   1 h        0.803     0.359     0.568     1.184
   345   1 h        0.804     0.320     0.663     1.279
   346   8 o        1.606    -0.696    27.607     7.091
   347   1 h        0.802     0.367     0.551     1.166
   348   1 h        0.804     0.329     0.641     1.258
   349   8 o        1.608    -0.672    26.972     7.009
   350   1 h        0.803     0.355     0.576     1.192
   351   1 h        0.806     0.309     0.694     1.308
   352   8 o        1.607    -0.676    27.085     7.024
   353   1 h        0.803     0.334     0.627     1.243
   354   1 h        0.805     0.319     0.667     1.283
   355   8 o        1.608    -0.704    27.812     7.118
   356   1 h        0.803     0.348     0.593     1.209
   357   1 h        0.804     0.328     0.642     1.259
   358   8 o        1.605    -0.695    27.590     7.089
   359   1 h        0.803     0.354     0.579     1.195
   360   1 h        0.803     0.337     0.620     1.237
   361   8 o        1.606    -0.679    27.157     7.033
   362   1 h        0.801     0.352     0.584     1.200
   363   1 h        0.806     0.316     0.674     1.289
   364   8 o        1.607    -0.677    27.098     7.026
   365   1 h        0.804     0.333     0.631     1.247
   366   1 h        0.803     0.342     0.608     1.225
   367   8 o        1.607    -0.695    27.569     7.086
   368   1 h        0.803     0.342     0.608     1.225
   369   1 h        0.804     0.338     0.618     1.235
   370   8 o        1.608    -0.690    27.442     7.070
   371   1 h        0.803     0.363     0.558     1.174
   372   1 h        0.805     0.329     0.639     1.255
   373   8 o        1.607    -0.685    27.311     7.053
   374   1 h        0.804     0.325     0.651     1.267
   375   1 h        0.803     0.353     0.581     1.197
   376   8 o        1.608    -0.676    27.090     7.025
   377   1 h        0.804     0.362     0.561     1.177
   378   1 h        0.804     0.343     0.606     1.223
   379   8 o        1.607    -0.675    27.055     7.020
   380   1 h        0.802     0.373     0.538     1.153
   381   1 h        0.805     0.323     0.655     1.271
   382   8 o        1.608    -0.651    26.435     6.939
   383   1 h        0.803     0.359     0.568     1.184
   384   1 h        0.806     0.315     0.678     1.294
   385   8 o        1.607    -0.689    27.419     7.067
   386   1 h        0.803     0.359     0.568     1.184
   387   1 h        0.804     0.332     0.633     1.250
   388   8 o        1.608    -0.665    26.803     6.987
   389   1 h        0.803     0.341     0.610     1.227
   390   1 h        0.805     0.330     0.637     1.253
   391   8 o        1.608    -0.671    26.959     7.008
   392   1 h        0.805     0.334     0.626     1.243
   393   1 h        0.803     0.336     0.623     1.240
   394   8 o        1.606    -0.683    27.256     7.046
   395   1 h        0.802     0.352     0.584     1.200
   396   1 h        0.804     0.333     0.630     1.247
   397   8 o        1.608    -0.678    27.126     7.029
   398   1 h        0.805     0.325     0.650     1.266
   399   1 h        0.803     0.344     0.602     1.218
   400   8 o        1.606    -0.706    27.863     7.124
   401   1 h        0.803     0.345     0.601     1.218
   402   1 h        0.802     0.366     0.552     1.168
   403   8 o        1.604    -0.698    27.659     7.098
   404   1 h        0.802     0.370     0.543     1.158
   405   1 h        0.802     0.337     0.621     1.238
   406   8 o        1.604    -0.721    28.287     7.178
   407   1 h        0.802     0.356     0.574     1.190
   408   1 h        0.803     0.350     0.588     1.205
   409   8 o        1.602    -0.703    27.795     7.115
   410   1 h        0.801     0.340     0.613     1.230
   411   1 h        0.802     0.342     0.607     1.224
   412   8 o        1.608    -0.683    27.264     7.047
   413   1 h        0.805     0.324     0.652     1.268
   414   1 h        0.803     0.360     0.565     1.181
   415   8 o        1.609    -0.683    27.263     7.047
   416   1 h        0.805     0.331     0.635     1.252
   417   1 h        0.804     0.341     0.609     1.226
   418   8 o        1.608    -0.667    26.838     6.992
   419   1 h        0.804     0.332     0.633     1.250
   420   1 h        0.804     0.343     0.606     1.223
   421   8 o        1.608    -0.676    27.074     7.023
   422   1 h        0.802     0.355     0.577     1.194
   423   1 h        0.805     0.316     0.675     1.291
   424   8 o        1.608    -0.685    27.308     7.053
   425   1 h        0.804     0.336     0.623     1.240
   426   1 h        0.805     0.329     0.641     1.257
   427   8 o        1.608    -0.657    26.581     6.958
   428   1 h        0.805     0.332     0.633     1.250
   429   1 h        0.803     0.341     0.610     1.227
   430   8 o        1.606    -0.691    27.487     7.076
   431   1 h        0.804     0.358     0.569     1.185
   432   1 h        0.802     0.335     0.625     1.242
   433   8 o        1.605    -0.708    27.937     7.134
   434   1 h        0.803     0.359     0.569     1.185
   435   1 h        0.803     0.343     0.605     1.222
   436   8 o        1.609    -0.668    26.868     6.996
   437   1 h        0.804     0.320     0.663     1.279
   438   1 h        0.805     0.336     0.623     1.239
   439   8 o        1.608    -0.659    26.652     6.968
   440   1 h        0.804     0.362     0.561     1.176
   441   1 h        0.804     0.330     0.636     1.253
   442   8 o        1.609    -0.679    27.163     7.034
   443   1 h        0.805     0.320     0.664     1.280
   444   1 h        0.804     0.349     0.591     1.208
   445   8 o        1.608    -0.662    26.720     6.977
   446   1 h        0.804     0.324     0.652     1.269
   447   1 h        0.804     0.328     0.642     1.259
   448   8 o        1.608    -0.690    27.439     7.070
   449   1 h        0.803     0.358     0.570     1.186
   450   1 h        0.805     0.322     0.657     1.274
   451   8 o        1.609    -0.671    26.947     7.006
   452   1 h        0.804     0.334     0.627     1.244
   453   1 h        0.804     0.323     0.656     1.273
   454   8 o        1.608    -0.655    26.540     6.953
   455   1 h        0.806     0.313     0.682     1.297
   456   1 h        0.802     0.335     0.626     1.243
   457   8 o        1.607    -0.687    27.373     7.061
   458   1 h        0.803     0.342     0.608     1.225
   459   1 h        0.804     0.334     0.627     1.243
   460   8 o        1.609    -0.659    26.638     6.966
   461   1 h        0.804     0.343     0.605     1.222
   462   1 h        0.805     0.329     0.639     1.256
   463   8 o        1.607    -0.688    27.386     7.063
   464   1 h        0.805     0.313     0.683     1.298
   465   1 h        0.802     0.361     0.563     1.179
   466   8 o        1.610    -0.662    26.724     6.977
   467   1 h        0.805     0.331     0.635     1.252
   468   1 h        0.805     0.335     0.624     1.240
   469   8 o        1.607    -0.674    27.039     7.018
   470   1 h        0.804     0.329     0.641     1.257
   471   1 h        0.803     0.343     0.605     1.222
   472   8 o        1.609    -0.667    26.840     6.992
   473   1 h        0.804     0.339     0.615     1.232
   474   1 h        0.805     0.326     0.648     1.265
   475   8 o        1.606    -0.704    27.827     7.119
   476   1 h        0.803     0.340     0.612     1.229
   477   1 h        0.803     0.323     0.656     1.272
   478   8 o        1.610    -0.672    26.972     7.009
   479   1 h        0.804     0.350     0.588     1.205
   480   1 h        0.805     0.331     0.633     1.250
   481   8 o        1.608    -0.683    27.271     7.048
   482   1 h        0.805     0.352     0.584     1.200
   483   1 h        0.803     0.354     0.580     1.196
   484   8 o        1.608    -0.690    27.450     7.071
   485   1 h        0.804     0.338     0.617     1.234
   486   1 h        0.804     0.342     0.608     1.225
   487   8 o        1.607    -0.672    26.988     7.011
   488   1 h        0.801     0.348     0.594     1.211
   489   1 h        0.806     0.310     0.691     1.306
   490   8 o        1.607    -0.703    27.791     7.115
   491   1 h        0.803     0.353     0.580     1.197
   492   1 h        0.804     0.339     0.614     1.231
   493   8 o        1.609    -0.667    26.840     6.992
   494   1 h        0.804     0.321     0.661     1.278
   495   1 h        0.804     0.336     0.623     1.240
   496   8 o        1.607    -0.700    27.699     7.103
   497   1 h        0.804     0.347     0.596     1.213
   498   1 h        0.802     0.359     0.567     1.183
   499   8 o        1.608    -0.672    26.973     7.009
   500   1 h        0.804     0.335     0.624     1.241
   501   1 h        0.804     0.334     0.627     1.244
   502   8 o        1.610    -0.673    26.994     7.012
   503   1 h        0.805     0.334     0.628     1.244
   504   1 h        0.804     0.351     0.586     1.202
   505   8 o        1.606    -0.707    27.901     7.129
   506   1 h        0.802     0.353     0.582     1.198
   507   1 h        0.803     0.354     0.579     1.195
   508   8 o        1.607    -0.702    27.761     7.111
   509   1 h        0.803     0.346     0.597     1.213
   510   1 h        0.804     0.334     0.626     1.243
   511   8 o        1.608    -0.683    27.261     7.047
   512   1 h        0.804     0.359     0.567     1.183
   513   1 h        0.804     0.347     0.594     1.211
   514   8 o        1.607    -0.696    27.618     7.093
   515   1 h        0.803     0.329     0.641     1.257
   516   1 h        0.803     0.347     0.596     1.213
   517   8 o        1.605    -0.713    28.075     7.151
   518   1 h        0.803     0.348     0.593     1.210
   519   1 h        0.802     0.369     0.546     1.160
   520   8 o        1.608    -0.668    26.874     6.997
   521   1 h        0.805     0.330     0.637     1.254
   522   1 h        0.803     0.337     0.619     1.236
   523   8 o        1.609    -0.690    27.434     7.069
   524   1 h        0.804     0.343     0.604     1.221
   525   1 h        0.804     0.341     0.609     1.226
   526   8 o        1.609    -0.668    26.863     6.995
   527   1 h        0.804     0.349     0.590     1.207
   528   1 h        0.805     0.330     0.636     1.253
   529   8 o        1.607    -0.653    26.497     6.947
   530   1 h        0.805     0.307     0.700     1.314
   531   1 h        0.802     0.355     0.577     1.193
   532   8 o        1.609    -0.656    26.577     6.958
   533   1 h        0.804     0.354     0.578     1.195
   534   1 h        0.805     0.315     0.677     1.292
   535   8 o        1.606    -0.703    27.781     7.114
   536   1 h        0.803     0.366     0.553     1.168
   537   1 h        0.804     0.331     0.636     1.253
   538   8 o        1.608    -0.675    27.058     7.021
   539   1 h        0.802     0.365     0.554     1.169
   540   1 h        0.806     0.311     0.688     1.302
   541   8 o        1.609    -0.663    26.751     6.981
   542   1 h        0.804     0.346     0.598     1.215
   543   1 h        0.805     0.328     0.644     1.260
   544   8 o        1.608    -0.682    27.245     7.045
   545   1 h        0.804     0.336     0.621     1.238
   546   1 h        0.804     0.340     0.613     1.230
   547   8 o        1.608    -0.691    27.467     7.073
   548   1 h        0.803     0.335     0.625     1.242
   549   1 h        0.804     0.334     0.627     1.244
   550   8 o        1.606    -0.676    27.080     7.023
   551   1 h        0.805     0.317     0.672     1.288
   552   1 h        0.802     0.340     0.613     1.230
   553   8 o        1.606    -0.677    27.108     7.027
   554   1 h        0.805     0.324     0.652     1.269
   555   1 h        0.802     0.339     0.615     1.232
   556   8 o        1.608    -0.695    27.588     7.089
   557   1 h        0.804     0.325     0.652     1.268
   558   1 h        0.804     0.336     0.621     1.238
   559   8 o        1.607    -0.697    27.638     7.095
   560   1 h        0.803     0.334     0.628     1.245
   561   1 h        0.804     0.359     0.568     1.184
   562   8 o        1.605    -0.713    28.052     7.148
   563   1 h        0.802     0.361     0.563     1.179
   564   1 h        0.803     0.327     0.644     1.261
   565   8 o        1.608    -0.661    26.705     6.975
   566   1 h        0.803     0.326     0.648     1.264
   567   1 h        0.804     0.325     0.650     1.267
   568   8 o        1.608    -0.680    27.175     7.036
   569   1 h        0.805     0.326     0.649     1.265
   570   1 h        0.804     0.350     0.589     1.205
   571   8 o        1.609    -0.667    26.853     6.994
   572   1 h        0.805     0.329     0.640     1.257
   573   1 h        0.804     0.338     0.616     1.233
   574   8 o        1.605    -0.718    28.186     7.165
   575   1 h        0.803     0.347     0.594     1.211
   576   1 h        0.802     0.356     0.574     1.190
   577   8 o        1.607    -0.651    26.447     6.941
   578   1 h        0.805     0.329     0.640     1.256
   579   1 h        0.803     0.337     0.620     1.237
   580   8 o        1.608    -0.659    26.641     6.966
   581   1 h        0.802     0.368     0.548     1.163
   582   1 h        0.806     0.313     0.683     1.298
   583   8 o        1.607    -0.695    27.571     7.087
   584   1 h        0.803     0.343     0.606     1.223
   585   1 h        0.804     0.360     0.566     1.182
   586   8 o        1.610    -0.644    26.271     6.918
   587   1 h        0.806     0.323     0.656     1.272
   588   1 h        0.804     0.345     0.600     1.217
   589   8 o        1.606    -0.684    27.281     7.049
   590   1 h        0.802     0.352     0.585     1.201
   591   1 h        0.804     0.323     0.655     1.271
   592   8 o        1.607    -0.682    27.248     7.045
   593   1 h        0.805     0.316     0.674     1.289
   594   1 h        0.802     0.370     0.544     1.158
   595   8 o        1.607    -0.695    27.576     7.087
   596   1 h        0.805     0.326     0.649     1.265
   597   1 h        0.802     0.365     0.555     1.171
   598   8 o        1.609    -0.673    26.994     7.012
   599   1 h        0.804     0.356     0.574     1.190
   600   1 h        0.805     0.328     0.642     1.259
   601   8 o        1.608    -0.689    27.419     7.067
   602   1 h        0.804     0.340     0.613     1.230
   603   1 h        0.804     0.349     0.591     1.208
   604   8 o        1.607    -0.685    27.318     7.054
   605   1 h        0.804     0.339     0.614     1.231
   606   1 h        0.803     0.339     0.614     1.231
   607   8 o        1.606    -0.699    27.687     7.102
   608   1 h        0.803     0.345     0.600     1.217
   609   1 h        0.803     0.327     0.645     1.262
   610   8 o        1.606    -0.691    27.463     7.073
   611   1 h        0.802     0.356     0.574     1.190
   612   1 h        0.805     0.318     0.669     1.285
   613   8 o        1.609    -0.658    26.626     6.964
   614   1 h        0.806     0.317     0.671     1.287
   615   1 h        0.803     0.348     0.593     1.210
   616   8 o        1.609    -0.659    26.644     6.967
   617   1 h        0.805     0.339     0.615     1.232
   618   1 h        0.805     0.339     0.615     1.231
   619   8 o        1.607    -0.682    27.247     7.045
   620   1 h        0.802     0.337     0.621     1.238
   621   1 h        0.804     0.351     0.587     1.203
   622   8 o        1.606    -0.698    27.659     7.098
   623   1 h        0.803     0.344     0.603     1.220
   624   1 h        0.803     0.330     0.637     1.254
   625   8 o        1.608    -0.675    27.047     7.019
   626   1 h        0.803     0.316     0.676     1.292
   627   1 h        0.803     0.352     0.583     1.200
   628   8 o        1.608    -0.673    27.008     7.014
   629   1 h        0.802     0.367     0.550     1.165
   630   1 h        0.806     0.314     0.681     1.297
   631   8 o        1.609    -0.671    26.953     7.007
   632   1 h        0.805     0.352     0.584     1.201
   633   1 h        0.804     0.340     0.612     1.229
   634   8 o        1.607    -0.688    27.396     7.064
   635   1 h        0.805     0.325     0.651     1.267
   636   1 h        0.803     0.362     0.562     1.178
   637   8 o        1.609    -0.667    26.849     6.993
   638   1 h        0.804     0.341     0.609     1.225
   639   1 h        0.805     0.332     0.632     1.249
   640   8 o        1.609    -0.672    26.988     7.011
   641   1 h        0.805     0.338     0.617     1.233
   642   1 h        0.805     0.330     0.637     1.254
   643   8 o        1.608    -0.672    26.966     7.009
   644   1 h        0.804     0.340     0.613     1.230
   645   1 h        0.803     0.337     0.620     1.237
   646   8 o        1.608    -0.672    26.965     7.008
   647   1 h        0.803     0.339     0.616     1.233
   648   1 h        0.806     0.313     0.682     1.297
   649   8 o        1.609    -0.658    26.626     6.964
   650   1 h        0.805     0.324     0.654     1.270
   651   1 h        0.804     0.329     0.639     1.256
   652   8 o        1.609    -0.667    26.837     6.992
   653   1 h        0.804     0.358     0.570     1.186
   654   1 h        0.806     0.318     0.670     1.286
   655   8 o        1.607    -0.693    27.526     7.081
   656   1 h        0.804     0.328     0.642     1.258
   657   1 h        0.803     0.350     0.589     1.205
   658   8 o        1.609    -0.680    27.187     7.037
   659   1 h        0.804     0.353     0.582     1.198
   660   1 h        0.804     0.337     0.620     1.237
   661   8 o        1.607    -0.668    26.864     6.995
   662   1 h        0.804     0.329     0.640     1.257
   663   1 h        0.804     0.329     0.641     1.258
   664   8 o        1.607    -0.689    27.426     7.068
   665   1 h        0.804     0.331     0.635     1.251
   666   1 h        0.803     0.349     0.591     1.208
   667   8 o        1.607    -0.671    26.956     7.007
   668   1 h        0.802     0.363     0.559     1.175
   669   1 h        0.804     0.339     0.614     1.230
   670   8 o        1.608    -0.663    26.746     6.980
   671   1 h        0.805     0.335     0.624     1.240
   672   1 h        0.803     0.332     0.633     1.250
   673   8 o        1.607    -0.711    28.008     7.143
   674   1 h        0.804     0.357     0.572     1.188
   675   1 h        0.803     0.338     0.618     1.235
   676   8 o        1.609    -0.658    26.624     6.964
   677   1 h        0.804     0.317     0.671     1.287
   678   1 h        0.804     0.321     0.660     1.276
   679   8 o        1.608    -0.677    27.117     7.028
   680   1 h        0.803     0.355     0.576     1.192
   681   1 h        0.804     0.358     0.569     1.185
   682   8 o        1.608    -0.688    27.400     7.065
   683   1 h        0.804     0.342     0.607     1.224
   684   1 h        0.803     0.341     0.609     1.226
   685   8 o        1.606    -0.710    27.987     7.140
   686   1 h        0.803     0.354     0.580     1.196
   687   1 h        0.802     0.359     0.569     1.185
   688   8 o        1.609    -0.669    26.890     6.999
   689   1 h        0.804     0.328     0.642     1.259
   690   1 h        0.803     0.363     0.559     1.175
   691   8 o        1.608    -0.664    26.769     6.983
   692   1 h        0.804     0.333     0.630     1.247
   693   1 h        0.804     0.339     0.616     1.233
   694   8 o        1.608    -0.675    27.048     7.019
   695   1 h        0.804     0.342     0.608     1.225
   696   1 h        0.804     0.357     0.572     1.188
   697   8 o        1.608    -0.677    27.106     7.027
   698   1 h        0.803     0.357     0.571     1.187
   699   1 h        0.805     0.319     0.667     1.283
   700   8 o        1.607    -0.701    27.743     7.109
   701   1 h        0.803     0.362     0.561     1.176
   702   1 h        0.805     0.326     0.648     1.265
   703   8 o        1.607    -0.690    27.453     7.072
   704   1 h        0.804     0.329     0.639     1.256
   705   1 h        0.803     0.327     0.646     1.262
   706   8 o        1.608    -0.672    26.982     7.011
   707   1 h        0.805     0.333     0.631     1.247
   708   1 h        0.803     0.346     0.597     1.214
   709   8 o        1.609    -0.653    26.488     6.946
   710   1 h        0.803     0.349     0.590     1.206
   711   1 h        0.806     0.317     0.672     1.288
   712   8 o        1.607    -0.657    26.594     6.960
   713   1 h        0.804     0.322     0.659     1.275
   714   1 h        0.803     0.327     0.646     1.263
   715   8 o        1.609    -0.674    27.019     7.015
   716   1 h        0.805     0.340     0.611     1.228
   717   1 h        0.803     0.346     0.599     1.215
   718   8 o        1.607    -0.697    27.619     7.093
   719   1 h        0.803     0.362     0.562     1.178
   720   1 h        0.804     0.363     0.560     1.175
   721   8 o        1.607    -0.696    27.601     7.091
   722   1 h        0.803     0.356     0.576     1.192
   723   1 h        0.805     0.319     0.667     1.283
   724   8 o        1.609    -0.664    26.770     6.983
   725   1 h        0.805     0.329     0.640     1.257
   726   1 h        0.804     0.332     0.633     1.250
   727   8 o        1.607    -0.689    27.432     7.069
   728   1 h        0.804     0.323     0.655     1.271
   729   1 h        0.803     0.326     0.647     1.264
   730   8 o        1.608    -0.660    26.680     6.971
   731   1 h        0.806     0.312     0.687     1.302
   732   1 h        0.803     0.359     0.567     1.183
   733   8 o        1.608    -0.686    27.334     7.056
   734   1 h        0.804     0.336     0.622     1.239
   735   1 h        0.804     0.330     0.637     1.253
   736   8 o        1.610    -0.658    26.624     6.964
   737   1 h        0.805     0.334     0.627     1.244
   738   1 h        0.805     0.336     0.622     1.239
   739   8 o        1.607    -0.682    27.243     7.044
   740   1 h        0.804     0.337     0.621     1.237
   741   1 h        0.803     0.367     0.550     1.165
   742   8 o        1.607    -0.686    27.344     7.057
   743   1 h        0.803     0.348     0.593     1.210
   744   1 h        0.805     0.318     0.669     1.285
   745   8 o        1.608    -0.652    26.461     6.943
   746   1 h        0.803     0.338     0.618     1.235
   747   1 h        0.805     0.315     0.677     1.292
   748   8 o        1.608    -0.672    26.982     7.011
   749   1 h        0.805     0.319     0.667     1.283
   750   1 h        0.803     0.357     0.572     1.188
   751   8 o        1.608    -0.671    26.944     7.006
   752   1 h        0.803     0.357     0.573     1.189
   753   1 h        0.805     0.327     0.646     1.262
   754   8 o        1.610    -0.642    26.217     6.911
   755   1 h        0.804     0.345     0.601     1.218
   756   1 h        0.805     0.328     0.643     1.259

 Mol. C6AA /au·bohr⁶  :    2900950.877354
 Mol. C8AA /au·bohr⁸  :   52647301.509108
 Mol. α(0) /au        :       2393.535720


Wiberg/Mayer (AO) data.
largest (>0.10) Wiberg bond orders for each atom

 ---------------------------------------------------------------------------
     #   Z sym  total        # sym  WBO       # sym  WBO       # sym  WBO
 ---------------------------------------------------------------------------
     1   8 o    1.832 --     2 h    0.855     3 h    0.821
     2   1 h    0.891 --     1 o    0.855
     3   1 h    0.879 --     1 o    0.821
     4   8 o    1.839 --     5 h    0.814     6 h    0.805
     5   1 h    0.879 --     4 o    0.814
     6   1 h    0.877 --     4 o    0.805
     7   8 o    1.870 --     9 h    0.850     8 h    0.810
     8   1 h    0.873 --     7 o    0.810
     9   1 h    0.887 --     7 o    0.850
    10   8 o    1.823 --    11 h    0.845    12 h    0.816
    11   1 h    0.888 --    10 o    0.845
    12   1 h    0.879 --    10 o    0.816
    13   8 o    1.826 --    14 h    0.860    15 h    0.788
    14   1 h    0.884 --    13 o    0.860
    15   1 h    0.875 --    13 o    0.788
    16   8 o    1.887 --    18 h    0.809    17 h    0.791
    17   1 h    0.872 --    16 o    0.791
    18   1 h    0.881 --    16 o    0.809
    19   8 o    1.835 --    20 h    0.828    21 h    0.821
    20   1 h    0.883 --    19 o    0.828
    21   1 h    0.875 --    19 o    0.821
    22   8 o    1.906 --    24 h    0.834    23 h    0.787
    23   1 h    0.865 --    22 o    0.787
    24   1 h    0.873 --    22 o    0.834
    25   8 o    1.846 --    26 h    0.841    27 h    0.838
    26   1 h    0.891 --    25 o    0.841
    27   1 h    0.888 --    25 o    0.838
    28   8 o    1.811 --    30 h    0.852    29 h    0.843
    29   1 h    0.882 --    28 o    0.843
    30   1 h    0.893 --    28 o    0.852
    31   8 o    1.900 --    32 h    0.820    33 h    0.800
    32   1 h    0.891 --    31 o    0.820
    33   1 h    0.881 --    31 o    0.800
    34   8 o    1.851 --    36 h    0.844    35 h    0.827
    35   1 h    0.874 --    34 o    0.827
    36   1 h    0.883 --    34 o    0.844
    37   8 o    1.877 --    38 h    0.843    39 h    0.804
    38   1 h    0.888 --    37 o    0.843
    39   1 h    0.880 --    37 o    0.804
    40   8 o    1.833 --    41 h    0.824    42 h    0.780
    41   1 h    0.884 --    40 o    0.824
    42   1 h    0.876 --    40 o    0.780
    43   8 o    1.883 --    44 h    0.824    45 h    0.805
    44   1 h    0.872 --    43 o    0.824
    45   1 h    0.871 --    43 o    0.805
    46   8 o    1.844 --    48 h    0.839    47 h    0.816
    47   1 h    0.881 --    46 o    0.816
    48   1 h    0.898 --    46 o    0.839
    49   8 o    1.876 --    50 h    0.807    51 h    0.762   131 h    0.101
    50   1 h    0.879 --    49 o    0.807
    51   1 h    0.864 --    49 o    0.762
    52   8 o    1.852 --    53 h    0.845    54 h    0.818
    53   1 h    0.880 --    52 o    0.845
    54   1 h    0.883 --    52 o    0.818
    55   8 o    1.838 --    57 h    0.836    56 h    0.835
    56   1 h    0.886 --    55 o    0.835
    57   1 h    0.884 --    55 o    0.836
    58   8 o    1.836 --    59 h    0.827    60 h    0.824
    59   1 h    0.878 --    58 o    0.827
    60   1 h    0.880 --    58 o    0.824
    61   8 o    1.872 --    63 h    0.825    62 h    0.800
    62   1 h    0.865 --    61 o    0.800
    63   1 h    0.886 --    61 o    0.825
    64   8 o    1.855 --    65 h    0.823    66 h    0.799
    65   1 h    0.883 --    64 o    0.823
    66   1 h    0.872 --    64 o    0.799
    67   8 o    1.826 --    69 h    0.861    68 h    0.836
    68   1 h    0.886 --    67 o    0.836
    69   1 h    0.889 --    67 o    0.861
    70   8 o    1.849 --    72 h    0.849    71 h    0.803
    71   1 h    0.876 --    70 o    0.803
    72   1 h    0.892 --    70 o    0.849
    73   8 o    1.863 --    74 h    0.828    75 h    0.814
    74   1 h    0.883 --    73 o    0.828
    75   1 h    0.885 --    73 o    0.814
    76   8 o    1.829 --    78 h    0.825    77 h    0.822
    77   1 h    0.881 --    76 o    0.822
    78   1 h    0.880 --    76 o    0.825
    79   8 o    1.823 --    81 h    0.895    80 h    0.801
    80   1 h    0.870 --    79 o    0.801
    81   1 h    0.906 --    79 o    0.895
    82   8 o    1.828 --    83 h    0.839    84 h    0.808
    83   1 h    0.896 --    82 o    0.839
    84   1 h    0.881 --    82 o    0.808
    85   8 o    1.852 --    86 h    0.827    87 h    0.813
    86   1 h    0.884 --    85 o    0.827
    87   1 h    0.882 --    85 o    0.813
    88   8 o    1.844 --    90 h    0.847    89 h    0.808
    89   1 h    0.865 --    88 o    0.808
    90   1 h    0.886 --    88 o    0.847
    91   8 o    1.836 --    92 h    0.840    93 h    0.810
    92   1 h    0.892 --    91 o    0.840
    93   1 h    0.889 --    91 o    0.810
    94   8 o    1.861 --    95 h    0.849    96 h    0.821
    95   1 h    0.893 --    94 o    0.849
    96   1 h    0.885 --    94 o    0.821
    97   8 o    1.829 --    99 h    0.820    98 h    0.787
    98   1 h    0.878 --    97 o    0.787
    99   1 h    0.877 --    97 o    0.820
   100   8 o    1.830 --   102 h    0.838   101 h    0.826
   101   1 h    0.881 --   100 o    0.826
   102   1 h    0.887 --   100 o    0.838
   103   8 o    1.840 --   105 h    0.851   104 h    0.800
   104   1 h    0.880 --   103 o    0.800
   105   1 h    0.890 --   103 o    0.851
   106   8 o    1.795 --   108 h    0.843   107 h    0.815
   107   1 h    0.876 --   106 o    0.815
   108   1 h    0.899 --   106 o    0.843
   109   8 o    1.883 --   110 h    0.811   111 h    0.804
   110   1 h    0.879 --   109 o    0.811
   111   1 h    0.877 --   109 o    0.804
   112   8 o    1.859 --   113 h    0.844   114 h    0.821
   113   1 h    0.883 --   112 o    0.844
   114   1 h    0.877 --   112 o    0.821
   115   8 o    1.793 --   117 h    0.812   116 h    0.803
   116   1 h    0.881 --   115 o    0.803
   117   1 h    0.885 --   115 o    0.812
   118   8 o    1.839 --   119 h    0.823   120 h    0.800
   119   1 h    0.876 --   118 o    0.823
   120   1 h    0.877 --   118 o    0.800
   121   8 o    1.816 --   123 h    0.859   122 h    0.789
   122   1 h    0.875 --   121 o    0.789
   123   1 h    0.893 --   121 o    0.859
   124   8 o    1.849 --   126 h    0.805   125 h    0.802
   125   1 h    0.876 --   124 o    0.802
   126   1 h    0.869 --   124 o    0.805
   127   8 o    1.832 --   129 h    0.830   128 h    0.796
   128   1 h    0.884 --   127 o    0.796
   129   1 h    0.887 --   127 o    0.830
   130   8 o    1.836 --   132 h    0.896   131 h    0.760
   131   1 h    0.866 --   130 o    0.760    49 o    0.101
   132   1 h    0.904 --   130 o    0.896
   133   8 o    1.818 --   134 h    0.869   135 h    0.838
   134   1 h    0.892 --   133 o    0.869
   135   1 h    0.890 --   133 o    0.838
   136   8 o    1.830 --   137 h    0.823   138 h    0.811
   137   1 h    0.887 --   136 o    0.823
   138   1 h    0.876 --   136 o    0.811
   139   8 o    1.875 --   140 h    0.827   141 h    0.825
   140   1 h    0.884 --   139 o    0.827
   141   1 h    0.876 --   139 o    0.825
   142   8 o    1.847 --   143 h    0.823   144 h    0.799
   143   1 h    0.890 --   142 o    0.823
   144   1 h    0.868 --   142 o    0.799
   145   8 o    1.844 --   147 h    0.870   146 h    0.808
   146   1 h    0.882 --   145 o    0.808
   147   1 h    0.896 --   145 o    0.870
   148   8 o    1.862 --   150 h    0.829   149 h    0.780
   149   1 h    0.871 --   148 o    0.780
   150   1 h    0.893 --   148 o    0.829
   151   8 o    1.869 --   152 h    0.854   153 h    0.844
   152   1 h    0.896 --   151 o    0.854
   153   1 h    0.883 --   151 o    0.844
   154   8 o    1.844 --   155 h    0.860   156 h    0.763
   155   1 h    0.895 --   154 o    0.860
   156   1 h    0.866 --   154 o    0.763
   157   8 o    1.825 --   158 h    0.853   159 h    0.812
   158   1 h    0.893 --   157 o    0.853
   159   1 h    0.871 --   157 o    0.812
   160   8 o    1.826 --   162 h    0.838   161 h    0.800
   161   1 h    0.872 --   160 o    0.800
   162   1 h    0.887 --   160 o    0.838
   163   8 o    1.888 --   165 h    0.838   164 h    0.816
   164   1 h    0.887 --   163 o    0.816
   165   1 h    0.887 --   163 o    0.838
   166   8 o    1.831 --   167 h    0.839   168 h    0.820
   167   1 h    0.882 --   166 o    0.839
   168   1 h    0.876 --   166 o    0.820
   169   8 o    1.870 --   171 h    0.828   170 h    0.817
   170   1 h    0.882 --   169 o    0.817
   171   1 h    0.886 --   169 o    0.828
   172   8 o    1.859 --   173 h    0.855   174 h    0.811
   173   1 h    0.884 --   172 o    0.855
   174   1 h    0.872 --   172 o    0.811
   175   8 o    1.859 --   176 h    0.842   177 h    0.829
   176   1 h    0.893 --   175 o    0.842
   177   1 h    0.893 --   175 o    0.829
   178   8 o    1.838 --   179 h    0.854   180 h    0.844
   179   1 h    0.886 --   178 o    0.854
   180   1 h    0.884 --   178 o    0.844
   181   8 o    1.834 --   183 h    0.899   182 h    0.784
   182   1 h    0.875 --   181 o    0.784
   183   1 h    0.905 --   181 o    0.899
   184   8 o    1.839 --   186 h    0.836   185 h    0.811
   185   1 h    0.883 --   184 o    0.811
   186   1 h    0.896 --   184 o    0.836
   187   8 o    1.865 --   188 h    0.846   189 h    0.838
   188   1 h    0.888 --   187 o    0.846
   189   1 h    0.887 --   187 o    0.838
   190   8 o    1.842 --   191 h    0.829   192 h    0.814
   191   1 h    0.891 --   190 o    0.829
   192   1 h    0.887 --   190 o    0.814
   193   8 o    1.826 --   194 h    0.851   195 h    0.810
   194   1 h    0.886 --   193 o    0.851
   195   1 h    0.873 --   193 o    0.810
   196   8 o    1.840 --   197 h    0.807   198 h    0.790
   197   1 h    0.880 --   196 o    0.807
   198   1 h    0.875 --   196 o    0.790
   199   8 o    1.864 --   201 h    0.825   200 h    0.772
   200   1 h    0.869 --   199 o    0.772
   201   1 h    0.882 --   199 o    0.825
   202   8 o    1.870 --   204 h    0.829   203 h    0.823
   203   1 h    0.891 --   202 o    0.823
   204   1 h    0.883 --   202 o    0.829
   205   8 o    1.880 --   207 h    0.810   206 h    0.806
   206   1 h    0.875 --   205 o    0.806
   207   1 h    0.874 --   205 o    0.810
   208   8 o    1.811 --   209 h    0.865   210 h    0.800
   209   1 h    0.896 --   208 o    0.865
   210   1 h    0.874 --   208 o    0.800
   211   8 o    1.834 --   213 h    0.861   212 h    0.829
   212   1 h    0.877 --   211 o    0.829
   213   1 h    0.892 --   211 o    0.861
   214   8 o    1.883 --   216 h    0.815   215 h    0.797
   215   1 h    0.880 --   214 o    0.797
   216   1 h    0.877 --   214 o    0.815
   217   8 o    1.830 --   218 h    0.839   219 h    0.814
   218   1 h    0.884 --   217 o    0.839
   219   1 h    0.880 --   217 o    0.814
   220   8 o    1.863 --   222 h    0.831   221 h    0.803
   221   1 h    0.877 --   220 o    0.803
   222   1 h    0.888 --   220 o    0.831
   223   8 o    1.844 --   225 h    0.856   224 h    0.821
   224   1 h    0.880 --   223 o    0.821
   225   1 h    0.885 --   223 o    0.856
   226   8 o    1.873 --   227 h    0.865   228 h    0.808
   227   1 h    0.897 --   226 o    0.865
   228   1 h    0.871 --   226 o    0.808
   229   8 o    1.821 --   230 h    0.852   231 h    0.819
   230   1 h    0.897 --   229 o    0.852
   231   1 h    0.882 --   229 o    0.819
   232   8 o    1.865 --   233 h    0.832   234 h    0.781
   233   1 h    0.878 --   232 o    0.832
   234   1 h    0.873 --   232 o    0.781
   235   8 o    1.878 --   236 h    0.844   237 h    0.833
   236   1 h    0.884 --   235 o    0.844
   237   1 h    0.886 --   235 o    0.833
   238   8 o    1.828 --   239 h    0.848   240 h    0.827
   239   1 h    0.882 --   238 o    0.848
   240   1 h    0.889 --   238 o    0.827
   241   8 o    1.874 --   243 h    0.816   242 h    0.808
   242   1 h    0.885 --   241 o    0.808
   243   1 h    0.866 --   241 o    0.816
   244   8 o    1.837 --   245 h    0.853   246 h    0.831
   245   1 h    0.891 --   244 o    0.853
   246   1 h    0.882 --   244 o    0.831
   247   8 o    1.863 --   249 h    0.839   248 h    0.794
   248   1 h    0.874 --   247 o    0.794
   249   1 h    0.887 --   247 o    0.839
   250   8 o    1.854 --   252 h    0.860   251 h    0.778
   251   1 h    0.861 --   250 o    0.778
   252   1 h    0.896 --   250 o    0.860
   253   8 o    1.814 --   254 h    0.869   255 h    0.808
   254   1 h    0.893 --   253 o    0.869
   255   1 h    0.879 --   253 o    0.808
   256   8 o    1.878 --   258 h    0.819   257 h    0.814
   257   1 h    0.871 --   256 o    0.814
   258   1 h    0.888 --   256 o    0.819
   259   8 o    1.828 --   261 h    0.855   260 h    0.799
   260   1 h    0.866 --   259 o    0.799
   261   1 h    0.895 --   259 o    0.855
   262   8 o    1.819 --   263 h    0.869   264 h    0.824
   263   1 h    0.886 --   262 o    0.869
   264   1 h    0.887 --   262 o    0.824
   265   8 o    1.854 --   267 h    0.827   266 h    0.819
   266   1 h    0.880 --   265 o    0.819
   267   1 h    0.889 --   265 o    0.827
   268   8 o    1.809 --   269 h    0.885   270 h    0.812
   269   1 h    0.898 --   268 o    0.885
   270   1 h    0.875 --   268 o    0.812
   271   8 o    1.894 --   272 h    0.813   273 h    0.797
   272   1 h    0.889 --   271 o    0.813
   273   1 h    0.871 --   271 o    0.797
   274   8 o    1.892 --   275 h    0.820   276 h    0.814
   275   1 h    0.888 --   274 o    0.820
   276   1 h    0.877 --   274 o    0.814
   277   8 o    1.839 --   279 h    0.796   278 h    0.773
   278   1 h    0.873 --   277 o    0.773
   279   1 h    0.866 --   277 o    0.796
   280   8 o    1.896 --   281 h    0.824   282 h    0.810
   281   1 h    0.886 --   280 o    0.824
   282   1 h    0.887 --   280 o    0.810
   283   8 o    1.879 --   284 h    0.848   285 h    0.813
   284   1 h    0.895 --   283 o    0.848
   285   1 h    0.875 --   283 o    0.813
   286   8 o    1.846 --   288 h    0.838   287 h    0.816
   287   1 h    0.880 --   286 o    0.816
   288   1 h    0.886 --   286 o    0.838
   289   8 o    1.806 --   291 h    0.839   290 h    0.795
   290   1 h    0.877 --   289 o    0.795
   291   1 h    0.889 --   289 o    0.839
   292   8 o    1.833 --   293 h    0.848   294 h    0.840
   293   1 h    0.887 --   292 o    0.848
   294   1 h    0.883 --   292 o    0.840
   295   8 o    1.855 --   296 h    0.833   297 h    0.793
   296   1 h    0.891 --   295 o    0.833
   297   1 h    0.863 --   295 o    0.793
   298   8 o    1.824 --   299 h    0.826   300 h    0.793
   299   1 h    0.884 --   298 o    0.826
   300   1 h    0.871 --   298 o    0.793
   301   8 o    1.893 --   302 h    0.825   303 h    0.783
   302   1 h    0.882 --   301 o    0.825
   303   1 h    0.866 --   301 o    0.783
   304   8 o    1.852 --   305 h    0.881   306 h    0.782
   305   1 h    0.898 --   304 o    0.881
   306   1 h    0.864 --   304 o    0.782
   307   8 o    1.850 --   309 h    0.840   308 h    0.823
   308   1 h    0.869 --   307 o    0.823
   309   1 h    0.893 --   307 o    0.840
   310   8 o    1.871 --   311 h    0.837   312 h    0.815
   311   1 h    0.895 --   310 o    0.837
   312   1 h    0.877 --   310 o    0.815
   313   8 o    1.856 --   315 h    0.891   314 h    0.812
   314   1 h    0.873 --   313 o    0.812
   315   1 h    0.897 --   313 o    0.891
   316   8 o    1.828 --   318 h    0.893   317 h    0.808
   317   1 h    0.874 --   316 o    0.808
   318   1 h    0.901 --   316 o    0.893
   319   8 o    1.865 --   321 h    0.840   320 h    0.796
   320   1 h    0.873 --   319 o    0.796
   321   1 h    0.880 --   319 o    0.840
   322   8 o    1.820 --   324 h    0.869   323 h    0.795
   323   1 h    0.875 --   322 o    0.795
   324   1 h    0.887 --   322 o    0.869
   325   8 o    1.848 --   327 h    0.818   326 h    0.808
   326   1 h    0.874 --   325 o    0.808
   327   1 h    0.885 --   325 o    0.818
   328   8 o    1.816 --   330 h    0.876   329 h    0.862
   329   1 h    0.891 --   328 o    0.862
   330   1 h    0.900 --   328 o    0.876
   331   8 o    1.830 --   333 h    0.881   332 h    0.818
   332   1 h    0.886 --   331 o    0.818
   333   1 h    0.898 --   331 o    0.881
   334   8 o    1.828 --   336 h    0.841   335 h    0.804
   335   1 h    0.869 --   334 o    0.804
   336   1 h    0.889 --   334 o    0.841
   337   8 o    1.848 --   339 h    0.836   338 h    0.811
   338   1 h    0.888 --   337 o    0.811
   339   1 h    0.878 --   337 o    0.836
   340   8 o    1.872 --   342 h    0.794   341 h    0.770
   341   1 h    0.869 --   340 o    0.770
   342   1 h    0.872 --   340 o    0.794
   343   8 o    1.863 --   345 h    0.848   344 h    0.771
   344   1 h    0.871 --   343 o    0.771
   345   1 h    0.897 --   343 o    0.848
   346   8 o    1.849 --   348 h    0.836   347 h    0.784
   347   1 h    0.865 --   346 o    0.784
   348   1 h    0.892 --   346 o    0.836
   349   8 o    1.821 --   351 h    0.891   350 h    0.806
   350   1 h    0.874 --   349 o    0.806
   351   1 h    0.904 --   349 o    0.891
   352   8 o    1.832 --   354 h    0.856   353 h    0.811
   353   1 h    0.888 --   352 o    0.811
   354   1 h    0.898 --   352 o    0.856
   355   8 o    1.809 --   357 h    0.849   356 h    0.815
   356   1 h    0.879 --   355 o    0.815
   357   1 h    0.892 --   355 o    0.849
   358   8 o    1.873 --   360 h    0.808   359 h    0.798
   359   1 h    0.875 --   358 o    0.798
   360   1 h    0.886 --   358 o    0.808
   361   8 o    1.828 --   363 h    0.892   362 h    0.784
   362   1 h    0.876 --   361 o    0.784
   363   1 h    0.900 --   361 o    0.892
[...]
   369   1 h    0.886 --   367 o    0.841
   370   8 o    1.840 --   372 h    0.850   371 h    0.806
   371   1 h    0.868 --   370 o    0.806
   372   1 h    0.891 --   370 o    0.850
   373   8 o    1.825 --   374 h    0.852   375 h    0.816
   374   1 h    0.894 --   373 o    0.852
   375   1 h    0.875 --   373 o    0.816
   376   8 o    1.875 --   378 h    0.828   377 h    0.827
   377   1 h    0.869 --   376 o    0.827
   378   1 h    0.883 --   376 o    0.828
   379   8 o    1.870 --   381 h    0.868   380 h    0.779
   380   1 h    0.861 --   379 o    0.779
   381   1 h    0.895 --   379 o    0.868
   382   8 o    1.860 --   384 h    0.897   383 h    0.811
   383   1 h    0.871 --   382 o    0.811
   384   1 h    0.901 --   382 o    0.897
   385   8 o    1.853 --   387 h    0.848   386 h    0.796
   386   1 h    0.871 --   385 o    0.796
   387   1 h    0.890 --   385 o    0.848
   388   8 o    1.853 --   390 h    0.859   389 h    0.812
   389   1 h    0.884 --   388 o    0.812
   390   1 h    0.891 --   388 o    0.859
   391   8 o    1.822 --   392 h    0.858   393 h    0.838
   392   1 h    0.888 --   391 o    0.858
   393   1 h    0.887 --   391 o    0.838
   394   8 o    1.875 --   396 h    0.834   395 h    0.787
   395   1 h    0.876 --   394 o    0.787
   396   1 h    0.889 --   394 o    0.834
   397   8 o    1.829 --   398 h    0.871   399 h    0.812
   398   1 h    0.894 --   397 o    0.871
   399   1 h    0.881 --   397 o    0.812
   400   8 o    1.887 --   401 h    0.811   402 h    0.767
   401   1 h    0.881 --   400 o    0.811
   402   1 h    0.866 --   400 o    0.767
   403   8 o    1.877 --   405 h    0.808   404 h    0.788
   404   1 h    0.863 --   403 o    0.788
   405   1 h    0.887 --   403 o    0.808
   406   8 o    1.849 --   408 h    0.795   407 h    0.774
   407   1 h    0.873 --   406 o    0.774
   408   1 h    0.877 --   406 o    0.795
   409   8 o    1.841 --   411 h    0.801   410 h    0.785
   410   1 h    0.884 --   409 o    0.785
   411   1 h    0.883 --   409 o    0.801
   412   8 o    1.847 --   413 h    0.853   414 h    0.799
   413   1 h    0.895 --   412 o    0.853
   414   1 h    0.870 --   412 o    0.799
   415   8 o    1.812 --   416 h    0.862   417 h    0.832
   416   1 h    0.890 --   415 o    0.862
   417   1 h    0.884 --   415 o    0.832
   418   8 o    1.850 --   419 h    0.846   420 h    0.841
   419   1 h    0.890 --   418 o    0.846
   420   1 h    0.883 --   418 o    0.841
   421   8 o    1.823 --   423 h    0.889   422 h    0.800
   422   1 h    0.874 --   421 o    0.800
   423   1 h    0.900 --   421 o    0.889
   424   8 o    1.797 --   426 h    0.854   425 h    0.831
   425   1 h    0.887 --   424 o    0.831
   426   1 h    0.892 --   424 o    0.854
   427   8 o    1.863 --   428 h    0.852   429 h    0.831
   428   1 h    0.890 --   427 o    0.852
   429   1 h    0.884 --   427 o    0.831
   430   8 o    1.868 --   431 h    0.819   432 h    0.797
   431   1 h    0.872 --   430 o    0.819
   432   1 h    0.888 --   430 o    0.797
   433   8 o    1.864 --   435 h    0.809   434 h    0.795
   434   1 h    0.871 --   433 o    0.795
   435   1 h    0.882 --   433 o    0.809
   436   8 o    1.842 --   438 h    0.838   437 h    0.832
   437   1 h    0.897 --   436 o    0.832
   438   1 h    0.887 --   436 o    0.838
   439   8 o    1.903 --   441 h    0.842   440 h    0.813
   440   1 h    0.869 --   439 o    0.813
   441   1 h    0.891 --   439 o    0.842
   442   8 o    1.815 --   443 h    0.871   444 h    0.828
   443   1 h    0.898 --   442 o    0.871
   444   1 h    0.878 --   442 o    0.828
   445   8 o    1.845 --   446 h    0.850   447 h    0.841
   446   1 h    0.895 --   445 o    0.850
   447   1 h    0.892 --   445 o    0.841
   448   8 o    1.820 --   450 h    0.859   449 h    0.813
   449   1 h    0.872 --   448 o    0.813
   450   1 h    0.896 --   448 o    0.859
   451   8 o    1.842 --   453 h    0.851   452 h    0.835
   452   1 h    0.888 --   451 o    0.835
   453   1 h    0.896 --   451 o    0.851
   454   8 o    1.835 --   455 h    0.890   456 h    0.815
   455   1 h    0.902 --   454 o    0.890
   456   1 h    0.888 --   454 o    0.815
   457   8 o    1.836 --   459 h    0.836   458 h    0.821
   458   1 h    0.883 --   457 o    0.821
   459   1 h    0.888 --   457 o    0.836
   460   8 o    1.841 --   462 h    0.869   461 h    0.836
   461   1 h    0.882 --   460 o    0.836
   462   1 h    0.892 --   460 o    0.869
   463   8 o    1.814 --   464 h    0.879   465 h    0.787
   464   1 h    0.902 --   463 o    0.879
   465   1 h    0.869 --   463 o    0.787
   466   8 o    1.814 --   467 h    0.869   468 h    0.859
   467   1 h    0.890 --   466 o    0.869
   468   1 h    0.887 --   466 o    0.859
   469   8 o    1.836 --   470 h    0.850   471 h    0.826
   470   1 h    0.892 --   469 o    0.850
   471   1 h    0.882 --   469 o    0.826
   472   8 o    1.820 --   474 h    0.863   473 h    0.842
   473   1 h    0.885 --   472 o    0.842
   474   1 h    0.894 --   472 o    0.863
   475   8 o    1.807 --   477 h    0.833   476 h    0.806
   476   1 h    0.884 --   475 o    0.806
   477   1 h    0.896 --   475 o    0.833
   478   8 o    1.822 --   480 h    0.875   479 h    0.846
   479   1 h    0.878 --   478 o    0.846
   480   1 h    0.890 --   478 o    0.875
   481   8 o    1.877 --   482 h    0.831   483 h    0.809
   482   1 h    0.876 --   481 o    0.831
   483   1 h    0.875 --   481 o    0.809
   484   8 o    1.828 --   485 h    0.843   486 h    0.831
   485   1 h    0.886 --   484 o    0.843
   486   1 h    0.883 --   484 o    0.831
   487   8 o    1.813 --   489 h    0.897   488 h    0.799
   488   1 h    0.879 --   487 o    0.799
   489   1 h    0.904 --   487 o    0.897
   490   8 o    1.830 --   492 h    0.842   491 h    0.803
   491   1 h    0.875 --   490 o    0.803
   492   1 h    0.885 --   490 o    0.842
   493   8 o    1.838 --   494 h    0.840   495 h    0.831
   494   1 h    0.897 --   493 o    0.840
   495   1 h    0.887 --   493 o    0.831
   496   8 o    1.853 --   497 h    0.837   498 h    0.782
   497   1 h    0.880 --   496 o    0.837
   498   1 h    0.871 --   496 o    0.782
   499   8 o    1.854 --   500 h    0.842   501 h    0.825
   500   1 h    0.888 --   499 o    0.842
   501   1 h    0.888 --   499 o    0.825
   502   8 o    1.835 --   503 h    0.867   504 h    0.833
   503   1 h    0.889 --   502 o    0.867
   504   1 h    0.877 --   502 o    0.833
   505   8 o    1.859 --   507 h    0.802   506 h    0.796
   506   1 h    0.875 --   505 o    0.796
   507   1 h    0.875 --   505 o    0.802
   508   8 o    1.817 --   510 h    0.837   509 h    0.813
   509   1 h    0.880 --   508 o    0.813
   510   1 h    0.888 --   508 o    0.837
   511   8 o    1.855 --   513 h    0.832   512 h    0.824
   512   1 h    0.871 --   511 o    0.824
   513   1 h    0.879 --   511 o    0.832
   514   8 o    1.819 --   515 h    0.832   516 h    0.818
   515   1 h    0.892 --   514 o    0.832
   516   1 h    0.880 --   514 o    0.818
   517   8 o    1.857 --   518 h    0.806   519 h    0.772
   518   1 h    0.879 --   517 o    0.806
   519   1 h    0.864 --   517 o    0.772
   520   8 o    1.846 --   521 h    0.854   522 h    0.828
   521   1 h    0.891 --   520 o    0.854
   522   1 h    0.886 --   520 o    0.828
   523   8 o    1.838 --   524 h    0.838   525 h    0.829
   524   1 h    0.882 --   523 o    0.838
   525   1 h    0.883 --   523 o    0.829
   526   8 o    1.839 --   528 h    0.874   527 h    0.830
   527   1 h    0.878 --   526 o    0.830
   528   1 h    0.891 --   526 o    0.874
   529   8 o    1.870 --   530 h    0.897   531 h    0.785
   530   1 h    0.906 --   529 o    0.897
   531   1 h    0.874 --   529 o    0.785
   532   8 o    1.847 --   534 h    0.888   533 h    0.822
   533   1 h    0.874 --   532 o    0.822
   534   1 h    0.901 --   532 o    0.888
   535   8 o    1.841 --   537 h    0.843   536 h    0.789
   536   1 h    0.866 --   535 o    0.789
   537   1 h    0.891 --   535 o    0.843
   538   8 o    1.827 --   540 h    0.895   539 h    0.793
   539   1 h    0.866 --   538 o    0.793
   540   1 h    0.903 --   538 o    0.895
   541   8 o    1.846 --   543 h    0.877   542 h    0.820
   542   1 h    0.880 --   541 o    0.820
   543   1 h    0.893 --   541 o    0.877
   544   8 o    1.810 --   545 h    0.852   546 h    0.841
   545   1 h    0.887 --   544 o    0.852
   546   1 h    0.885 --   544 o    0.841
   547   8 o    1.840 --   549 h    0.840   548 h    0.815
   548   1 h    0.888 --   547 o    0.815
   549   1 h    0.888 --   547 o    0.840
   550   8 o    1.820 --   551 h    0.874   552 h    0.800
   551   1 h    0.899 --   550 o    0.874
   552   1 h    0.884 --   550 o    0.800
   553   8 o    1.845 --   554 h    0.859   555 h    0.796
   554   1 h    0.895 --   553 o    0.859
   555   1 h    0.885 --   553 o    0.796
   556   8 o    1.788 --   557 h    0.840   558 h    0.829
   557   1 h    0.894 --   556 o    0.840
   558   1 h    0.887 --   556 o    0.829
   559   8 o    1.834 --   560 h    0.829   561 h    0.808
   560   1 h    0.889 --   559 o    0.829
   561   1 h    0.871 --   559 o    0.808
   562   8 o    1.831 --   564 h    0.836   563 h    0.782
   563   1 h    0.870 --   562 o    0.782
   564   1 h    0.893 --   562 o    0.836
   565   8 o    1.848 --   567 h    0.844   566 h    0.829
   566   1 h    0.894 --   565 o    0.829
   567   1 h    0.894 --   565 o    0.844
   568   8 o    1.815 --   569 h    0.867   570 h    0.826
   569   1 h    0.894 --   568 o    0.867
   570   1 h    0.878 --   568 o    0.826
   571   8 o    1.824 --   572 h    0.866   573 h    0.844
   572   1 h    0.892 --   571 o    0.866
   573   1 h    0.886 --   571 o    0.844
   574   8 o    1.843 --   575 h    0.804   576 h    0.778
   575   1 h    0.879 --   574 o    0.804
   576   1 h    0.873 --   574 o    0.778
   577   8 o    1.886 --   578 h    0.855   579 h    0.820
   578   1 h    0.892 --   577 o    0.855
   579   1 h    0.886 --   577 o    0.820
   580   8 o    1.867 --   582 h    0.893   581 h    0.793
   581   1 h    0.864 --   580 o    0.793
   582   1 h    0.902 --   580 o    0.893
   583   8 o    1.871 --   585 h    0.802   584 h    0.800
   584   1 h    0.883 --   583 o    0.800
   585   1 h    0.871 --   583 o    0.802
   586   8 o    1.840 --   587 h    0.893   588 h    0.849
   587   1 h    0.896 --   586 o    0.893
   588   1 h    0.881 --   586 o    0.849
   589   8 o    1.862 --   591 h    0.840   590 h    0.795
   590   1 h    0.876 --   589 o    0.795
   591   1 h    0.895 --   589 o    0.840
   592   8 o    1.844 --   593 h    0.880   594 h    0.779
   593   1 h    0.900 --   592 o    0.880
   594   1 h    0.863 --   592 o    0.779
   595   8 o    1.828 --   596 h    0.874   597 h    0.790
   596   1 h    0.894 --   595 o    0.874
   597   1 h    0.867 --   595 o    0.790
   598   8 o    1.833 --   600 h    0.879   599 h    0.826
   599   1 h    0.873 --   598 o    0.826
   600   1 h    0.892 --   598 o    0.879
   601   8 o    1.841 --   602 h    0.842   603 h    0.832
   602   1 h    0.885 --   601 o    0.842
   603   1 h    0.878 --   601 o    0.832
   604   8 o    1.831 --   605 h    0.830   606 h    0.825
   605   1 h    0.885 --   604 o    0.830
   606   1 h    0.885 --   604 o    0.825
   607   8 o    1.808 --   609 h    0.828   608 h    0.812
   608   1 h    0.881 --   607 o    0.812
   609   1 h    0.893 --   607 o    0.828
   610   8 o    1.834 --   612 h    0.863   611 h    0.783
   611   1 h    0.873 --   610 o    0.783
   612   1 h    0.899 --   610 o    0.863
   613   8 o    1.828 --   614 h    0.895   615 h    0.827
   614   1 h    0.899 --   613 o    0.895
   615   1 h    0.879 --   613 o    0.827
   616   8 o    1.836 --   618 h    0.869   617 h    0.863
   617   1 h    0.885 --   616 o    0.863
   618   1 h    0.885 --   616 o    0.869
   619   8 o    1.868 --   621 h    0.824   620 h    0.807
   620   1 h    0.887 --   619 o    0.807
   621   1 h    0.877 --   619 o    0.824
   622   8 o    1.828 --   624 h    0.828   623 h    0.809
   623   1 h    0.882 --   622 o    0.809
   624   1 h    0.891 --   622 o    0.828
   625   8 o    1.857 --   626 h    0.839   627 h    0.815
   626   1 h    0.900 --   625 o    0.839
   627   1 h    0.876 --   625 o    0.815
   628   8 o    1.846 --   630 h    0.889   629 h    0.779
   629   1 h    0.865 --   628 o    0.779
   630   1 h    0.902 --   628 o    0.889
   631   8 o    1.852 --   632 h    0.850   633 h    0.829
   632   1 h    0.876 --   631 o    0.850
   633   1 h    0.884 --   631 o    0.829
   634   8 o    1.841 --   635 h    0.863   636 h    0.795
   635   1 h    0.895 --   634 o    0.863
   636   1 h    0.869 --   634 o    0.795
   637   8 o    1.827 --   639 h    0.867   638 h    0.843
   638   1 h    0.883 --   637 o    0.843
   639   1 h    0.890 --   637 o    0.867
   640   8 o    1.812 --   641 h    0.851   642 h    0.844
   641   1 h    0.886 --   640 o    0.851
   642   1 h    0.891 --   640 o    0.844
   643   8 o    1.864 --   644 h    0.828   645 h    0.822
   644   1 h    0.885 --   643 o    0.828
   645   1 h    0.886 --   643 o    0.822
   646   8 o    1.798 --   648 h    0.895   647 h    0.824
   647   1 h    0.885 --   646 o    0.824
   648   1 h    0.902 --   646 o    0.895
   649   8 o    1.836 --   650 h    0.862   651 h    0.842
   650   1 h    0.895 --   649 o    0.862
   651   1 h    0.891 --   649 o    0.842
   652   8 o    1.820 --   654 h    0.888   653 h    0.825
   653   1 h    0.872 --   652 o    0.825
   654   1 h    0.899 --   652 o    0.888
   655   8 o    1.836 --   656 h    0.842   657 h    0.809
   656   1 h    0.892 --   655 o    0.842
   657   1 h    0.878 --   655 o    0.809
   658   8 o    1.846 --   660 h    0.838   659 h    0.821
   659   1 h    0.876 --   658 o    0.821
   660   1 h    0.887 --   658 o    0.838
   661   8 o    1.860 --   663 h    0.830   662 h    0.828
   662   1 h    0.892 --   661 o    0.828
   663   1 h    0.892 --   661 o    0.830
   664   8 o    1.849 --   665 h    0.838   666 h    0.803
   665   1 h    0.890 --   664 o    0.838
   666   1 h    0.878 --   664 o    0.803
   667   8 o    1.897 --   669 h    0.842   668 h    0.801
   668   1 h    0.868 --   667 o    0.801
   669   1 h    0.885 --   667 o    0.842
   670   8 o    1.865 --   671 h    0.848   672 h    0.821
   671   1 h    0.888 --   670 o    0.848
   672   1 h    0.890 --   670 o    0.821
   673   8 o    1.824 --   675 h    0.818   674 h    0.815
   674   1 h    0.872 --   673 o    0.815
   675   1 h    0.886 --   673 o    0.818
   676   8 o    1.836 --   677 h    0.847   678 h    0.847
   677   1 h    0.899 --   676 o    0.847
   678   1 h    0.897 --   676 o    0.847
   679   8 o    1.896 --   681 h    0.820   680 h    0.812
   680   1 h    0.874 --   679 o    0.812
   681   1 h    0.871 --   679 o    0.820
   682   8 o    1.833 --   683 h    0.831   684 h    0.821
   683   1 h    0.883 --   682 o    0.831
   684   1 h    0.883 --   682 o    0.821
   685   8 o    1.870 --   686 h    0.808   687 h    0.764
   686   1 h    0.875 --   685 o    0.808
   687   1 h    0.871 --   685 o    0.764
   688   8 o    1.911 --   689 h    0.833   690 h    0.785
   689   1 h    0.892 --   688 o    0.833
   690   1 h    0.868 --   688 o    0.785
   691   8 o    1.863 --   692 h    0.840   693 h    0.831
   692   1 h    0.889 --   691 o    0.840
   693   1 h    0.885 --   691 o    0.831
   694   8 o    1.849 --   695 h    0.848   696 h    0.812
   695   1 h    0.883 --   694 o    0.848
   696   1 h    0.872 --   694 o    0.812
   697   8 o    1.854 --   699 h    0.848   698 h    0.794
   698   1 h    0.872 --   697 o    0.794
   699   1 h    0.898 --   697 o    0.848
   700   8 o    1.812 --   702 h    0.863   701 h    0.796
   701   1 h    0.869 --   700 o    0.796
   702   1 h    0.894 --   700 o    0.863
   703   8 o    1.797 --   704 h    0.848   705 h    0.821
   704   1 h    0.892 --   703 o    0.848
   705   1 h    0.893 --   703 o    0.821
   706   8 o    1.849 --   707 h    0.856   708 h    0.822
   707   1 h    0.889 --   706 o    0.856
   708   1 h    0.880 --   706 o    0.822
   709   8 o    1.843 --   711 h    0.889   710 h    0.822
   710   1 h    0.878 --   709 o    0.822
   711   1 h    0.899 --   709 o    0.889
   712   8 o    1.870 --   713 h    0.843   714 h    0.830
   713   1 h    0.896 --   712 o    0.843
   714   1 h    0.893 --   712 o    0.830
   715   8 o    1.865 --   716 h    0.840   717 h    0.820
   716   1 h    0.884 --   715 o    0.840
   717   1 h    0.880 --   715 o    0.820
   718   8 o    1.871 --   720 h    0.807   719 h    0.799
   719   1 h    0.869 --   718 o    0.799
   720   1 h    0.869 --   718 o    0.807
   721   8 o    1.819 --   723 h    0.865   722 h    0.798
   722   1 h    0.874 --   721 o    0.798
   723   1 h    0.898 --   721 o    0.865
   724   8 o    1.815 --   725 h    0.865   726 h    0.858
   725   1 h    0.892 --   724 o    0.865
   726   1 h    0.890 --   724 o    0.858
   727   8 o    1.811 --   728 h    0.834   729 h    0.817
   728   1 h    0.895 --   727 o    0.834
   729   1 h    0.893 --   727 o    0.817
   730   8 o    1.848 --   731 h    0.901   732 h    0.806
   731   1 h    0.903 --   730 o    0.901
   732   1 h    0.871 --   730 o    0.806
   733   8 o    1.817 --   735 h    0.846   734 h    0.841
   734   1 h    0.887 --   733 o    0.841
   735   1 h    0.891 --   733 o    0.846
   736   8 o    1.823 --   737 h    0.869   738 h    0.868
   737   1 h    0.888 --   736 o    0.869
   738   1 h    0.887 --   736 o    0.868
   739   8 o    1.877 --   740 h    0.838   741 h    0.805
   740   1 h    0.887 --   739 o    0.838
   741   1 h    0.865 --   739 o    0.805
   742   8 o    1.815 --   744 h    0.870   743 h    0.791
   743   1 h    0.879 --   742 o    0.791
   744   1 h    0.899 --   742 o    0.870
   745   8 o    1.846 --   747 h    0.880   746 h    0.826
   746   1 h    0.886 --   745 o    0.826
   747   1 h    0.901 --   745 o    0.880
   748   8 o    1.848 --   749 h    0.872   750 h    0.811
   749   1 h    0.898 --   748 o    0.872
   750   1 h    0.872 --   748 o    0.811
   751   8 o    1.852 --   753 h    0.878   752 h    0.796
   752   1 h    0.873 --   751 o    0.796
   753   1 h    0.893 --   751 o    0.878
   754   8 o    1.861 --   756 h    0.884   755 h    0.844
   755   1 h    0.881 --   754 o    0.844
   756   1 h    0.892 --   754 o    0.884
 ---------------------------------------------------------------------------

Topologies differ in total number of bonds
Writing topology from bond orders to xtbtopo.mol

molecular dipole:
                 x           y           z       tot (Debye)
 q only:       -0.645      -2.178       1.907
   full:       -0.919      -2.661       1.861       8.578
molecular quadrupole (traceless):
                xx          xy          yy          xz          yz          zz
 q only:      -55.305      44.831      15.779      25.635     -31.967      39.525
  q+dip:      -49.343      55.690      -1.889      29.130     -53.111      51.232
   full:      -47.596      54.722      -3.869      28.545     -54.133      51.465


           -------------------------------------------------
          | TOTAL ENERGY            -1283.609961461505 Eh   |
          | GRADIENT NORM               0.104150759975 Eh/α |
          | HOMO-LUMO GAP               7.939900802655 eV   |
           -------------------------------------------------

------------------------------------------------------------------------
 * finished run on 2022/11/24 at 09:28:07.822     
------------------------------------------------------------------------
 total:
 * wall-time:     0 d,  0 h,  0 min, 21.295 sec
 *  cpu-time:     0 d,  0 h,  0 min, 34.066 sec
 * ratio c/w:     1.600 speedup
 SCF:
 * wall-time:     0 d,  0 h,  0 min, 20.304 sec
 *  cpu-time:     0 d,  0 h,  0 min, 32.370 sec
 * ratio c/w:     1.594 speedup

