      -----------------------------------------------------------      
     |                   =====================                   |     
     |                           x T B                           |     
     |                   =====================                   |     
     |                         S. Grimme                         |     
     |          Mulliken Center for Theoretical Chemistry        |     
     |                    University of Bonn                     |     
      -----------------------------------------------------------      

   * xtb version 6.5.1 (579679a) compiled by 'ehlert@majestix' on 2022-07-11

   xtb is free software: you can redistribute it and/or modify it under
   the terms of the GNU Lesser General Public License as published by
   the Free Software Foundation, either version 3 of the License, or
   (at your option) any later version.
   
   xtb is distributed in the hope that it will be useful,
   but WITHOUT ANY WARRANTY; without even the implied warranty of
   MERCHANTABILITY or FITNESS FOR A PARTICULAR PURPOSE.  See the
   GNU Lesser General Public License for more details.
   
   Cite this work as:
   * C. Bannwarth, E. Caldeweyher, S. Ehlert, A. Hansen, P. Pracht,
     J. Seibert, S. Spicher, S. Grimme, WIREs Comput. Mol. Sci., 2020, 11,
     e01493. DOI: 10.1002/wcms.1493
   
   for GFN2-xTB:
   * C. Bannwarth, S. Ehlert and S. Grimme., J. Chem. Theory Comput., 2019,
     15, 1652-1671. DOI: 10.1021/acs.jctc.8b01176
   for GFN1-xTB:
   * S. Grimme, C. Bannwarth, P. Shushkov, J. Chem. Theory Comput., 2017,
     13, 1989-2009. DOI: 10.1021/acs.jctc.7b00118
   for GFN0-xTB:
   * P. Pracht, E. Caldeweyher, S. Ehlert, S. Grimme, ChemRxiv, 2019, preprint.
     DOI: 10.26434/chemrxiv.8326202.v1
   for GFN-FF:
   * S. Spicher and S. Grimme, Angew. Chem. Int. Ed., 2020, 59, 15665-15673.
     DOI: 10.1002/anie.202004239
   
   for ALPB and GBSA implicit solvation:
   * S. Ehlert, M. Stahn, S. Spicher, S. Grimme, J. Chem. Theory Comput.,
     2021, 17, 4250-4261. DOI: 10.1021/acs.jctc.1c00471
   
   for DFT-D4:
   * E. Caldeweyher, C. Bannwarth and S. Grimme, J. Chem. Phys., 2017,
     147, 034112. DOI: 10.1063/1.4993215
   * E. Caldeweyher, S. Ehlert, A. Hansen, H. Neugebauer, S. Spicher,
     C. Bannwarth and S. Grimme, J. Chem. Phys., 2019, 150, 154122.
     DOI: 10.1063/1.5090222
   * E. Caldeweyher, J.-M. Mewes, S. Ehlert and S. Grimme, Phys. Chem. Chem. Phys.
     2020, 22, 8499-8512. DOI: 10.1039/D0CP00502A
   
   for sTDA-xTB:
   * S. Grimme and C. Bannwarth, J. Chem. Phys., 2016, 145, 054103.
     DOI: 10.1063/1.4959605
   
   in the mass-spec context:
   * V. Asgeirsson, C. Bauer and S. Grimme, Chem. Sci., 2017, 8, 4879.
     DOI: 10.1039/c7sc00601b
   * J. Koopman and S. Grimme, ACS Omega 2019, 4, 12, 15120-15133.
     DOI: 10.1021/acsomega.9b02011
   
   for metadynamics refer to:
   * S. Grimme, J. Chem. Theory Comput., 2019, 155, 2847-2862
     DOI: 10.1021/acs.jctc.9b00143
   
   for SPH calculations refer to:
   * S. Spicher and S. Grimme, J. Chem. Theory Comput., 2021, 17, 1701-1714
     DOI: 10.1021/acs.jctc.0c01306
   
   with help from (in alphabetical order)
   P. Atkinson, C. Bannwarth, F. Bohle, G. Brandenburg, E. Caldeweyher
   M. Checinski, S. Dohm, S. Ehlert, S. Ehrlich, I. Gerasimov, C. Hölzer
   A. Katbashev, J. Koopman, C. Lavigne, S. Lehtola, F. März, M. Müller,
   F. Musil, H. Neugebauer, J. Pisarek, C. Plett, P. Pracht, F. Pultar,
   J. Seibert, P. Shushkov, S. Spicher, M. Stahn, M. Steiner, T. Strunk,
   J. Stückrath, T. Rose, and J. Unsleber
   
 * started run on 2022/11/24 at 09:28:10.077     

           -------------------------------------------------
          |                Calculation Setup                |
           -------------------------------------------------

          program call               : xtb solvent_cluster.coord --gfn2 --sp --lmo --chrg 0
          hostname                   : cn0341
          coordinate file            : solvent_cluster.coord
          omp threads                :                     2

   ID    Z sym.   atoms
    1    8 o      1, 4, 7, 10, 13, 16, 19, 22, 25, 28, 31, 34, 37, 40, 43,
                  46, 49, 52, 55, 58, 61, 64, 67, 70, 73, 76, 79, 82, 85, 88,
                  91, 94, 97, 100, 103, 106, 109, 112, 115, 118, 121, 124,
                  127, 130, 133, 136, 139, 142, 145, 148, 151, 154, 157, 160,
                  163, 166, 169, 172, 175, 178, 181, 184, 187, 190, 193, 196,
                  199, 202, 205, 208, 211, 214, 217, 220, 223, 226, 229, 232,
                  235, 238, 241, 244, 247, 250, 253, 256, 259, 262, 265, 268,
                  271, 274, 277, 280, 283, 286, 289, 292, 295, 298, 301, 304,
                  307, 310, 313, 316, 319, 322, 325, 328, 331, 334, 337, 340,
                  343, 346, 349, 352, 355, 358, 361, 364, 367, 370, 373, 376,
                  379, 382, 385, 388, 391, 394, 397, 400, 403, 406, 409, 412,
                  415, 418, 421, 424, 427, 430, 433, 436, 439, 442, 445, 448,
                  451, 454, 457, 460, 463, 466, 469, 472, 475, 478, 481, 484,
                  487, 490, 493, 496, 499, 502, 505, 508, 511, 514, 517, 520,
                  523, 526, 529, 532, 535, 538, 541, 544, 547, 550, 553, 556,
                  559, 562, 565, 568, 571, 574, 577, 580, 583, 586, 589, 592,
                  595, 598, 601, 604, 607, 610, 613, 616, 619, 622, 625, 628,
                  631, 634, 637, 640, 643, 646, 649, 652, 655, 658, 661, 664,
                  667, 670, 673, 676, 679, 682, 685, 688, 691, 694, 697, 700,
                  703, 706, 709, 712, 715, 718, 721, 724, 727, 730, 733, 736,
                  739, 742, 745, 748, 751, 754
    2    1 h      2, 3, 5, 6, 8, 9, 11, 12, 14, 15, 17, 18, 20, 21, 23, 24,
                  26, 27, 29, 30, 32, 33, 35, 36, 38, 39, 41, 42, 44, 45, 47,
                  48, 50, 51, 53, 54, 56, 57, 59, 60, 62, 63, 65, 66, 68, 69,
                  71, 72, 74, 75, 77, 78, 80, 81, 83, 84, 86, 87, 89, 90, 92,
                  93, 95, 96, 98, 99, 101, 102, 104, 105, 107, 108, 110, 111,
                  113, 114, 116, 117, 119, 120, 122, 123, 125, 126, 128, 129,
                  131, 132, 134, 135, 137, 138, 140, 141, 143, 144, 146, 147,
                  149, 150, 152, 153, 155, 156, 158, 159, 161, 162, 164, 165,
                  167, 168, 170, 171, 173, 174, 176, 177, 179, 180, 182, 183,
                  185, 186, 188, 189, 191, 192, 194, 195, 197, 198, 200, 201,
                  203, 204, 206, 207, 209, 210, 212, 213, 215, 216, 218, 219,
                  221, 222, 224, 225, 227, 228, 230, 231, 233, 234, 236, 237,
                  239, 240, 242, 243, 245, 246, 248, 249, 251, 252, 254, 255,
                  257, 258, 260, 261, 263, 264, 266, 267, 269, 270, 272, 273,
                  275, 276, 278, 279, 281, 282, 284, 285, 287, 288, 290, 291,
                  293, 294, 296, 297, 299, 300, 302, 303, 305, 306, 308, 309,
                  311, 312, 314, 315, 317, 318, 320, 321, 323, 324, 326, 327,
                  329, 330, 332, 333, 335, 336, 338, 339, 341, 342, 344, 345,
                  347, 348, 350, 351, 353, 354, 356, 357, 359, 360, 362, 363,
                  365, 366, 368, 369, 371, 372, 374, 375, 377, 378, 380, 381,
                  383, 384, 386, 387, 389, 390, 392, 393, 395, 396, 398, 399,
                  401, 402, 404, 405, 407, 408, 410, 411, 413, 414, 416, 417,
                  419, 420, 422, 423, 425, 426, 428, 429, 431, 432, 434, 435,
                  437, 438, 440, 441, 443, 444, 446, 447, 449, 450, 452, 453,
                  455, 456, 458, 459, 461, 462, 464, 465, 467, 468, 470, 471,
                  473, 474, 476, 477, 479, 480, 482, 483, 485, 486, 488, 489,
                  491, 492, 494, 495, 497, 498, 500, 501, 503, 504, 506, 507,
                  509, 510, 512, 513, 515, 516, 518, 519, 521, 522, 524, 525,
                  527, 528, 530, 531, 533, 534, 536, 537, 539, 540, 542, 543,
                  545, 546, 548, 549, 551, 552, 554, 555, 557, 558, 560, 561,
                  563, 564, 566, 567, 569, 570, 572, 573, 575, 576, 578, 579,
                  581, 582, 584, 585, 587, 588, 590, 591, 593, 594, 596, 597,
                  599, 600, 602, 603, 605, 606, 608, 609, 611, 612, 614, 615,
                  617, 618, 620, 621, 623, 624, 626, 627, 629, 630, 632, 633,
                  635, 636, 638, 639, 641, 642, 644, 645, 647, 648, 650, 651,
                  653, 654, 656, 657, 659, 660, 662, 663, 665, 666, 668, 669,
                  671, 672, 674, 675, 677, 678, 680, 681, 683, 684, 686, 687,
                  689, 690, 692, 693, 695, 696, 698, 699, 701, 702, 704, 705,
                  707, 708, 710, 711, 713, 714, 716, 717, 719, 720, 722, 723,
                  725, 726, 728, 729, 731, 732, 734, 735, 737, 738, 740, 741,
                  743, 744, 746, 747, 749, 750, 752, 753, 755, 756

molecular fragmentation (1/2 indicates fragments):
111222222222222222222222222222222222222222222222222222222222222222222222
222222222222222222222222222222222222222222222222222222222222222222222222
222222222222222222222222222222222222222222222222222222222222222222222222
222222222222222222222222222222222222222222222222222222222222222222222222
222222222222222222222222222222222222222222222222222222222222222222222222
222222222222222222222222222222222222222222222222222222222222222222222222
222222222222222222222222222222222222222222222222222222222222222222222222
222222222222222222222222222222222222222222222222222222222222222222222222
222222222222222222222222222222222222222222222222222222222222222222222222
222222222222222222222222222222222222222222222222222222222222222222222222
222222222222222222222222222222222222
# atoms in fragment 1/2:     3   753
 fragment masses (1/2) :       18.02     4521.84
CMA distance (Bohr)    :  15.592
constraining FC (au)   :  0.0500

           -------------------------------------------------
          |                 G F N 2 - x T B                 |
           -------------------------------------------------

        Reference                      10.1021/acs.jctc.8b01176
      * Hamiltonian:
        H0-scaling (s, p, d)           1.850000    2.230000    2.230000
        zeta-weighting                 0.500000
      * Dispersion:
        s8                             2.700000
        a1                             0.520000
        a2                             5.000000
        s9                             5.000000
      * Repulsion:
        kExp                           1.500000    1.000000
        rExp                           1.000000
      * Coulomb:
        alpha                          2.000000
        third order                    shell-resolved
        anisotropic                    true
        a3                             3.000000
        a5                             4.000000
        cn-shift                       1.200000
        cn-exp                         4.000000
        max-rad                        5.000000


          ...................................................
          :                      SETUP                      :
          :.................................................:
          :  # basis functions                1512          :
          :  # atomic orbitals                1512          :
          :  # shells                         1008          :
          :  # electrons                      2016          :
          :  max. iterations                   250          :
          :  Hamiltonian                  GFN2-xTB          :
          :  restarted?                      false          :
          :  GBSA solvation                  false          :
          :  PC potential                    false          :
          :  electronic temp.          300.0000000     K    :
          :  accuracy                    1.0000000          :
          :  -> integral cutoff          0.2500000E+02      :
          :  -> integral neglect         0.1000000E-07      :
          :  -> SCF convergence          0.1000000E-05 Eh   :
          :  -> wf. convergence          0.1000000E-03 e    :
          :  Broyden damping             0.4000000          :
          ...................................................

 iter      E             dE          RMSdq      gap      omega  full diag
   1  -1291.0009150 -0.129100E+04  0.407E+00    8.47       0.0  T
   2  -1291.0699122 -0.689972E-01  0.241E+00    8.42       1.0  T
   3  -1291.1001229 -0.302107E-01  0.206E-01    7.93       1.0  T
   4  -1291.1050234 -0.490045E-02  0.449E-02    8.14       1.0  T
   5  -1291.1050889 -0.655144E-04  0.304E-02    8.11       1.0  T
   6  -1291.1051259 -0.369851E-04  0.408E-03    8.13       1.0  T
   7  -1291.1051280 -0.213832E-05  0.769E-04    8.13       4.7  T
   8  -1291.1051280 -0.351563E-07  0.390E-04    8.13       9.3  T
   9  -1291.1051281 -0.147261E-07  0.658E-05    8.13      55.3  T

   *** convergence criteria satisfied after 9 iterations ***

         #    Occupation            Energy/Eh            Energy/eV
      -------------------------------------------------------------
         1        2.0000           -0.6926281             -18.8474
       ...           ...                  ...                  ...
      1002        2.0000           -0.4113027             -11.1921
      1003        2.0000           -0.4108555             -11.1799
      1004        2.0000           -0.4101469             -11.1607
      1005        2.0000           -0.4101433             -11.1606
      1006        2.0000           -0.4083687             -11.1123
      1007        2.0000           -0.4068187             -11.0701
      1008        2.0000           -0.4057251             -11.0403 (HOMO)
      1009                         -0.1071273              -2.9151 (LUMO)
      1010                         -0.0959134              -2.6099
      1011                         -0.0863712              -2.3503
      1012                         -0.0803965              -2.1877
      1013                         -0.0705656              -1.9202
       ...                                ...                  ...
      1512                          0.4341147              11.8129
      -------------------------------------------------------------
                  HL-Gap            0.2985978 Eh            8.1253 eV
             Fermi-level           -0.2564262 Eh           -6.9777 eV
 
 localization/xTB-IFF output generation
 averaging CT terms over           20  occ. levels
 averaging CT terms over            1  virt. levels
 dipole moment from electron density (au)
     X       Y       Z   
  -0.8754  -2.4964   1.5779  total (Debye):    7.829
cpu  time for init local    0.88 s
wall time for init local    0.48 s
 doing rotations ...
 initialization of trafo matrix to unity

 converged in     16 iterations, threshold :   0.99996150D-06
 doing transformations ...
 lmo centers(Z=2) and atoms on file <lmocent.coord>
 LMO Fii/eV  ncent    charge center   contributions...
    1 LP   *******   0.00   0.18211   5.30914   5.71929   28O : 30.34  505O : 21.20  394O : 18.32  493O : 16.03  457O : 15.62  214O : 15.62  517O : 15.35   73O : 15.22  703O : 15.13  643O : 14.75  376O : 14.67  283O : 13.97
    4O : 13.76   52O : 13.24  724O : 12.97  535O : 12.65  151O : 12.59  556O : 11.87   37O : 11.83  385O : 11.82  439O : 11.59  166O : 11.32  427O : 11.15  208O : 11.01
  184O : 10.97  328O : 10.62  268O : 10.39  100O : 10.01  520O :  9.88  547O :  9.85  685O :  9.76  289O :  9.71  400O :  9.65  280O :  9.52  460O :  9.45  604O :  9.15
  688O :  9.00  607O :  8.99  472O :  8.97  265O :  8.82   67O :  8.71  697O :  8.45   43O :  8.27  361O :  8.21  748O :  8.09   49O :  7.94  337O :  7.90  574O :  7.89
  487O :  7.88  613O :  7.84  136O :  7.78  679O :  7.75  292O :  7.73  463O :  7.70  235O :  7.68  490O :  7.63   58O :  7.45  418O :  7.37  298O :  7.26  568O :  7.21
  553O :  7.20  661O :  7.20  559O :  7.19   13O :  7.18  139O :  7.15  637O :  7.14  436O :  7.13  658O :  7.06  331O :  7.06   25O :  7.03  232O :  6.95  442O :  6.94
  415O :  6.85  220O :  6.81  694O :  6.73  202O :  6.62  325O :  6.42  655O :  6.24  577O :  6.16  256O :  5.96  421O :  5.81  619O :  5.65  751O :  5.62  514O :  5.58
  253O :  5.58  127O :  5.53  673O :  5.51  274O :  5.49  334O :  5.44  307O :  5.43  625O :  5.40  250O :  5.39  190O :  5.39  640O :  5.31  523O :  5.29  592O :  5.29
  355O :  5.23  670O :  5.19  445O :  5.19  628O :  5.14   40O :  5.12  262O :  5.10  244O :  5.09  430O :  5.08  178O :  5.04  172O :  5.02  454O :  5.00  313O :  4.99
  241O :  4.98  199O :  4.95  451O :  4.92  481O :  4.76  589O :  4.72  226O :  4.71  502O :  4.71  382O :  4.70  211O :  4.66  508O :  4.60  130O :  4.57  112O :  4.56
  526O :  4.50  295O :  4.49  736O :  4.38  715O :  4.37  304O :  4.36  676O :  4.29  745O :  4.29   91O :  4.18  349O :  3.97  730O :  3.90  148O :  3.89  466O :  3.83
  727O :  3.81  721O :  3.77  667O :  3.76  187O :  3.76   76O :  3.75  103O :  3.70  301O :  3.70  352O :  3.66  682O :  3.59  379O :  3.52  739O :  3.46  238O :  3.41
  409O :  3.31  562O :  3.23  544O :  3.21    1O :  3.18  397O :  3.16   79O :  3.15  550O :  3.14  223O :  3.14  646O :  3.09  217O :  3.07  538O :  3.06  733O :  3.06
  478O :  3.06  154O :  3.05  622O :  2.97  310O :  2.93  121O :  2.93  571O :  2.91  316O :  2.82   82O :  2.81  469O :  2.79  484O :  2.79  595O :  2.77  511O :  2.76
  586O :  2.74   85O :  2.74   88O :  2.65  529O :  2.59   61O :  2.58  118O :  2.54  271O :  2.48  160O :  2.47  532O :  2.45  229O :  2.40  634O :  2.39  388O :  2.38
  196O :  2.33  277O :  2.32  193O :  2.31  370O :  2.29  652O :  2.26  377H :  2.24  705H :  2.21  133O :  2.10  565O :  2.08  583O :  2.08  169O :  2.06  433O :  2.02
  329H :  2.01   22O :  2.01   64O :  1.95  700O :  1.93  115O :  1.92   10O :  1.91  691O :  1.89  322O :  1.85  215H :  1.83  601O :  1.79  145O :  1.75  319O :  1.70
  616O :  1.69  343O :  1.68  412O :  1.63  522H :  1.63    7O :  1.61  742O :  1.58  109O :  1.56   75H :  1.55  142O :  1.52   97O :  1.49  706O :  1.48  754O :  1.48
  286O :  1.48  364O :  1.46   19O :  1.45  336H :  1.43  356H :  1.38  416H :  1.37   46O :  1.35  519H :  1.33  269H :  1.31  709O :  1.31  346O :  1.26  153H :  1.26
  499O :  1.24  610O :  1.22  157O :  1.15  698H :  1.13  620H :  1.12   51H :  1.10   31O :  1.10   34O :  1.09  181O :  1.08  718O :  1.08  696H :  1.08  124O :  1.06
  113H :  1.06  163O :  1.04   94O :  1.03  664O :  1.02  362H :  1.01  540H :  1.01   55O :  1.00  305H :  1.00  267H :  0.99  373O :  0.97  424O :  0.97   74H :  0.95
  448O :  0.94  167H :  0.93  422H :  0.93  332H :  0.93  218H :  0.93  406O :  0.92  687H :  0.92  308H :  0.92  428H :  0.92  453H :  0.91   70O :  0.91  626H :  0.91
  725H :  0.91  284H :  0.89  321H :  0.89  728H :  0.87  403O :  0.86   16O :  0.85  402H :  0.83  741H :  0.81  358O :  0.80  389H :  0.80  441H :  0.79  246H :  0.78
  631O :  0.77  210H :  0.77  677H :  0.77  339H :  0.76  669H :  0.75  119H :  0.74  495H :  0.72  594H :  0.72  659H :  0.71  106O :  0.71  475O :  0.71  367O :  0.70
  516H :  0.69  749H :  0.69  252H :  0.68  518H :  0.68  263H :  0.67  731H :  0.67  494H :  0.66  580O :  0.66  649O :  0.64  712O :  0.64  531H :  0.62  237H :  0.61
  140H :  0.61  747H :  0.60  272H :  0.60  447H :  0.60  675H :  0.59  110H :  0.59  429H :  0.58  259O :  0.58  149H :  0.57   14H :  0.57   50H :  0.57   93H :  0.56
  606H :  0.56  465H :  0.55  623H :  0.55  276H :  0.55  482H :  0.55  656H :  0.54  314H :  0.53  638H :  0.52  340O :  0.52  507H :  0.52  228H :  0.51  506H :  0.51
  515H :  0.51  224H :  0.50  570H :  0.50  699H :  0.50  527H :  0.49  159H :  0.47  306H :  0.47  405H :  0.47  585H :  0.46  639H :  0.46  444H :  0.45  137H :  0.45
  230H :  0.44  128H :  0.44  503H :  0.43  123H :  0.42  203H :  0.42  372H :  0.42    8H :  0.42  156H :  0.42  264H :  0.41  258H :  0.41  273H :  0.41  614H :  0.40
  525H :  0.40   24H :  0.40  212H :  0.39  603H :  0.39  200H :  0.39  704H :  0.39   21H :  0.38  632H :  0.38  312H :  0.38  541O :  0.38   48H :  0.37  627H :  0.37
  564H :  0.37  496O :  0.37  345H :  0.36  569H :  0.36  545H :  0.35  326H :  0.35  755H :  0.35  609H :  0.35  309H :  0.34  642H :  0.34  171H :  0.32  597H :  0.32
  560H :  0.32  671H :  0.32  663H :  0.31   29H :  0.31  294H :  0.31  645H :  0.30  173H :  0.29  668H :  0.29  501H :  0.29  129H :  0.29  716H :  0.29  483H :  0.29
   77H :  0.29  551H :  0.28  348H :  0.28  221H :  0.28  584H :  0.28  413H :  0.28  270H :  0.28  391O :  0.28  467H :  0.28  423H :  0.28  111H :  0.27  387H :  0.27
  152H :  0.27  462H :  0.27  247O :  0.27  446H :  0.27  530H :  0.27  653H :  0.26  378H :  0.26   36H :  0.26   96H :  0.25  695H :  0.25  492H :  0.25  335H :  0.25
  354H :  0.25  285H :  0.25  245H :  0.24  443H :  0.24  116H :  0.24   69H :  0.24  489H :  0.24  317H :  0.24  213H :  0.24  554H :  0.24  593H :  0.24   66H :  0.24
  557H :  0.24  239H :  0.24  578H :  0.23  104H :  0.23  587H :  0.23  683H :  0.22    6H :  0.22  624H :  0.22  615H :  0.21  266H :  0.21  680H :  0.21  195H :  0.21
  629H :  0.21  225H :  0.20  205O :  0.20  753H :  0.20  185H :  0.20  521H :  0.20  546H :  0.19  201H :  0.19  351H :  0.19  599H :  0.19  338H :  0.19  618H :  0.18
  617H :  0.18   30H :  0.18  537H :  0.18  498H :  0.18   12H :  0.18   83H :  0.18  552H :  0.18  175O :  0.17   60H :  0.17  141H :  0.17  155H :  0.17  717H :  0.17
  563H :  0.17  386H :  0.17  480H :  0.17  143H :  0.17  509H :  0.17   18H :  0.16  182H :  0.16   59H :  0.16  692H :  0.16   63H :  0.16  566H :  0.15  611H :  0.15
  737H :  0.15  222H :  0.15  414H :  0.15  598O :  0.15  275H :  0.15   20H :  0.15   90H :  0.15  702H :  0.15   84H :  0.14  410H :  0.14   35H :  0.14  608H :  0.14
  474H :  0.14  330H :  0.14  708H :  0.14  621H :  0.13  419H :  0.13  359H :  0.13  641H :  0.13  473H :  0.13  216H :  0.13  122H :  0.13  735H :  0.12  648H :  0.12
  281H :  0.12  398H :  0.12  752H :  0.12  612H :  0.12  654H :  0.12  452H :  0.12  726H :  0.11  236H :  0.11   68H :  0.11  126H :  0.11  686H :  0.11  188H :  0.11
  401H :  0.11  455H :  0.11  450H :  0.10  299H :  0.10  512H :  0.10   47H :  0.10  662H :  0.10  231H :  0.10  176H :  0.10  183H :  0.10  425H :  0.10  291H :  0.10
  471H :  0.09  485H :  0.09  162H :  0.09  105H :  0.09  107H :  0.09  738H :  0.09  209H :  0.09  750H :  0.09   87H :  0.09  206H :  0.09  399H :  0.09    9H :  0.09
  567H :  0.09  510H :  0.09  477H :  0.09  575H :  0.08  744H :  0.08  174H :  0.08  327H :  0.08  204H :  0.08  177H :  0.08  456H :  0.08   39H :  0.08  251H :  0.08
  543H :  0.08  651H :  0.07   33H :  0.07  635H :  0.07  533H :  0.07  131H :  0.07  288H :  0.07  147H :  0.07   26H :  0.07
    2 LP   *******   0.00  52.03360 -35.61659 -11.53784   28O : 26.89  505O : 22.71  394O : 17.48  493O : 15.27  457O : 14.91  214O : 14.90  517O : 14.65   73O : 14.52  703O : 14.44  643O : 14.09  376O : 13.99  283O : 13.33
    4O : 13.13   52O : 12.63  724O : 12.38  535O : 12.07  151O : 12.01  556O : 11.32   37O : 11.29  385O : 11.28  166O : 11.02  439O : 10.72  427O : 10.61  208O : 10.51
  184O : 10.47  328O : 10.13  268O :  9.91  100O :  9.53  520O :  9.43  547O :  9.40  685O :  9.32  289O :  9.27  400O :  9.20  280O :  9.08  460O :  9.01  604O :  8.73
  688O :  8.59  607O :  8.58  472O :  8.56  265O :  8.42   67O :  8.31  697O :  8.06   43O :  7.91  361O :  7.84  748O :  7.72   49O :  7.58  337O :  7.55  574O :  7.53
  487O :  7.52  613O :  7.48  136O :  7.41  679O :  7.40  292O :  7.38  463O :  7.35  235O :  7.33  490O :  7.28   58O :  7.10  418O :  7.04  568O :  6.88  661O :  6.87
  553O :  6.87  298O :  6.86   13O :  6.86  559O :  6.86  139O :  6.82  637O :  6.81  436O :  6.80  331O :  6.74  658O :  6.73   25O :  6.71  442O :  6.63  232O :  6.62
  415O :  6.53  220O :  6.50  694O :  6.48  202O :  6.31  325O :  6.12  577O :  5.88  256O :  5.69  655O :  5.61  421O :  5.54  619O :  5.39  751O :  5.36  253O :  5.33
  514O :  5.32  127O :  5.28  673O :  5.26  274O :  5.24  334O :  5.19  307O :  5.18  625O :  5.15  250O :  5.14  190O :  5.14  640O :  5.07  523O :  5.05  592O :  5.04
  355O :  4.99  670O :  4.95  445O :  4.95  628O :  4.91   40O :  4.88  262O :  4.87  244O :  4.86  430O :  4.85  178O :  4.81  172O :  4.79  199O :  4.77  454O :  4.77
  313O :  4.76  241O :  4.75  451O :  4.70  481O :  4.55  589O :  4.50  226O :  4.50  502O :  4.50  382O :  4.49  211O :  4.45  508O :  4.39  130O :  4.36  112O :  4.35
  526O :  4.30  295O :  4.28  736O :  4.18  304O :  4.16  715O :  4.11  745O :  4.09  676O :  4.09   91O :  3.99  349O :  3.79  730O :  3.73  148O :  3.71  466O :  3.66
  727O :  3.64  721O :  3.61  667O :  3.59  187O :  3.58   76O :  3.58  103O :  3.54  301O :  3.53  352O :  3.49  682O :  3.42  379O :  3.36  739O :  3.31  238O :  3.26
  409O :  3.16  562O :  3.08  544O :  3.06    1O :  3.04  397O :  3.01   79O :  3.01  550O :  2.99  223O :  2.99  646O :  2.94  217O :  2.93  538O :  2.92  733O :  2.92
  478O :  2.92  154O :  2.91  622O :  2.89  121O :  2.79  310O :  2.79  571O :  2.78  316O :  2.69   82O :  2.68  484O :  2.66  469O :  2.66  595O :  2.65  511O :  2.63
  586O :  2.62   85O :  2.61   88O :  2.52  529O :  2.48   61O :  2.46  118O :  2.41  271O :  2.36  532O :  2.33  160O :  2.32  229O :  2.28  634O :  2.28  388O :  2.27
  196O :  2.23  277O :  2.22  193O :  2.20  370O :  2.18  652O :  2.16  377H :  2.14  705H :  2.11  133O :  2.00  583O :  2.00  565O :  2.00  169O :  1.97  433O :  1.93
  329H :  1.92   22O :  1.92   64O :  1.86  700O :  1.85  115O :  1.83   10O :  1.82  691O :  1.80  322O :  1.76  215H :  1.75  601O :  1.71  145O :  1.67  319O :  1.62
  616O :  1.61  343O :  1.61  412O :  1.56  522H :  1.55    7O :  1.54  742O :  1.51  109O :  1.49   75H :  1.48   97O :  1.46  142O :  1.45  706O :  1.42  754O :  1.41
  286O :  1.41   19O :  1.39  336H :  1.37  364O :  1.36  356H :  1.32  416H :  1.31   46O :  1.29  519H :  1.27  269H :  1.25  709O :  1.25  346O :  1.20  153H :  1.20
  499O :  1.18  610O :  1.16  157O :  1.10  698H :  1.08  620H :  1.06   31O :  1.06   51H :  1.05   34O :  1.04  696H :  1.03  181O :  1.03  718O :  1.03  113H :  1.01
  124O :  1.01  163O :  0.99   94O :  0.98  664O :  0.97  362H :  0.97  540H :  0.96   55O :  0.95  305H :  0.95  267H :  0.95  373O :  0.92  424O :  0.92   74H :  0.91
  448O :  0.90  167H :  0.89  332H :  0.88  422H :  0.88  406O :  0.88  687H :  0.88  308H :  0.88  428H :  0.88  453H :  0.87   70O :  0.87  626H :  0.87  725H :  0.86
  218H :  0.86  284H :  0.85  321H :  0.85  728H :  0.83  403O :  0.82   16O :  0.81  402H :  0.79  741H :  0.77  358O :  0.77  389H :  0.76  441H :  0.75  246H :  0.75
  631O :  0.74  210H :  0.74  677H :  0.73  339H :  0.72  669H :  0.71  119H :  0.70  495H :  0.70  594H :  0.69  659H :  0.68  106O :  0.68  475O :  0.67  367O :  0.67
  516H :  0.66  749H :  0.66  252H :  0.65  518H :  0.65  263H :  0.64  731H :  0.64  580O :  0.63  649O :  0.61  712O :  0.61  494H :  0.60  531H :  0.59  237H :  0.58
  140H :  0.58  747H :  0.58  272H :  0.57  110H :  0.57  447H :  0.57  675H :  0.57  623H :  0.56  429H :  0.56  259O :  0.55  149H :  0.55   14H :  0.54   50H :  0.54
   93H :  0.54  606H :  0.53  465H :  0.53  276H :  0.52  482H :  0.52  656H :  0.52  314H :  0.51  638H :  0.50  340O :  0.49  228H :  0.49  515H :  0.48  224H :  0.48
  570H :  0.48  699H :  0.47  527H :  0.47  159H :  0.45  306H :  0.45  405H :  0.45  585H :  0.45  639H :  0.44  444H :  0.43  507H :  0.43  137H :  0.43  128H :  0.42
  230H :  0.42  506H :  0.42  503H :  0.41  123H :  0.41  203H :  0.40  372H :  0.40    8H :  0.40  156H :  0.40  264H :  0.39  258H :  0.39  273H :  0.39  614H :  0.39
  525H :  0.38   24H :  0.38  212H :  0.38  603H :  0.37  200H :  0.37  704H :  0.37   21H :  0.37  632H :  0.36  312H :  0.36  541O :  0.36   48H :  0.36  627H :  0.35
  564H :  0.35  496O :  0.35  345H :  0.35   29H :  0.34  569H :  0.34  545H :  0.34  326H :  0.34  755H :  0.33  609H :  0.33  309H :  0.33  642H :  0.32  171H :  0.31
  597H :  0.30  560H :  0.30  671H :  0.30  663H :  0.30  294H :  0.29  645H :  0.29  173H :  0.28  668H :  0.28  501H :  0.28  129H :  0.28  483H :  0.27   77H :  0.27
  584H :  0.27  551H :  0.27  348H :  0.27  221H :  0.27  413H :  0.27  270H :  0.27  391O :  0.27  467H :  0.27  423H :  0.26  111H :  0.26  387H :  0.26  152H :  0.26
  462H :  0.26   36H :  0.26  247O :  0.25  446H :  0.25  530H :  0.25  653H :  0.25  378H :  0.25   96H :  0.24  695H :  0.24  492H :  0.24  335H :  0.24  354H :  0.24
  285H :  0.24  245H :  0.23  443H :  0.23  116H :  0.23   69H :  0.23  489H :  0.23  317H :  0.23  213H :  0.23  554H :  0.23  593H :  0.23   66H :  0.23  557H :  0.23
  239H :  0.22  578H :  0.22   30H :  0.22  104H :  0.22  587H :  0.22  624H :  0.21  683H :  0.21    6H :  0.21  615H :  0.20  266H :  0.20  680H :  0.20  195H :  0.20
  629H :  0.20  225H :  0.19  205O :  0.19  753H :  0.19  716H :  0.19  185H :  0.19  521H :  0.19  546H :  0.19  201H :  0.18  351H :  0.18  599H :  0.18  338H :  0.18
  618H :  0.18  617H :  0.17  537H :  0.17  498H :  0.17   12H :  0.17   83H :  0.17  552H :  0.17  175O :  0.17  717H :  0.17   60H :  0.17  141H :  0.16  155H :  0.16
  563H :  0.16  386H :  0.16  480H :  0.16  143H :  0.16   18H :  0.16  509H :  0.16  182H :  0.16   59H :  0.16  692H :  0.15   63H :  0.15  566H :  0.15  611H :  0.15
  737H :  0.14  414H :  0.14  222H :  0.14  598O :  0.14   20H :  0.14  275H :  0.14   90H :  0.14  702H :  0.14   84H :  0.14   35H :  0.14  410H :  0.14  608H :  0.13
  474H :  0.13  330H :  0.13  708H :  0.13  621H :  0.13  419H :  0.13  359H :  0.13  641H :  0.12  473H :  0.12  216H :  0.12  122H :  0.12  735H :  0.12  648H :  0.12
  281H :  0.12  398H :  0.11  752H :  0.11  612H :  0.11  654H :  0.11  452H :  0.11  726H :  0.11  236H :  0.11   68H :  0.11  126H :  0.11  686H :  0.10  188H :  0.10
  401H :  0.10  455H :  0.10  450H :  0.10  512H :  0.10   47H :  0.10  662H :  0.10  299H :  0.10  231H :  0.10  176H :  0.09  183H :  0.09  425H :  0.09  291H :  0.09
  471H :  0.09  485H :  0.09  105H :  0.09  107H :  0.09  738H :  0.09  209H :  0.09  750H :  0.09  162H :  0.09   87H :  0.09  206H :  0.09  399H :  0.09    9H :  0.08
  567H :  0.08  510H :  0.08  477H :  0.08  575H :  0.08  744H :  0.08  174H :  0.08  327H :  0.08  204H :  0.08  177H :  0.08  456H :  0.08   39H :  0.07  251H :  0.07
  543H :  0.07  651H :  0.07
    3 LP   *******   0.00  -7.18853 -15.02870 -31.29308   28O : 20.68  505O : 15.56  214O : 14.04  394O : 13.45  493O : 11.76  457O : 11.47  517O : 11.27   73O : 11.17  703O : 11.10  643O : 10.83  376O : 10.71  283O : 10.25
    4O : 10.10   52O :  9.71  724O :  9.52  535O :  9.28  151O :  9.21   37O :  8.91  556O :  8.71  385O :  8.68  439O :  8.51  166O :  8.31  427O :  8.18  208O :  8.09
  184O :  8.06  328O :  7.79  268O :  7.62  100O :  7.33  520O :  7.25  547O :  7.23  685O :  7.17  289O :  7.13  400O :  7.12  280O :  6.98  460O :  6.93  604O :  6.72
  688O :  6.61  607O :  6.60  472O :  6.59  265O :  6.48   67O :  6.39  697O :  6.20   43O :  6.07  361O :  6.03  748O :  5.94   49O :  5.82  337O :  5.81  574O :  5.80
  487O :  5.78  613O :  5.75  136O :  5.71  679O :  5.69  292O :  5.68  463O :  5.65  235O :  5.64  490O :  5.60   58O :  5.47  418O :  5.41  568O :  5.29  661O :  5.28
  553O :  5.28  559O :  5.28  298O :  5.27   13O :  5.27  139O :  5.25  637O :  5.24  436O :  5.23  331O :  5.18  658O :  5.18   25O :  5.16  442O :  5.10  232O :  5.09
  415O :  5.03  220O :  5.00  694O :  4.98  202O :  4.86  325O :  4.71  655O :  4.58  577O :  4.52  256O :  4.37  421O :  4.26  619O :  4.15  751O :  4.13  253O :  4.10
  514O :  4.10  673O :  4.04  274O :  4.03  334O :  3.99  307O :  3.98  127O :  3.97  625O :  3.96  250O :  3.96  190O :  3.95  640O :  3.90  523O :  3.88  592O :  3.88
  355O :  3.84  670O :  3.81  445O :  3.81  628O :  3.78   40O :  3.75  262O :  3.74  244O :  3.73  430O :  3.73  178O :  3.70  172O :  3.68  199O :  3.67  454O :  3.67
  313O :  3.66  241O :  3.65  451O :  3.61  481O :  3.50  589O :  3.46  502O :  3.46  382O :  3.45  211O :  3.42  508O :  3.38  130O :  3.35  112O :  3.35  526O :  3.30
  295O :  3.30  736O :  3.22  304O :  3.20  226O :  3.18  715O :  3.16  745O :  3.16  676O :  3.15   91O :  3.07  349O :  2.91  730O :  2.87  148O :  2.86  466O :  2.81
  727O :  2.80  721O :  2.77  667O :  2.76  187O :  2.76   76O :  2.75  103O :  2.72  301O :  2.72  352O :  2.69  682O :  2.64  379O :  2.58  739O :  2.54  238O :  2.50
  409O :  2.43  562O :  2.37  544O :  2.36    1O :  2.34  397O :  2.32   79O :  2.31  223O :  2.30  550O :  2.30  646O :  2.26  154O :  2.26  217O :  2.25  538O :  2.25
  733O :  2.25  478O :  2.24  622O :  2.18  310O :  2.15  121O :  2.15  571O :  2.14  316O :  2.07   82O :  2.06  484O :  2.04  469O :  2.04  595O :  2.03  511O :  2.02
  586O :  2.01   85O :  2.01   88O :  1.94  529O :  1.90   61O :  1.90  118O :  1.86  271O :  1.82  532O :  1.79  160O :  1.78  229O :  1.76  634O :  1.75  388O :  1.75
  196O :  1.71  277O :  1.71  193O :  1.69  370O :  1.68  652O :  1.66  377H :  1.65  705H :  1.62  133O :  1.54  565O :  1.53  583O :  1.52  169O :  1.51  433O :  1.48
  329H :  1.48   22O :  1.44   64O :  1.43  700O :  1.42  115O :  1.41   10O :  1.40  691O :  1.38  322O :  1.36  601O :  1.31  145O :  1.28  616O :  1.24  319O :  1.24
  343O :  1.22  215H :  1.21  412O :  1.20  522H :  1.19    7O :  1.18  742O :  1.17  109O :  1.15   75H :  1.14   97O :  1.12  142O :  1.12  706O :  1.09  754O :  1.08
  286O :  1.08   19O :  1.07  336H :  1.05   46O :  1.05  364O :  1.04  356H :  1.02  416H :  1.01  519H :  0.98  269H :  0.96  709O :  0.96  346O :  0.93  153H :  0.92
  499O :  0.91  610O :  0.90  157O :  0.84  698H :  0.83  620H :  0.82   31O :  0.81   51H :  0.81   34O :  0.80  696H :  0.79  181O :  0.79  718O :  0.79  113H :  0.78
  124O :  0.77  163O :  0.76   94O :  0.76  664O :  0.75  362H :  0.74  540H :  0.74  305H :  0.73   55O :  0.73  267H :  0.73  373O :  0.71  424O :  0.71   74H :  0.70
  448O :  0.69  167H :  0.68  332H :  0.68  422H :  0.68  406O :  0.68  687H :  0.68  308H :  0.67  428H :  0.67  453H :  0.67  626H :  0.67  725H :  0.66   70O :  0.66
  218H :  0.66  284H :  0.65  321H :  0.65  728H :  0.64  403O :  0.63   16O :  0.62  402H :  0.60  741H :  0.59  358O :  0.59  389H :  0.59  441H :  0.58  246H :  0.57
  631O :  0.57  210H :  0.57  677H :  0.57  339H :  0.56  669H :  0.55  119H :  0.54  495H :  0.53  594H :  0.53  128H :  0.53  659H :  0.52  475O :  0.52  106O :  0.52
  367O :  0.52  516H :  0.51  749H :  0.51  252H :  0.50  518H :  0.50  263H :  0.49  731H :  0.49  494H :  0.49  580O :  0.48  649O :  0.47  712O :  0.47  531H :  0.45
  237H :  0.45  140H :  0.45  747H :  0.44  272H :  0.44  110H :  0.44  447H :  0.44  675H :  0.43  429H :  0.43  259O :  0.42  149H :  0.42   14H :  0.42   50H :  0.41
   93H :  0.41  606H :  0.41  465H :  0.41  623H :  0.40  276H :  0.40  482H :  0.40  656H :  0.40  314H :  0.39  638H :  0.39  340O :  0.38  507H :  0.38  515H :  0.37
  506H :  0.37  224H :  0.37  570H :  0.37  699H :  0.36  527H :  0.36  159H :  0.35  306H :  0.35  405H :  0.35  585H :  0.34  639H :  0.34  444H :  0.33  137H :  0.33
  228H :  0.33  230H :  0.32  503H :  0.32    8H :  0.31  123H :  0.31  203H :  0.31  372H :  0.31  156H :  0.31  264H :  0.30  258H :  0.30  273H :  0.30  614H :  0.30
  525H :  0.29  212H :  0.29  603H :  0.29  200H :  0.28  704H :  0.28   21H :  0.28  632H :  0.28  312H :  0.28   24H :  0.28  541O :  0.28  627H :  0.27  564H :  0.27
  496O :  0.27  345H :  0.27   29H :  0.27  569H :  0.26   48H :  0.26  545H :  0.26  326H :  0.26  755H :  0.25  609H :  0.25  309H :  0.25  642H :  0.25  171H :  0.24
  597H :  0.23  560H :  0.23  671H :  0.23  663H :  0.23  294H :  0.22  645H :  0.22  173H :  0.22  668H :  0.22  129H :  0.21  501H :  0.21  483H :  0.21   77H :  0.21
  551H :  0.21  348H :  0.21  221H :  0.21  584H :  0.21  413H :  0.21  391O :  0.21  270H :  0.21  467H :  0.20  423H :  0.20  111H :  0.20  152H :  0.20  387H :  0.20
  462H :  0.20   36H :  0.20  247O :  0.19  446H :  0.19  530H :  0.19  653H :  0.19  378H :  0.19   96H :  0.19  695H :  0.19  492H :  0.19  335H :  0.18  354H :  0.18
  285H :  0.18  245H :  0.18  443H :  0.18  116H :  0.18   69H :  0.18  489H :  0.18  317H :  0.18  213H :  0.18  554H :  0.17  593H :  0.17   66H :  0.17  557H :  0.17
  239H :  0.17  578H :  0.17   30H :  0.17  104H :  0.17  587H :  0.17  683H :  0.16    6H :  0.16  624H :  0.16  615H :  0.16  266H :  0.16  680H :  0.16  195H :  0.15
  629H :  0.15  753H :  0.15  205O :  0.15  225H :  0.15  716H :  0.15  185H :  0.14  521H :  0.14  546H :  0.14  201H :  0.14  351H :  0.14  599H :  0.14  338H :  0.14
  618H :  0.14  617H :  0.13  537H :  0.13  498H :  0.13   12H :  0.13   83H :  0.13  552H :  0.13  175O :  0.13  717H :  0.13   60H :  0.13  141H :  0.13  155H :  0.12
  563H :  0.12  386H :  0.12  480H :  0.12  143H :  0.12   18H :  0.12  182H :  0.12  509H :  0.12   59H :  0.12   63H :  0.12  692H :  0.12  566H :  0.11  611H :  0.11
  737H :  0.11  414H :  0.11  222H :  0.11  598O :  0.11  275H :  0.11   20H :  0.11   90H :  0.11  702H :  0.11   84H :  0.11   35H :  0.10  410H :  0.10  608H :  0.10
  474H :  0.10  330H :  0.10  708H :  0.10  621H :  0.10  419H :  0.10  359H :  0.10  641H :  0.10  473H :  0.10  122H :  0.09  735H :  0.09  648H :  0.09  281H :  0.09
  752H :  0.09  398H :  0.09  612H :  0.09  654H :  0.09  452H :  0.09  726H :  0.08  236H :  0.08   68H :  0.08  126H :  0.08  686H :  0.08  188H :  0.08  401H :  0.08
  455H :  0.08   47H :  0.08  450H :  0.08  512H :  0.08  662H :  0.07  299H :  0.07  231H :  0.07  176H :  0.07  183H :  0.07  425H :  0.07  291H :  0.07
    4 LP   *******   0.00  26.75217  24.20419 -13.66972   28O : 19.94  505O : 15.01  643O : 13.09  394O : 12.99  493O : 11.35  457O : 11.06  214O : 11.06  517O : 10.87   73O : 10.78  703O : 10.71  376O : 10.38  283O :  9.89
    4O :  9.74   52O :  9.37  724O :  9.19  535O :  8.96  151O :  8.91  556O :  8.40   37O :  8.38  385O :  8.36  439O :  8.21  166O :  8.02  427O :  7.89  208O :  7.80
  184O :  7.77  328O :  7.52  268O :  7.36  100O :  7.08  520O :  7.00  547O :  6.98  685O :  6.91  289O :  6.89  400O :  6.83  280O :  6.74  460O :  6.69  604O :  6.48
  607O :  6.37  688O :  6.37  472O :  6.36  265O :  6.25   67O :  6.17  697O :  5.99   43O :  5.85  361O :  5.82  748O :  5.73   49O :  5.62  337O :  5.60  574O :  5.59
  487O :  5.58  613O :  5.55  136O :  5.51  679O :  5.49  292O :  5.48  463O :  5.45  235O :  5.44  490O :  5.40   58O :  5.27  418O :  5.22  661O :  5.11  568O :  5.10
  553O :  5.10  559O :  5.09  298O :  5.09   13O :  5.09  139O :  5.06  637O :  5.06  436O :  5.05  658O :  5.00  331O :  5.00   25O :  4.98  442O :  4.92  232O :  4.92
  415O :  4.85  220O :  4.83  694O :  4.81  202O :  4.69  325O :  4.54  655O :  4.42  577O :  4.37  421O :  4.29  256O :  4.22  619O :  4.00  751O :  3.98  514O :  3.95
  127O :  3.92  673O :  3.90  274O :  3.89  334O :  3.85  253O :  3.85  307O :  3.84  625O :  3.82  250O :  3.82  190O :  3.81  640O :  3.76  523O :  3.75  592O :  3.74
  355O :  3.70  670O :  3.68  445O :  3.67  628O :  3.64   40O :  3.62  262O :  3.61  244O :  3.60  430O :  3.60  178O :  3.57  172O :  3.55  199O :  3.55  454O :  3.54
  313O :  3.53  241O :  3.52  451O :  3.49  481O :  3.37  589O :  3.34  226O :  3.34  502O :  3.34  382O :  3.33  211O :  3.30  508O :  3.26  130O :  3.24  112O :  3.23
  526O :  3.19  295O :  3.18  736O :  3.10  304O :  3.09  715O :  3.05  676O :  3.04  745O :  3.04   91O :  2.96  349O :  2.81  730O :  2.77  148O :  2.76  466O :  2.71
  727O :  2.70  721O :  2.67  667O :  2.67  187O :  2.66   76O :  2.66  103O :  2.62  301O :  2.62  352O :  2.59  682O :  2.54  379O :  2.49  739O :  2.45  238O :  2.42
  409O :  2.35  562O :  2.29  544O :  2.27    1O :  2.25  397O :  2.24  646O :  2.23   79O :  2.23  550O :  2.22  223O :  2.22  217O :  2.18  538O :  2.17  733O :  2.17
  478O :  2.17  154O :  2.16  622O :  2.10  310O :  2.07  121O :  2.07  571O :  2.06  316O :  2.00   82O :  1.99  484O :  1.97  595O :  1.96  511O :  1.95  586O :  1.94
   85O :  1.94   88O :  1.88  469O :  1.88  529O :  1.84   61O :  1.82  118O :  1.80  271O :  1.75  532O :  1.73  160O :  1.71  229O :  1.69  634O :  1.69  388O :  1.69
  196O :  1.65  193O :  1.63  370O :  1.62  277O :  1.61  652O :  1.60  377H :  1.59  705H :  1.57  133O :  1.49  565O :  1.48  583O :  1.47  169O :  1.46  433O :  1.43
  329H :  1.43   22O :  1.43   64O :  1.38  700O :  1.37  115O :  1.36   10O :  1.35  691O :  1.34  322O :  1.31  215H :  1.30  601O :  1.27  145O :  1.24  319O :  1.20
  616O :  1.20  343O :  1.19  412O :  1.16  522H :  1.15    7O :  1.14  742O :  1.12  109O :  1.11   75H :  1.10   97O :  1.08  142O :  1.08  706O :  1.05  754O :  1.05
  286O :  1.04   19O :  1.03  336H :  1.02  364O :  1.01  356H :  0.98  416H :  0.97   46O :  0.96  519H :  0.94  269H :  0.93  709O :  0.93  346O :  0.89  422H :  0.89
  153H :  0.89  499O :  0.88  610O :  0.86  157O :  0.81  698H :  0.80  620H :  0.79   31O :  0.78   51H :  0.78   34O :  0.77  696H :  0.77  181O :  0.77  718O :  0.76
  113H :  0.75  124O :  0.74  163O :  0.74   94O :  0.73  664O :  0.72  362H :  0.72  540H :  0.71   55O :  0.71  305H :  0.71  267H :  0.70  373O :  0.69  424O :  0.68
   74H :  0.67  448O :  0.67  167H :  0.66  332H :  0.66  406O :  0.65  687H :  0.65  308H :  0.65  428H :  0.65  453H :  0.65   70O :  0.65  626H :  0.64  725H :  0.64
  218H :  0.64  284H :  0.63  321H :  0.63  728H :  0.61  403O :  0.61   16O :  0.60  402H :  0.58  741H :  0.57  358O :  0.57  389H :  0.57  441H :  0.56  246H :  0.55
  631O :  0.55  210H :  0.55  677H :  0.55  339H :  0.54  669H :  0.53  119H :  0.52  495H :  0.51  594H :  0.51  106O :  0.50  659H :  0.50  475O :  0.50  367O :  0.50
  516H :  0.49  749H :  0.49  252H :  0.48  518H :  0.48  263H :  0.48  731H :  0.47  494H :  0.47  580O :  0.47  649O :  0.46  712O :  0.45  531H :  0.44  237H :  0.43
  140H :  0.43  747H :  0.43  272H :  0.42  110H :  0.42  447H :  0.42  675H :  0.42  429H :  0.41  259O :  0.41  149H :  0.40   14H :  0.40   50H :  0.40   93H :  0.40
  606H :  0.39  465H :  0.39  623H :  0.39  276H :  0.39  482H :  0.39  656H :  0.38  314H :  0.38  638H :  0.37  340O :  0.37  699H :  0.37  507H :  0.37  228H :  0.36
  506H :  0.36  515H :  0.36  224H :  0.36  570H :  0.36  527H :  0.35  159H :  0.34  306H :  0.34  405H :  0.33  585H :  0.33  639H :  0.33  444H :  0.32  137H :  0.32
  128H :  0.31  230H :  0.31  503H :  0.30  123H :  0.30  203H :  0.30  372H :  0.30    8H :  0.30  156H :  0.29  264H :  0.29  258H :  0.29  273H :  0.29  614H :  0.29
  525H :  0.28   24H :  0.28  212H :  0.28  603H :  0.28  200H :  0.27  704H :  0.27   21H :  0.27  632H :  0.27  541O :  0.27  312H :  0.27   48H :  0.27  627H :  0.26
  564H :  0.26  496O :  0.26  345H :  0.26   29H :  0.26  569H :  0.25  545H :  0.25  326H :  0.25  755H :  0.25  609H :  0.24  309H :  0.24  642H :  0.24  171H :  0.23
  597H :  0.23  560H :  0.23  671H :  0.22  663H :  0.22  294H :  0.22  173H :  0.21  668H :  0.21  501H :  0.21  129H :  0.20  483H :  0.20   77H :  0.20  551H :  0.20
  348H :  0.20  221H :  0.20  584H :  0.20  413H :  0.20  391O :  0.20  270H :  0.20  467H :  0.20  111H :  0.20  387H :  0.19  152H :  0.19  462H :  0.19  423H :  0.19
   36H :  0.19  247O :  0.19  446H :  0.19  530H :  0.19  378H :  0.18  653H :  0.18   96H :  0.18  695H :  0.18  492H :  0.18  335H :  0.18  354H :  0.18  285H :  0.18
  245H :  0.17  443H :  0.17  116H :  0.17   69H :  0.17  489H :  0.17  317H :  0.17  213H :  0.17  554H :  0.17  593H :  0.17   66H :  0.17  557H :  0.17  239H :  0.17
  578H :  0.17  645H :  0.16   30H :  0.16  104H :  0.16  587H :  0.16  683H :  0.15    6H :  0.15  624H :  0.15  615H :  0.15  266H :  0.15  680H :  0.15  195H :  0.15
  629H :  0.15  225H :  0.14  205O :  0.14  753H :  0.14  716H :  0.14  185H :  0.14  521H :  0.14  546H :  0.14  201H :  0.14  351H :  0.14  599H :  0.13  338H :  0.13
  618H :  0.13  617H :  0.13  537H :  0.13  498H :  0.13   12H :  0.13   83H :  0.13  552H :  0.12  175O :  0.12  717H :  0.12   60H :  0.12  141H :  0.12  155H :  0.12
  563H :  0.12  386H :  0.12  480H :  0.12  143H :  0.12   18H :  0.12  182H :  0.12  509H :  0.12   59H :  0.12  692H :  0.11   63H :  0.11  566H :  0.11  611H :  0.11
   90H :  0.11  737H :  0.11  414H :  0.11  222H :  0.11  598O :  0.11  275H :  0.11   20H :  0.11  702H :  0.10   84H :  0.10   35H :  0.10  410H :  0.10  608H :  0.10
  474H :  0.10  330H :  0.10  708H :  0.10  621H :  0.10  419H :  0.09  359H :  0.09  648H :  0.09  641H :  0.09  473H :  0.09  216H :  0.09  122H :  0.09  735H :  0.09
  281H :  0.09  398H :  0.09  752H :  0.08  612H :  0.08  654H :  0.08  452H :  0.08  726H :  0.08  236H :  0.08   68H :  0.08  126H :  0.08  686H :  0.08  188H :  0.08
  662H :  0.08  401H :  0.08  455H :  0.08  450H :  0.07  512H :  0.07   47H :  0.07  299H :  0.07  231H :  0.07  176H :  0.07  183H :  0.07
    5 LP   *******   0.00 -55.82135 -34.58023 -10.92489   28O : 18.82  505O : 14.16  283O : 12.63  394O : 12.24  493O : 10.70  457O : 10.43  214O : 10.43  517O : 10.26   73O : 10.17  703O : 10.11  643O :  9.86  376O :  9.79
    4O :  9.19   52O :  8.83  724O :  8.66  535O :  8.45  151O :  8.41  556O :  7.93   37O :  7.90  385O :  7.90  439O :  7.74  166O :  7.56  427O :  7.45  208O :  7.35
  184O :  7.33  328O :  7.09  268O :  6.94  100O :  6.67  520O :  6.60  547O :  6.58  685O :  6.52  289O :  6.49  400O :  6.44  460O :  6.38  280O :  6.35  604O :  6.11
  688O :  6.01  607O :  6.01  472O :  6.00  265O :  5.90   67O :  5.81  697O :  5.64   43O :  5.52  361O :  5.49  748O :  5.40   49O :  5.30  337O :  5.29  574O :  5.27
  487O :  5.26  613O :  5.24  136O :  5.20  679O :  5.18  292O :  5.17  463O :  5.14  235O :  5.13  490O :  5.09   58O :  4.98  418O :  4.93  568O :  4.81  661O :  4.81
  553O :  4.80  298O :  4.80   13O :  4.80  559O :  4.80  139O :  4.77  637O :  4.77  331O :  4.71  658O :  4.71   25O :  4.70  436O :  4.69  442O :  4.64  232O :  4.64
  415O :  4.57  220O :  4.55  694O :  4.54  202O :  4.42  325O :  4.29  655O :  4.17  577O :  4.12  256O :  3.98  421O :  3.88  619O :  3.78  751O :  3.75  253O :  3.73
  514O :  3.73  127O :  3.69  673O :  3.68  274O :  3.67  334O :  3.63  307O :  3.62  625O :  3.61  250O :  3.60  190O :  3.60  640O :  3.55  523O :  3.53  592O :  3.53
  355O :  3.49  670O :  3.47  445O :  3.47  628O :  3.44   40O :  3.42  262O :  3.41  244O :  3.40  430O :  3.39  178O :  3.37  172O :  3.35  199O :  3.34  454O :  3.34
  313O :  3.33  241O :  3.32  451O :  3.29  481O :  3.18  589O :  3.15  502O :  3.15  226O :  3.15  382O :  3.14  211O :  3.12  508O :  3.07  130O :  3.05  112O :  3.04
  526O :  3.01  295O :  3.00  736O :  2.92  304O :  2.91  715O :  2.88  676O :  2.87  745O :  2.86   91O :  2.79  349O :  2.65  730O :  2.61  148O :  2.60  466O :  2.56
  727O :  2.55  721O :  2.52  667O :  2.51  187O :  2.51   76O :  2.50  103O :  2.47  301O :  2.47  352O :  2.45  682O :  2.40  379O :  2.35  739O :  2.31  238O :  2.28
  409O :  2.21  562O :  2.16  544O :  2.14    1O :  2.13  397O :  2.11   79O :  2.11  223O :  2.09  550O :  2.08  646O :  2.06  217O :  2.05  538O :  2.05  733O :  2.05
  478O :  2.04  154O :  2.04  310O :  2.02  622O :  1.98  121O :  1.95  571O :  1.95  316O :  1.88   82O :  1.87  484O :  1.86  469O :  1.86  595O :  1.85  511O :  1.84
  586O :  1.83   88O :  1.77  529O :  1.73   61O :  1.72  118O :  1.70  271O :  1.65  532O :  1.63  160O :  1.62   85O :  1.62  229O :  1.60  634O :  1.59  388O :  1.59
  196O :  1.56  277O :  1.55  193O :  1.54  370O :  1.53  652O :  1.51  377H :  1.50  705H :  1.48  133O :  1.41  565O :  1.40  583O :  1.39  169O :  1.38  433O :  1.35
  329H :  1.34   22O :  1.34   64O :  1.30  700O :  1.29  115O :  1.28   10O :  1.27  691O :  1.26  322O :  1.23  215H :  1.22  601O :  1.20  145O :  1.17  319O :  1.14
  616O :  1.13  343O :  1.13  412O :  1.09  522H :  1.09    7O :  1.08  742O :  1.06  109O :  1.04   75H :  1.04   97O :  1.02  142O :  1.02  706O :  0.99  286O :  0.99
  754O :  0.99   19O :  0.97  336H :  0.96  364O :  0.95  356H :  0.92  416H :  0.92   46O :  0.90  519H :  0.89  269H :  0.88  709O :  0.87  346O :  0.84  153H :  0.84
  499O :  0.83  610O :  0.81  157O :  0.77  698H :  0.76  620H :  0.74   31O :  0.74   51H :  0.74   34O :  0.73  696H :  0.72  181O :  0.72  718O :  0.72  113H :  0.71
  124O :  0.70  163O :  0.69   94O :  0.69  664O :  0.68  362H :  0.68  540H :  0.67  305H :  0.67  267H :  0.66   55O :  0.66  373O :  0.65  424O :  0.65   74H :  0.63
  167H :  0.62  332H :  0.62  422H :  0.62  406O :  0.62  687H :  0.62  308H :  0.61  428H :  0.61  453H :  0.61   70O :  0.61  626H :  0.61  725H :  0.60  218H :  0.60
  321H :  0.59  728H :  0.58  403O :  0.58  448O :  0.57   16O :  0.57  402H :  0.55  741H :  0.54  358O :  0.54  389H :  0.53  441H :  0.53  631O :  0.52  284H :  0.52
  210H :  0.51  677H :  0.51  246H :  0.51  339H :  0.51  669H :  0.50  119H :  0.49  495H :  0.48  594H :  0.48  659H :  0.48  106O :  0.47  475O :  0.47  367O :  0.47
  516H :  0.46  749H :  0.46  252H :  0.45  518H :  0.45  263H :  0.45  731H :  0.45  494H :  0.44  580O :  0.44  649O :  0.43  712O :  0.43  531H :  0.41  237H :  0.41
  140H :  0.41  747H :  0.40  272H :  0.40  110H :  0.40  447H :  0.40  675H :  0.40  429H :  0.39  259O :  0.39  149H :  0.38   14H :  0.38   50H :  0.38   93H :  0.37
  606H :  0.37  465H :  0.37  623H :  0.37  276H :  0.37  482H :  0.37  656H :  0.36  314H :  0.36  638H :  0.35  507H :  0.35  340O :  0.34  228H :  0.34  506H :  0.34
  515H :  0.34  224H :  0.34  570H :  0.34  699H :  0.33  527H :  0.33  159H :  0.32  306H :  0.32  405H :  0.32  585H :  0.31  639H :  0.31  444H :  0.30  137H :  0.30
  128H :  0.30  230H :  0.30  503H :  0.29  123H :  0.28  203H :  0.28  372H :  0.28    8H :  0.28  156H :  0.28  264H :  0.27  258H :  0.27  273H :  0.27  614H :  0.27
  525H :  0.27   24H :  0.26  212H :  0.26  603H :  0.26  312H :  0.26  200H :  0.26  704H :  0.26   21H :  0.26  632H :  0.25  541O :  0.25   48H :  0.25  627H :  0.25
  564H :  0.25  496O :  0.24  345H :  0.24   29H :  0.24  569H :  0.24  545H :  0.24  326H :  0.24  755H :  0.23  609H :  0.23  309H :  0.23  642H :  0.23  171H :  0.22
  597H :  0.21  560H :  0.21  671H :  0.21  663H :  0.21  294H :  0.20  645H :  0.20  668H :  0.20  173H :  0.20  501H :  0.19  129H :  0.19  483H :  0.19   77H :  0.19
  551H :  0.19  348H :  0.19  221H :  0.19  584H :  0.19  413H :  0.19  391O :  0.19  270H :  0.19  467H :  0.19  423H :  0.19  111H :  0.18  387H :  0.18  152H :  0.18
  462H :  0.18   36H :  0.18  446H :  0.18  530H :  0.18  247O :  0.17  653H :  0.17  378H :  0.17   96H :  0.17  695H :  0.17  492H :  0.17  335H :  0.17  354H :  0.17
  443H :  0.16  245H :  0.16  116H :  0.16   69H :  0.16  489H :  0.16  213H :  0.16  317H :  0.16  554H :  0.16  593H :  0.16   66H :  0.16  557H :  0.16  239H :  0.16
  578H :  0.16   30H :  0.15  104H :  0.15  587H :  0.15  683H :  0.14    6H :  0.14  624H :  0.14  615H :  0.14  266H :  0.14  680H :  0.14  195H :  0.14  629H :  0.14
  225H :  0.13  205O :  0.13  753H :  0.13  716H :  0.13  185H :  0.13  521H :  0.13  285H :  0.13  546H :  0.13  351H :  0.13  201H :  0.13  599H :  0.13  338H :  0.12
  618H :  0.12  617H :  0.12  537H :  0.12  498H :  0.12   12H :  0.12   83H :  0.12  717H :  0.12   60H :  0.12  141H :  0.11  155H :  0.11  563H :  0.11  552H :  0.11
  386H :  0.11  480H :  0.11  143H :  0.11   18H :  0.11  182H :  0.11  509H :  0.11  175O :  0.11   59H :  0.11  692H :  0.11   63H :  0.11  566H :  0.10  611H :  0.10
  737H :  0.10  414H :  0.10  222H :  0.10  598O :  0.10  275H :  0.10   20H :  0.10   90H :  0.10  702H :  0.10   84H :  0.10   35H :  0.09  410H :  0.09  608H :  0.09
  474H :  0.09  330H :  0.09  708H :  0.09  621H :  0.09  473H :  0.09  419H :  0.09  359H :  0.09  641H :  0.09  216H :  0.09  122H :  0.08  735H :  0.08  648H :  0.08
  281H :  0.08  398H :  0.08  752H :  0.08  612H :  0.08  654H :  0.08  452H :  0.08  726H :  0.08  236H :  0.08   68H :  0.08  126H :  0.08  686H :  0.07  188H :  0.07
  401H :  0.07  455H :  0.07
    6 LP   *******   0.00  36.67163 -37.35303 -25.61429   28O : 18.80  505O : 14.13  394O : 12.22  493O : 11.81  457O : 10.42  214O : 10.42  517O : 10.24   73O : 10.15  703O : 10.09  643O :  9.85  376O :  9.78  283O :  9.32
    4O :  9.18   52O :  8.83  724O :  8.65  535O :  8.44  151O :  8.40  556O :  7.92   37O :  7.89  385O :  7.89  439O :  7.75  166O :  7.71  427O :  7.47  208O :  7.34
  184O :  7.32  328O :  7.08  268O :  6.93  100O :  6.67  520O :  6.59  547O :  6.57  685O :  6.51  289O :  6.48  400O :  6.43  280O :  6.35  460O :  6.30  604O :  6.11
  688O :  6.00  607O :  6.00  472O :  5.99  265O :  5.89   67O :  5.81  697O :  5.64   43O :  5.52  361O :  5.48  748O :  5.40   49O :  5.30  337O :  5.28  574O :  5.27
  487O :  5.25  613O :  5.23  136O :  5.19  679O :  5.17  292O :  5.16  463O :  5.14  235O :  5.13  490O :  5.09   58O :  4.97  418O :  4.92  568O :  4.81  661O :  4.80
  553O :  4.80  559O :  4.79  298O :  4.79   13O :  4.79  139O :  4.78  637O :  4.76  436O :  4.76  331O :  4.73  658O :  4.71   25O :  4.69  442O :  4.63  232O :  4.63
  415O :  4.57  220O :  4.55  694O :  4.53  202O :  4.41  325O :  4.28  655O :  4.17  577O :  4.11  256O :  3.98  421O :  3.87  619O :  3.77  751O :  3.75  514O :  3.73
  253O :  3.73  127O :  3.69  673O :  3.67  274O :  3.66  307O :  3.66  334O :  3.63  625O :  3.60  250O :  3.60  190O :  3.59  640O :  3.54  523O :  3.53  592O :  3.53
  355O :  3.49  670O :  3.46  445O :  3.46  628O :  3.43   40O :  3.41  262O :  3.40  244O :  3.39  430O :  3.39  178O :  3.36  172O :  3.35  199O :  3.34  454O :  3.34
  313O :  3.33  241O :  3.32  451O :  3.29  481O :  3.18  589O :  3.15  226O :  3.14  502O :  3.14  382O :  3.14  211O :  3.11  508O :  3.07  130O :  3.05  112O :  3.04
  526O :  3.00  295O :  3.00  736O :  2.92  304O :  2.91  715O :  2.87  745O :  2.86  676O :  2.86   91O :  2.79  349O :  2.65  730O :  2.61  148O :  2.60  466O :  2.56
  727O :  2.55  721O :  2.51  667O :  2.51  187O :  2.51   76O :  2.50  301O :  2.47  103O :  2.47  352O :  2.44  682O :  2.39  379O :  2.35  739O :  2.31  238O :  2.28
  409O :  2.21  562O :  2.16  544O :  2.14    1O :  2.12  397O :  2.11   79O :  2.10  550O :  2.09  223O :  2.09  646O :  2.06  217O :  2.05  538O :  2.04  733O :  2.04
  478O :  2.04  154O :  2.04  310O :  1.95  571O :  1.94  121O :  1.93  622O :  1.90  316O :  1.88  484O :  1.86  469O :  1.86  595O :  1.85   82O :  1.84  511O :  1.84
  586O :  1.83   85O :  1.83   88O :  1.76  529O :  1.73   61O :  1.72  118O :  1.69  271O :  1.65  532O :  1.63  160O :  1.62  229O :  1.60  634O :  1.59  388O :  1.59
  196O :  1.56  277O :  1.55  193O :  1.54  370O :  1.53  652O :  1.51  377H :  1.50  705H :  1.48  133O :  1.40  565O :  1.39  169O :  1.38  583O :  1.37  433O :  1.35
  700O :  1.35  329H :  1.34   22O :  1.34   64O :  1.30  115O :  1.28   10O :  1.27  691O :  1.26  322O :  1.23  215H :  1.22  601O :  1.19  145O :  1.17  319O :  1.13
  616O :  1.13  343O :  1.12  412O :  1.09  522H :  1.09    7O :  1.07  742O :  1.06  109O :  1.04   75H :  1.04   97O :  1.02  142O :  1.02  706O :  0.99  754O :  0.99
  286O :  0.98   19O :  0.97  336H :  0.96  364O :  0.95  356H :  0.92  416H :  0.92   46O :  0.90  519H :  0.89  269H :  0.88  709O :  0.87  346O :  0.84  153H :  0.84
  499O :  0.83  610O :  0.81  157O :  0.77  698H :  0.76  620H :  0.74   31O :  0.74   51H :  0.74   34O :  0.73  696H :  0.72  181O :  0.72  718O :  0.72  124O :  0.71
  113H :  0.71  167H :  0.70  163O :  0.69   94O :  0.69  664O :  0.68  362H :  0.68  540H :  0.67   55O :  0.67  305H :  0.67  267H :  0.66  373O :  0.65  424O :  0.65
   74H :  0.63  448O :  0.63  308H :  0.63  332H :  0.62  422H :  0.62  406O :  0.62  687H :  0.61  428H :  0.61  453H :  0.61   70O :  0.61  626H :  0.61  725H :  0.60
  218H :  0.60  284H :  0.60  321H :  0.59  728H :  0.58  403O :  0.58   16O :  0.57  402H :  0.55  741H :  0.54  358O :  0.54  389H :  0.53  441H :  0.53  246H :  0.52
  631O :  0.52  210H :  0.51  677H :  0.51  339H :  0.51  669H :  0.50  119H :  0.49  594H :  0.48  659H :  0.48  106O :  0.47  475O :  0.47  367O :  0.47  516H :  0.46
  749H :  0.46  252H :  0.45  518H :  0.45  731H :  0.45  263H :  0.44  580O :  0.44  649O :  0.43  712O :  0.42  531H :  0.41  237H :  0.41  140H :  0.41  495H :  0.41
  747H :  0.40  429H :  0.40  272H :  0.40  110H :  0.40  447H :  0.40  675H :  0.40  259O :  0.38  149H :  0.38   14H :  0.38   50H :  0.38   93H :  0.37  606H :  0.37
  465H :  0.37  276H :  0.37  623H :  0.37  494H :  0.37  482H :  0.37  656H :  0.36  314H :  0.35  638H :  0.35  506H :  0.35  340O :  0.35  507H :  0.34  228H :  0.34
  515H :  0.34  224H :  0.34  570H :  0.34  699H :  0.33  527H :  0.33  159H :  0.32  306H :  0.32  405H :  0.32  639H :  0.31  585H :  0.31  444H :  0.30  137H :  0.30
  128H :  0.30  230H :  0.29  503H :  0.29  123H :  0.28  264H :  0.28  203H :  0.28  372H :  0.28    8H :  0.28  156H :  0.28  258H :  0.27  273H :  0.27  614H :  0.27
  525H :  0.27   24H :  0.26  212H :  0.26  603H :  0.26  200H :  0.26  704H :  0.26   21H :  0.26  632H :  0.25  312H :  0.25  541O :  0.25   48H :  0.25  627H :  0.25
  564H :  0.25  496O :  0.24  345H :  0.24   29H :  0.24  569H :  0.24  545H :  0.24  309H :  0.24  326H :  0.24  755H :  0.23  609H :  0.23  642H :  0.23  171H :  0.22
  597H :  0.21  560H :  0.21  671H :  0.21  663H :  0.21  294H :  0.20  645H :  0.20  173H :  0.20  668H :  0.20  501H :  0.19  129H :  0.19  483H :  0.19   77H :  0.19
  551H :  0.19  348H :  0.19  584H :  0.19  221H :  0.19  413H :  0.19  391O :  0.19  270H :  0.19  467H :  0.19  423H :  0.19  111H :  0.18  152H :  0.18  387H :  0.18
  462H :  0.18   36H :  0.18  247O :  0.18  446H :  0.18  530H :  0.18  653H :  0.17  378H :  0.17   96H :  0.17  695H :  0.17  492H :  0.17  335H :  0.17  354H :  0.17
  285H :  0.17  245H :  0.16  443H :  0.16  116H :  0.16   69H :  0.16  489H :  0.16  213H :  0.16  317H :  0.16  554H :  0.16  593H :  0.16   66H :  0.16  557H :  0.16
  239H :  0.16  578H :  0.16   30H :  0.15  104H :  0.15  587H :  0.15  683H :  0.14    6H :  0.14  615H :  0.14  266H :  0.14  680H :  0.14  624H :  0.14  195H :  0.14
  629H :  0.14  225H :  0.13  205O :  0.13  753H :  0.13  716H :  0.13  185H :  0.13  521H :  0.13  546H :  0.13  351H :  0.13  201H :  0.13   83H :  0.13  599H :  0.13
  338H :  0.12  618H :  0.12  617H :  0.12  537H :  0.12  498H :  0.12   12H :  0.12  552H :  0.12  175O :  0.12  717H :  0.12   60H :  0.12  155H :  0.11  141H :  0.11
  563H :  0.11  386H :  0.11  480H :  0.11  143H :  0.11   18H :  0.11  182H :  0.11  509H :  0.11   59H :  0.11  692H :  0.11   63H :  0.11  566H :  0.10  611H :  0.10
  702H :  0.10  737H :  0.10  414H :  0.10  222H :  0.10  598O :  0.10  275H :  0.10   84H :  0.10   20H :  0.10   90H :  0.10   35H :  0.09  410H :  0.09  608H :  0.09
  474H :  0.09  330H :  0.09  708H :  0.09  621H :  0.09  419H :  0.09  359H :  0.09  641H :  0.09  473H :  0.09  216H :  0.09  122H :  0.08  735H :  0.08  648H :  0.08
  281H :  0.08  752H :  0.08  398H :  0.08  612H :  0.08  654H :  0.08  452H :  0.08  726H :  0.08  236H :  0.08   68H :  0.08  126H :  0.08  686H :  0.07  188H :  0.07
  401H :  0.07  455H :  0.07
    7 LP   *******   0.00   1.75460   5.80635   3.28962   28O : 18.74  505O : 13.47  394O : 11.64  493O : 10.18  457O :  9.93  214O :  9.93  517O :  9.75   73O :  9.67  703O :  9.62  643O :  9.37  376O :  9.34  283O :  8.87
    4O :  8.74   52O :  8.41  724O :  8.24  535O :  8.04  151O :  8.00  556O :  7.54   37O :  7.52  385O :  7.51  439O :  7.37  166O :  7.19  427O :  7.08  208O :  7.00
  184O :  6.97  328O :  6.75  268O :  6.60  100O :  6.34  520O :  6.28  547O :  6.26  685O :  6.20  289O :  6.17  400O :  6.13  280O :  6.05  460O :  6.00  604O :  5.81
  688O :  5.72  607O :  5.71  472O :  5.70  265O :  5.61   67O :  5.53  697O :  5.37   43O :  5.26  361O :  5.22  748O :  5.14   49O :  5.04  337O :  5.01  574O :  5.01
  487O :  5.00  613O :  4.98  136O :  4.94  679O :  4.93  292O :  4.91  463O :  4.89  235O :  4.88  490O :  4.85   58O :  4.73  418O :  4.68  568O :  4.58  661O :  4.57
  553O :  4.57  559O :  4.57   13O :  4.57  139O :  4.54  637O :  4.54  436O :  4.53  298O :  4.50  658O :  4.49  331O :  4.48   25O :  4.47  232O :  4.42  442O :  4.41
  415O :  4.35  220O :  4.33  694O :  4.25  202O :  4.20  325O :  4.08  655O :  3.96  577O :  3.92  256O :  3.79  421O :  3.69  619O :  3.59  751O :  3.57  253O :  3.55
  514O :  3.54  127O :  3.51  673O :  3.50  274O :  3.49  334O :  3.45  307O :  3.45  625O :  3.43  250O :  3.43  190O :  3.42  640O :  3.37  592O :  3.36  523O :  3.36
  355O :  3.32  445O :  3.30  670O :  3.30  628O :  3.27   40O :  3.25  262O :  3.24  244O :  3.23  430O :  3.23  178O :  3.20  172O :  3.19  454O :  3.18  313O :  3.17
  241O :  3.16  199O :  3.15  451O :  3.13  481O :  3.03  589O :  3.00  226O :  2.99  502O :  2.99  382O :  2.99  211O :  2.96  508O :  2.92  130O :  2.90  112O :  2.90
  526O :  2.86  295O :  2.85  736O :  2.78  304O :  2.77  715O :  2.77  676O :  2.73  745O :  2.72   91O :  2.66  349O :  2.52  730O :  2.48  148O :  2.47  466O :  2.43
  727O :  2.42  721O :  2.39  667O :  2.39  187O :  2.39   76O :  2.38  103O :  2.35  301O :  2.35  352O :  2.33  682O :  2.28  379O :  2.23  739O :  2.20  238O :  2.17
  409O :  2.10  562O :  2.05  544O :  2.04    1O :  2.02  397O :  2.01   79O :  2.00  550O :  1.99  223O :  1.99  646O :  1.96  538O :  1.95  733O :  1.95  478O :  1.94
  154O :  1.94  217O :  1.93  622O :  1.88  121O :  1.86  310O :  1.86  571O :  1.85  316O :  1.79   82O :  1.78  469O :  1.77  484O :  1.77  595O :  1.76  511O :  1.75
  586O :  1.74   85O :  1.74   88O :  1.68  529O :  1.65   61O :  1.64  118O :  1.61  271O :  1.57  532O :  1.55  229O :  1.52  634O :  1.52  160O :  1.52  388O :  1.52
  196O :  1.48  277O :  1.48  193O :  1.47  370O :  1.45  652O :  1.44  377H :  1.42  705H :  1.41  133O :  1.34  583O :  1.32  565O :  1.32  169O :  1.31  433O :  1.28
  329H :  1.28   22O :  1.28   64O :  1.24  700O :  1.23  115O :  1.22   10O :  1.21  691O :  1.20  322O :  1.17  215H :  1.16  601O :  1.14  145O :  1.11  319O :  1.08
  616O :  1.07  343O :  1.07  412O :  1.04  522H :  1.03    7O :  1.02  742O :  1.01  109O :  0.99   75H :  0.99  142O :  0.97   97O :  0.96  706O :  0.94  754O :  0.94
  286O :  0.94   19O :  0.92  336H :  0.91  364O :  0.88  356H :  0.88  416H :  0.87   46O :  0.86  519H :  0.85  269H :  0.83  709O :  0.83  346O :  0.80  153H :  0.80
  499O :  0.79  610O :  0.77  157O :  0.73  698H :  0.72  620H :  0.71   31O :  0.70   51H :  0.70  181O :  0.69   34O :  0.69  718O :  0.69  696H :  0.68  124O :  0.67
  113H :  0.67  218H :  0.67  163O :  0.66   94O :  0.66  664O :  0.65  362H :  0.64  540H :  0.64   55O :  0.64  305H :  0.63  267H :  0.63  373O :  0.62  424O :  0.61
   74H :  0.60  448O :  0.60  167H :  0.59  332H :  0.59  422H :  0.59  406O :  0.59  687H :  0.59  308H :  0.58  428H :  0.58  453H :  0.58   70O :  0.58  626H :  0.58
  725H :  0.58  284H :  0.57  321H :  0.56  728H :  0.55  403O :  0.55   16O :  0.54  402H :  0.52  741H :  0.51  358O :  0.51  389H :  0.51  441H :  0.50  246H :  0.50
  631O :  0.49  210H :  0.49  677H :  0.49  339H :  0.48  669H :  0.47  119H :  0.47  495H :  0.46  594H :  0.46  659H :  0.45  106O :  0.45  475O :  0.45  367O :  0.45
  516H :  0.44  749H :  0.44  252H :  0.43  518H :  0.43  263H :  0.43  731H :  0.42  494H :  0.42  580O :  0.42  649O :  0.41  712O :  0.40  531H :  0.39  237H :  0.39
  140H :  0.39  747H :  0.38  110H :  0.38  272H :  0.38  447H :  0.38  675H :  0.38  429H :  0.37  259O :  0.37  149H :  0.36   14H :  0.36   50H :  0.36   93H :  0.36
  606H :  0.35  465H :  0.35  623H :  0.35  276H :  0.35  482H :  0.35  656H :  0.34  314H :  0.34  638H :  0.33  340O :  0.33  507H :  0.33  228H :  0.32  506H :  0.32
  515H :  0.32  224H :  0.32  570H :  0.32  699H :  0.32  527H :  0.31  159H :  0.30  306H :  0.30  405H :  0.30  585H :  0.29  639H :  0.29  444H :  0.29  137H :  0.28
  128H :  0.28  230H :  0.28   29H :  0.28  503H :  0.27  123H :  0.27  203H :  0.27  372H :  0.27    8H :  0.27  156H :  0.26  264H :  0.26  258H :  0.26  273H :  0.26
  614H :  0.26  525H :  0.25   24H :  0.25  212H :  0.25  603H :  0.25  200H :  0.25  704H :  0.24   21H :  0.24  632H :  0.24  312H :  0.24  541O :  0.24   48H :  0.24
  627H :  0.23  564H :  0.23  496O :  0.23  345H :  0.23  569H :  0.23  545H :  0.23  326H :  0.22  755H :  0.22  609H :  0.22  309H :  0.22  642H :  0.22  171H :  0.21
  597H :  0.20  560H :  0.20  671H :  0.20  663H :  0.20  294H :  0.19  645H :  0.19  173H :  0.19  668H :  0.19   30H :  0.19  501H :  0.18  129H :  0.18   77H :  0.18
  483H :  0.18  551H :  0.18  221H :  0.18  348H :  0.18  584H :  0.18  413H :  0.18  391O :  0.18  270H :  0.18  467H :  0.18  423H :  0.18  111H :  0.18  387H :  0.17
  152H :  0.17  462H :  0.17  695H :  0.17  247O :  0.17  446H :  0.17  530H :  0.17  653H :  0.17  378H :  0.16   36H :  0.16   96H :  0.16  492H :  0.16  335H :  0.16
  354H :  0.16  285H :  0.16  245H :  0.15  443H :  0.15  116H :  0.15   69H :  0.15  489H :  0.15  317H :  0.15  213H :  0.15  554H :  0.15  593H :  0.15  557H :  0.15
   66H :  0.15  239H :  0.15  578H :  0.15  104H :  0.15  587H :  0.14  683H :  0.14    6H :  0.14  624H :  0.14  615H :  0.14  266H :  0.14  680H :  0.14  195H :  0.13
  629H :  0.13  225H :  0.13  205O :  0.13  753H :  0.13  185H :  0.12  521H :  0.12  546H :  0.12  201H :  0.12  351H :  0.12  599H :  0.12  338H :  0.12  618H :  0.12
  617H :  0.12  537H :  0.12  498H :  0.12   12H :  0.11   83H :  0.11  717H :  0.11  552H :  0.11  175O :  0.11   60H :  0.11  141H :  0.11  155H :  0.11  563H :  0.11
  386H :  0.11  480H :  0.11  143H :  0.11   18H :  0.10  182H :  0.10   59H :  0.10  509H :  0.10  692H :  0.10   63H :  0.10  566H :  0.10  611H :  0.10  737H :  0.10
  414H :  0.10  222H :  0.10  598O :  0.10  275H :  0.10   20H :  0.09   90H :  0.09  702H :  0.09   84H :  0.09  410H :  0.09   35H :  0.09  608H :  0.09  474H :  0.09
  330H :  0.09  708H :  0.09  716H :  0.09  621H :  0.09  419H :  0.08  359H :  0.08  641H :  0.08  473H :  0.08  216H :  0.08  122H :  0.08  735H :  0.08  648H :  0.08
  281H :  0.08  752H :  0.08  398H :  0.08  612H :  0.08  654H :  0.08  452H :  0.07  726H :  0.07  236H :  0.07   68H :  0.07  126H :  0.07
    8 LP   *******   0.00  -0.12711  16.26759 -26.76300   28O : 17.04  505O : 12.83  376O : 11.23  394O : 11.09  493O :  9.70  457O :  9.45  214O :  9.42  517O :  9.29   73O :  9.21  703O :  9.16  643O :  8.94  283O :  8.45
    4O :  8.33   52O :  8.01  724O :  7.85  535O :  7.65  151O :  7.62  556O :  7.18   37O :  7.16  385O :  7.15  439O :  7.01  166O :  6.85  427O :  6.74  208O :  6.66
  184O :  6.64  328O :  6.34  268O :  6.29  100O :  6.05  520O :  5.98  547O :  5.96  685O :  5.91  289O :  5.89  400O :  5.84  280O :  5.76  460O :  5.72  604O :  5.54
  688O :  5.45  607O :  5.44  472O :  5.43  265O :  5.34   67O :  5.27  697O :  5.11   43O :  5.01  361O :  4.97  748O :  4.88   49O :  4.80  337O :  4.79  574O :  4.77
  487O :  4.76  613O :  4.74  136O :  4.71  679O :  4.69  292O :  4.68  463O :  4.66  235O :  4.65  490O :  4.61   58O :  4.50  418O :  4.46  568O :  4.36  661O :  4.36
  553O :  4.35  298O :  4.35  559O :  4.35   13O :  4.35  139O :  4.32  637O :  4.32  436O :  4.31  331O :  4.27   25O :  4.25  658O :  4.24  442O :  4.20  232O :  4.20
  415O :  4.14  220O :  4.12  694O :  4.11  202O :  4.00  325O :  3.88  655O :  3.78  577O :  3.73  256O :  3.61  421O :  3.51  619O :  3.42  751O :  3.40  514O :  3.38
  253O :  3.37  673O :  3.33  274O :  3.32  127O :  3.29  334O :  3.29  307O :  3.28  625O :  3.27  190O :  3.26  250O :  3.25  640O :  3.21  592O :  3.20  523O :  3.20
  355O :  3.17  670O :  3.14  445O :  3.14  628O :  3.11   40O :  3.09  262O :  3.09  244O :  3.08  430O :  3.07  178O :  3.05  199O :  3.04  172O :  3.04  454O :  3.02
  313O :  3.02  241O :  3.01  451O :  2.98  481O :  2.88  589O :  2.86  502O :  2.85  226O :  2.85  382O :  2.84  211O :  2.82  508O :  2.78  130O :  2.76  112O :  2.76
  526O :  2.72  295O :  2.72  736O :  2.65  304O :  2.64  715O :  2.61  676O :  2.60  745O :  2.59   91O :  2.53  349O :  2.40  730O :  2.36  148O :  2.35  466O :  2.32
  727O :  2.31  721O :  2.28  667O :  2.28  187O :  2.27   76O :  2.27  103O :  2.24  301O :  2.24  352O :  2.22  682O :  2.17  379O :  2.13  739O :  2.09  238O :  2.06
  409O :  2.00  562O :  1.96  544O :  1.94    1O :  1.92  397O :  1.91   79O :  1.91  550O :  1.90  223O :  1.89  646O :  1.87  733O :  1.85  478O :  1.85  217O :  1.85
  538O :  1.85  622O :  1.79  154O :  1.79  310O :  1.77  121O :  1.77  571O :  1.76  316O :  1.71   82O :  1.70  484O :  1.69  469O :  1.68  595O :  1.68  511O :  1.67
  586O :  1.66   85O :  1.66   88O :  1.60   61O :  1.59  529O :  1.57  118O :  1.54  271O :  1.50  532O :  1.48  160O :  1.47  229O :  1.45  388O :  1.45  634O :  1.44
  196O :  1.41  277O :  1.41  193O :  1.40  370O :  1.38  652O :  1.37  705H :  1.34  133O :  1.27  565O :  1.27  583O :  1.26  169O :  1.25  329H :  1.23  433O :  1.22
   22O :  1.22  377H :  1.22   64O :  1.18  700O :  1.17  115O :  1.16   10O :  1.15  691O :  1.14  322O :  1.12  215H :  1.11  601O :  1.08  145O :  1.06  319O :  1.03
  616O :  1.02  343O :  1.02  412O :  0.99  522H :  0.98    7O :  0.98  742O :  0.96  109O :  0.95   75H :  0.94   97O :  0.92  142O :  0.92  706O :  0.90  754O :  0.89
  286O :  0.89   19O :  0.88  336H :  0.87  364O :  0.86  356H :  0.84  416H :  0.83   46O :  0.82  519H :  0.81  269H :  0.79  709O :  0.79  346O :  0.76  153H :  0.76
  499O :  0.75  610O :  0.74  157O :  0.69  698H :  0.68  620H :  0.67   31O :  0.67   51H :  0.67   34O :  0.66  696H :  0.65  181O :  0.65  113H :  0.64  718O :  0.63
  124O :  0.63  163O :  0.63   94O :  0.62  664O :  0.61  362H :  0.61  540H :  0.61   55O :  0.61  305H :  0.60  267H :  0.60  373O :  0.59  424O :  0.59   74H :  0.57
  448O :  0.57  167H :  0.56  332H :  0.56  422H :  0.56  406O :  0.56  687H :  0.56  308H :  0.56  428H :  0.56  453H :  0.55   70O :  0.55  626H :  0.55  725H :  0.55
  321H :  0.54  284H :  0.54  218H :  0.54  728H :  0.52  403O :  0.52   16O :  0.51  402H :  0.50  741H :  0.49  358O :  0.49  389H :  0.48  441H :  0.48  246H :  0.47
  631O :  0.47  210H :  0.47  677H :  0.47  339H :  0.46  669H :  0.45  119H :  0.45  495H :  0.44  594H :  0.44  106O :  0.43  475O :  0.43  367O :  0.43  749H :  0.42
  516H :  0.42  659H :  0.41  518H :  0.41  252H :  0.41  263H :  0.41  731H :  0.40  494H :  0.40  580O :  0.40  649O :  0.39  712O :  0.39  531H :  0.37  237H :  0.37
  140H :  0.37  747H :  0.37  272H :  0.36  447H :  0.36  110H :  0.36  675H :  0.36  429H :  0.35  259O :  0.35  149H :  0.35   14H :  0.34   50H :  0.34   93H :  0.34
  606H :  0.34  465H :  0.34  623H :  0.33  276H :  0.33  482H :  0.33  656H :  0.33  314H :  0.32  638H :  0.32  340O :  0.31  507H :  0.31  228H :  0.31  506H :  0.31
  515H :  0.31  224H :  0.30  570H :  0.30  699H :  0.30  527H :  0.30  159H :  0.29  306H :  0.29  405H :  0.29  585H :  0.28  639H :  0.28  128H :  0.28  444H :  0.27
  137H :  0.27  230H :  0.27  503H :  0.26  123H :  0.26  203H :  0.26  372H :  0.25    8H :  0.25  264H :  0.25  258H :  0.25  273H :  0.25  614H :  0.24  525H :  0.24
   24H :  0.24  212H :  0.24  156H :  0.24  603H :  0.24  200H :  0.23  704H :  0.23   21H :  0.23  632H :  0.23  312H :  0.23  541O :  0.23   48H :  0.23  627H :  0.22
  564H :  0.22  496O :  0.22  345H :  0.22   29H :  0.22  569H :  0.22  545H :  0.21  326H :  0.21  755H :  0.21  609H :  0.21  309H :  0.21  642H :  0.21  171H :  0.20
  597H :  0.19  560H :  0.19  671H :  0.19  663H :  0.19  294H :  0.19  645H :  0.18  173H :  0.18  668H :  0.18  501H :  0.18  483H :  0.17   77H :  0.17  129H :  0.17
  551H :  0.17  348H :  0.17  221H :  0.17  584H :  0.17  413H :  0.17  387H :  0.17  391O :  0.17  270H :  0.17  467H :  0.17  423H :  0.17  111H :  0.17  152H :  0.17
  462H :  0.16   36H :  0.16  247O :  0.16  446H :  0.16  530H :  0.16  653H :  0.16   96H :  0.15  695H :  0.15  492H :  0.15  335H :  0.15  354H :  0.15  285H :  0.15
  245H :  0.15  443H :  0.15  116H :  0.15   69H :  0.15  489H :  0.14  317H :  0.14  213H :  0.14  593H :  0.14  554H :  0.14   66H :  0.14  557H :  0.14  239H :  0.14
  578H :  0.14   30H :  0.14  104H :  0.14  587H :  0.14  683H :  0.13    6H :  0.13  624H :  0.13  615H :  0.13  266H :  0.13  680H :  0.13  195H :  0.13  629H :  0.13
  225H :  0.12  205O :  0.12  753H :  0.12  716H :  0.12  185H :  0.12  521H :  0.12  546H :  0.12  378H :  0.12  351H :  0.12  201H :  0.12  599H :  0.11  338H :  0.11
  618H :  0.11  617H :  0.11  537H :  0.11  498H :  0.11   12H :  0.11   83H :  0.11  155H :  0.11  552H :  0.11  175O :  0.11  717H :  0.11   60H :  0.10  141H :  0.10
  563H :  0.10  480H :  0.10  386H :  0.10  143H :  0.10   18H :  0.10  182H :  0.10  509H :  0.10   59H :  0.10  692H :  0.10  566H :  0.09  611H :  0.09   63H :  0.09
  737H :  0.09  414H :  0.09  222H :  0.09  598O :  0.09  275H :  0.09   20H :  0.09   90H :  0.09  702H :  0.09   84H :  0.09  330H :  0.09   35H :  0.09  410H :  0.09
  608H :  0.09  474H :  0.08  708H :  0.08  621H :  0.08  419H :  0.08  359H :  0.08  641H :  0.08  473H :  0.08  216H :  0.08  122H :  0.08  735H :  0.08  648H :  0.07
  281H :  0.07  752H :  0.07  398H :  0.07  612H :  0.07  654H :  0.07  452H :  0.07
    9 LP   *******   0.00  60.24287  -3.63259  -3.13283   28O : 16.92  505O : 12.72  394O : 12.62  493O :  9.62  457O :  9.38  214O :  9.38  517O :  9.22   73O :  9.14  703O :  9.08  643O :  8.87  376O :  8.80  283O :  8.39
    4O :  8.26   52O :  7.95  724O :  7.80  535O :  7.59  151O :  7.56  556O :  7.13   37O :  7.10  385O :  7.10  439O :  6.96  166O :  6.79  427O :  6.69  208O :  6.61
  184O :  6.59  328O :  6.38  268O :  6.24  100O :  5.99  520O :  5.93  547O :  5.92  685O :  5.86  289O :  5.83  400O :  5.79  280O :  5.71  460O :  5.67  688O :  5.42
  472O :  5.39  604O :  5.32  265O :  5.28   67O :  5.23  607O :  5.11  697O :  5.08   43O :  4.97  361O :  4.93  748O :  4.86   49O :  4.77  337O :  4.75  574O :  4.74
  487O :  4.73  613O :  4.69  136O :  4.66  679O :  4.66  292O :  4.64  463O :  4.62  235O :  4.61  490O :  4.58   58O :  4.47  418O :  4.43  568O :  4.33  553O :  4.32
  298O :  4.32  661O :  4.32  559O :  4.32   13O :  4.31  139O :  4.29  436O :  4.28  637O :  4.27  658O :  4.24  331O :  4.24   25O :  4.22  232O :  4.17  442O :  4.15
  415O :  4.12  220O :  4.09  694O :  4.08  202O :  3.97  325O :  3.85  655O :  3.75  577O :  3.70  256O :  3.58  421O :  3.49  619O :  3.39  751O :  3.37  253O :  3.35
  514O :  3.35  127O :  3.32  673O :  3.31  274O :  3.29  334O :  3.26  307O :  3.26  625O :  3.24  250O :  3.24  190O :  3.23  640O :  3.19  523O :  3.18  592O :  3.17
  355O :  3.14  670O :  3.12  445O :  3.12  628O :  3.09   40O :  3.07  262O :  3.06  244O :  3.05  430O :  3.05  178O :  3.03  172O :  3.01  199O :  3.00  454O :  3.00
  313O :  3.00  241O :  2.99  451O :  2.96  481O :  2.86  589O :  2.83  226O :  2.83  502O :  2.83  382O :  2.82  211O :  2.80  508O :  2.76  130O :  2.74  112O :  2.74
  526O :  2.70  295O :  2.69  736O :  2.63  304O :  2.62  715O :  2.59  676O :  2.58  745O :  2.57   91O :  2.51  349O :  2.38  730O :  2.34  148O :  2.34  466O :  2.30
  727O :  2.29  721O :  2.27  667O :  2.26  187O :  2.26   76O :  2.25  103O :  2.22  301O :  2.21  352O :  2.19  682O :  2.15  379O :  2.11  739O :  2.08  238O :  2.05
  409O :  1.99  562O :  1.94  544O :  1.93    1O :  1.91  397O :  1.90   79O :  1.89  550O :  1.88  223O :  1.88  646O :  1.85  217O :  1.84  538O :  1.84  733O :  1.84
  478O :  1.84  154O :  1.83  622O :  1.78  121O :  1.76  310O :  1.76  571O :  1.75  316O :  1.69   82O :  1.68  484O :  1.67  469O :  1.67  595O :  1.66  511O :  1.66
  586O :  1.65   85O :  1.64   88O :  1.59  271O :  1.57  529O :  1.56   61O :  1.55  118O :  1.53  532O :  1.47  160O :  1.46  229O :  1.44  634O :  1.43  388O :  1.43
  196O :  1.40  277O :  1.39  193O :  1.39  370O :  1.37  652O :  1.36  377H :  1.35  705H :  1.33  133O :  1.26  565O :  1.26  583O :  1.25  169O :  1.24  433O :  1.21
   22O :  1.21  329H :  1.21   64O :  1.17  700O :  1.16  115O :  1.15   10O :  1.15  691O :  1.13  322O :  1.11  215H :  1.10  601O :  1.07  145O :  1.05  319O :  1.02
  616O :  1.02  343O :  1.01  412O :  0.98  522H :  0.98    7O :  0.97  742O :  0.95  109O :  0.94   75H :  0.93   97O :  0.92  142O :  0.91  706O :  0.89  754O :  0.89
  286O :  0.89   19O :  0.86  336H :  0.86  364O :  0.85  356H :  0.83  416H :  0.82   46O :  0.81  519H :  0.80  269H :  0.79  709O :  0.79  346O :  0.76  153H :  0.76
  499O :  0.75  610O :  0.73  157O :  0.69  698H :  0.68  620H :  0.67   31O :  0.66   51H :  0.66   34O :  0.66  181O :  0.65  696H :  0.65  718O :  0.65  113H :  0.63
  124O :  0.63  163O :  0.62   94O :  0.62  664O :  0.61  362H :  0.61  540H :  0.61   55O :  0.60  305H :  0.60  267H :  0.60  373O :  0.58  424O :  0.58   74H :  0.57
  448O :  0.56  167H :  0.56  422H :  0.56  332H :  0.56  406O :  0.55  687H :  0.55  308H :  0.55  428H :  0.55  725H :  0.55  453H :  0.55   70O :  0.55  626H :  0.55
  218H :  0.54  284H :  0.54  321H :  0.53  728H :  0.52  403O :  0.52   16O :  0.51  402H :  0.50  741H :  0.49  358O :  0.48  389H :  0.48  441H :  0.48  246H :  0.47
  631O :  0.46  210H :  0.46  677H :  0.46  339H :  0.46  669H :  0.45  119H :  0.44  495H :  0.43  594H :  0.43  659H :  0.43  475O :  0.43  106O :  0.42  367O :  0.42
  516H :  0.42  749H :  0.42  252H :  0.41  518H :  0.41  263H :  0.40  731H :  0.40  272H :  0.40  494H :  0.40  580O :  0.40  649O :  0.39  712O :  0.38  531H :  0.37
  237H :  0.37  140H :  0.36  747H :  0.36  110H :  0.36  447H :  0.36  675H :  0.36  429H :  0.35  259O :  0.35  149H :  0.34   14H :  0.34  606H :  0.34   50H :  0.34
   93H :  0.34  465H :  0.33  623H :  0.33  482H :  0.33  276H :  0.33  656H :  0.32  314H :  0.32  638H :  0.32  340O :  0.31  507H :  0.31  228H :  0.31  515H :  0.30
  506H :  0.30  224H :  0.30  570H :  0.30  699H :  0.30  527H :  0.29  159H :  0.28  306H :  0.28  405H :  0.28  585H :  0.28  639H :  0.28  444H :  0.27  137H :  0.27
  128H :  0.27  230H :  0.27  503H :  0.26  123H :  0.25  203H :  0.25  372H :  0.25    8H :  0.25  156H :  0.25  273H :  0.25  264H :  0.25  258H :  0.24  614H :  0.24
  525H :  0.24   24H :  0.24  212H :  0.24  603H :  0.23  200H :  0.23  704H :  0.23   21H :  0.23  541O :  0.23  632H :  0.23  312H :  0.23   48H :  0.22  564H :  0.22
  627H :  0.22  496O :  0.22  345H :  0.22   29H :  0.22  569H :  0.22  545H :  0.21  326H :  0.21  609H :  0.21  755H :  0.21  309H :  0.21  642H :  0.20  171H :  0.20
  597H :  0.19  560H :  0.19  671H :  0.19  663H :  0.19  294H :  0.18  645H :  0.18  173H :  0.18  668H :  0.18  501H :  0.17  129H :  0.17  483H :  0.17   77H :  0.17
  551H :  0.17  348H :  0.17  221H :  0.17  413H :  0.17  270H :  0.17  584H :  0.17  391O :  0.17  467H :  0.17  423H :  0.17  111H :  0.17  387H :  0.16  152H :  0.16
  462H :  0.16   36H :  0.16  247O :  0.16  530H :  0.16  446H :  0.16  653H :  0.16  378H :  0.16   96H :  0.15  695H :  0.15  492H :  0.15  335H :  0.15  285H :  0.15
  354H :  0.15  245H :  0.15  443H :  0.15  116H :  0.15   69H :  0.15  489H :  0.14  317H :  0.14  213H :  0.14  554H :  0.14  593H :  0.14   66H :  0.14  557H :  0.14
  239H :  0.14  578H :  0.14   30H :  0.14  104H :  0.14  587H :  0.14  683H :  0.13    6H :  0.13  624H :  0.13  266H :  0.13  680H :  0.13  615H :  0.13  195H :  0.12
  629H :  0.12  225H :  0.12  205O :  0.12  753H :  0.12  716H :  0.12  185H :  0.12  521H :  0.12  546H :  0.12  201H :  0.12  351H :  0.12  599H :  0.11  338H :  0.11
[...]
   369   1 h    0.893 --   367 o    0.848
   370   8 o    1.859 --   372 h    0.856   371 h    0.821
   371   1 h    0.878 --   370 o    0.821
   372   1 h    0.896 --   370 o    0.856
   373   8 o    1.838 --   374 h    0.853   375 h    0.825
   374   1 h    0.895 --   373 o    0.853
   375   1 h    0.882 --   373 o    0.825
   376   8 o    1.877 --   377 h    0.834   378 h    0.824
   377   1 h    0.875 --   376 o    0.834
   378   1 h    0.879 --   376 o    0.824
   379   8 o    1.875 --   381 h    0.867   380 h    0.791
   380   1 h    0.868 --   379 o    0.791
   381   1 h    0.895 --   379 o    0.867
   382   8 o    1.875 --   384 h    0.910   383 h    0.811
   383   1 h    0.872 --   382 o    0.811
   384   1 h    0.914 --   382 o    0.910
   385   8 o    1.857 --   387 h    0.840   386 h    0.807
   386   1 h    0.879 --   385 o    0.807
   387   1 h    0.885 --   385 o    0.840
   388   8 o    1.854 --   390 h    0.859   389 h    0.811
   389   1 h    0.884 --   388 o    0.811
   390   1 h    0.891 --   388 o    0.859
   391   8 o    1.834 --   392 h    0.865   393 h    0.836
   392   1 h    0.895 --   391 o    0.865
   393   1 h    0.887 --   391 o    0.836
   394   8 o    1.876 --   396 h    0.831   395 h    0.788
   395   1 h    0.876 --   394 o    0.788
   396   1 h    0.887 --   394 o    0.831
   397   8 o    1.852 --   398 h    0.878   399 h    0.821
   398   1 h    0.900 --   397 o    0.878
   399   1 h    0.888 --   397 o    0.821
   400   8 o    1.892 --   401 h    0.815   402 h    0.779
   401   1 h    0.884 --   400 o    0.815
   402   1 h    0.874 --   400 o    0.779
   403   8 o    1.879 --   404 h    0.802   405 h    0.799
   404   1 h    0.873 --   403 o    0.802
   405   1 h    0.882 --   403 o    0.799
   406   8 o    1.844 --   408 h    0.797   407 h    0.778
   407   1 h    0.878 --   406 o    0.778
   408   1 h    0.879 --   406 o    0.797
   409   8 o    1.834 --   411 h    0.798   410 h    0.778
   410   1 h    0.882 --   409 o    0.778
   411   1 h    0.882 --   409 o    0.798
   412   8 o    1.855 --   413 h    0.850   414 h    0.814
   413   1 h    0.893 --   412 o    0.850
   414   1 h    0.880 --   412 o    0.814
   415   8 o    1.840 --   416 h    0.874   417 h    0.845
   416   1 h    0.901 --   415 o    0.874
   417   1 h    0.894 --   415 o    0.845
   418   8 o    1.864 --   420 h    0.847   419 h    0.846
   419   1 h    0.891 --   418 o    0.846
   420   1 h    0.887 --   418 o    0.847
   421   8 o    1.836 --   423 h    0.892   422 h    0.807
   422   1 h    0.879 --   421 o    0.807
   423   1 h    0.903 --   421 o    0.892
   424   8 o    1.812 --   426 h    0.858   425 h    0.838
   425   1 h    0.893 --   424 o    0.838
   426   1 h    0.896 --   424 o    0.858
   427   8 o    1.869 --   428 h    0.851   429 h    0.827
   428   1 h    0.890 --   427 o    0.851
   429   1 h    0.883 --   427 o    0.827
   430   8 o    1.873 --   431 h    0.834   432 h    0.786
   431   1 h    0.883 --   430 o    0.834
   432   1 h    0.883 --   430 o    0.786
   433   8 o    1.877 --   435 h    0.810   434 h    0.807
   434   1 h    0.880 --   433 o    0.807
   435   1 h    0.884 --   433 o    0.810
   436   8 o    1.839 --   438 h    0.842   437 h    0.821
   437   1 h    0.892 --   436 o    0.821
   438   1 h    0.891 --   436 o    0.842
   439   8 o    1.898 --   441 h    0.833   440 h    0.818
   440   1 h    0.873 --   439 o    0.818
   441   1 h    0.885 --   439 o    0.833
   442   8 o    1.840 --   443 h    0.881   444 h    0.841
   443   1 h    0.906 --   442 o    0.881
   444   1 h    0.888 --   442 o    0.841
   445   8 o    1.845 --   446 h    0.849   447 h    0.841
   446   1 h    0.894 --   445 o    0.849
   447   1 h    0.893 --   445 o    0.841
   448   8 o    1.837 --   450 h    0.863   449 h    0.827
   449   1 h    0.882 --   448 o    0.827
   450   1 h    0.900 --   448 o    0.863
   451   8 o    1.858 --   453 h    0.853   452 h    0.841
   452   1 h    0.893 --   451 o    0.841
   453   1 h    0.898 --   451 o    0.853
   454   8 o    1.840 --   455 h    0.896   456 h    0.810
   455   1 h    0.907 --   454 o    0.896
   456   1 h    0.887 --   454 o    0.810
   457   8 o    1.857 --   459 h    0.841   458 h    0.828
   458   1 h    0.889 --   457 o    0.828
   459   1 h    0.893 --   457 o    0.841
   460   8 o    1.857 --   462 h    0.871   461 h    0.845
   461   1 h    0.891 --   460 o    0.845
   462   1 h    0.895 --   460 o    0.871
   463   8 o    1.824 --   464 h    0.875   465 h    0.798
   464   1 h    0.899 --   463 o    0.875
   465   1 h    0.876 --   463 o    0.798
   466   8 o    1.832 --   467 h    0.873   468 h    0.869
   467   1 h    0.895 --   466 o    0.873
   468   1 h    0.897 --   466 o    0.869
   469   8 o    1.849 --   470 h    0.847   471 h    0.833
   470   1 h    0.891 --   469 o    0.847
   471   1 h    0.887 --   469 o    0.833
   472   8 o    1.834 --   474 h    0.867   473 h    0.846
   473   1 h    0.889 --   472 o    0.846
   474   1 h    0.899 --   472 o    0.867
   475   8 o    1.825 --   477 h    0.833   476 h    0.816
   476   1 h    0.891 --   475 o    0.816
   477   1 h    0.897 --   475 o    0.833
   478   8 o    1.850 --   480 h    0.883   479 h    0.864
   479   1 h    0.893 --   478 o    0.864
   480   1 h    0.897 --   478 o    0.883
   481   8 o    1.876 --   482 h    0.834   483 h    0.813
   482   1 h    0.879 --   481 o    0.834
   483   1 h    0.878 --   481 o    0.813
   484   8 o    1.856 --   485 h    0.852   486 h    0.844
   485   1 h    0.894 --   484 o    0.852
   486   1 h    0.893 --   484 o    0.844
   487   8 o    1.835 --   489 h    0.913   488 h    0.802
   488   1 h    0.882 --   487 o    0.802
   489   1 h    0.920 --   487 o    0.913
   490   8 o    1.847 --   492 h    0.845   491 h    0.820
   491   1 h    0.886 --   490 o    0.820
   492   1 h    0.888 --   490 o    0.845
   493   8 o    1.834 --   494 h    0.831   495 h    0.829
   494   1 h    0.892 --   493 o    0.831
   495   1 h    0.886 --   493 o    0.829
   496   8 o    1.854 --   497 h    0.842   498 h    0.786
   497   1 h    0.884 --   496 o    0.842
   498   1 h    0.874 --   496 o    0.786
   499   8 o    1.863 --   500 h    0.844   501 h    0.829
   500   1 h    0.889 --   499 o    0.844
   501   1 h    0.892 --   499 o    0.829
   502   8 o    1.864 --   503 h    0.872   504 h    0.848
   503   1 h    0.894 --   502 o    0.872
   504   1 h    0.889 --   502 o    0.848
   505   8 o    1.861 --   507 h    0.813   506 h    0.798
   506   1 h    0.877 --   505 o    0.798
   507   1 h    0.882 --   505 o    0.813
   508   8 o    1.837 --   510 h    0.840   509 h    0.826
   509   1 h    0.889 --   508 o    0.826
   510   1 h    0.891 --   508 o    0.840
   511   8 o    1.853 --   512 h    0.830   513 h    0.830
   512   1 h    0.876 --   511 o    0.830
   513   1 h    0.878 --   511 o    0.830
   514   8 o    1.839 --   516 h    0.834   515 h    0.832
   515   1 h    0.893 --   514 o    0.832
   516   1 h    0.891 --   514 o    0.834
   517   8 o    1.854 --   518 h    0.802   519 h    0.779
   518   1 h    0.877 --   517 o    0.802
   519   1 h    0.869 --   517 o    0.779
   520   8 o    1.855 --   521 h    0.856   522 h    0.831
   521   1 h    0.893 --   520 o    0.856
   522   1 h    0.890 --   520 o    0.831
   523   8 o    1.871 --   524 h    0.852   525 h    0.842
   524   1 h    0.895 --   523 o    0.852
   525   1 h    0.893 --   523 o    0.842
   526   8 o    1.863 --   528 h    0.881   527 h    0.842
   527   1 h    0.888 --   526 o    0.842
   528   1 h    0.898 --   526 o    0.881
   529   8 o    1.868 --   530 h    0.892   531 h    0.788
   530   1 h    0.901 --   529 o    0.892
   531   1 h    0.876 --   529 o    0.788
   532   8 o    1.861 --   534 h    0.891   533 h    0.830
   533   1 h    0.881 --   532 o    0.830
   534   1 h    0.903 --   532 o    0.891
   535   8 o    1.856 --   537 h    0.843   536 h    0.806
   536   1 h    0.878 --   535 o    0.806
   537   1 h    0.891 --   535 o    0.843
   538   8 o    1.847 --   540 h    0.903   539 h    0.802
   539   1 h    0.872 --   538 o    0.802
   540   1 h    0.911 --   538 o    0.903
   541   8 o    1.862 --   543 h    0.881   542 h    0.827
   542   1 h    0.887 --   541 o    0.827
   543   1 h    0.898 --   541 o    0.881
   544   8 o    1.831 --   545 h    0.858   546 h    0.849
   545   1 h    0.893 --   544 o    0.858
   546   1 h    0.892 --   544 o    0.849
   547   8 o    1.864 --   549 h    0.850   548 h    0.820
   548   1 h    0.893 --   547 o    0.820
   549   1 h    0.896 --   547 o    0.850
   550   8 o    1.831 --   551 h    0.879   552 h    0.796
   551   1 h    0.905 --   550 o    0.879
   552   1 h    0.884 --   550 o    0.796
   553   8 o    1.857 --   554 h    0.866   555 h    0.791
   554   1 h    0.901 --   553 o    0.866
   555   1 h    0.884 --   553 o    0.791
   556   8 o    1.802 --   557 h    0.845   558 h    0.836
   557   1 h    0.899 --   556 o    0.845
   558   1 h    0.893 --   556 o    0.836
   559   8 o    1.842 --   560 h    0.824   561 h    0.822
   560   1 h    0.887 --   559 o    0.824
   561   1 h    0.881 --   559 o    0.822
   562   8 o    1.848 --   564 h    0.837   563 h    0.799
   563   1 h    0.880 --   562 o    0.799
   564   1 h    0.894 --   562 o    0.837
   565   8 o    1.841 --   567 h    0.839   566 h    0.821
   566   1 h    0.890 --   565 o    0.821
   567   1 h    0.891 --   565 o    0.839
   568   8 o    1.830 --   569 h    0.872   570 h    0.834
   569   1 h    0.900 --   568 o    0.872
   570   1 h    0.884 --   568 o    0.834
   571   8 o    1.842 --   572 h    0.873   573 h    0.850
   572   1 h    0.898 --   571 o    0.873
   573   1 h    0.891 --   571 o    0.850
   574   8 o    1.843 --   575 h    0.805   576 h    0.787
   575   1 h    0.881 --   574 o    0.805
   576   1 h    0.879 --   574 o    0.787
   577   8 o    1.879 --   578 h    0.855   579 h    0.811
   578   1 h    0.892 --   577 o    0.855
   579   1 h    0.881 --   577 o    0.811
   580   8 o    1.877 --   582 h    0.897   581 h    0.804
   581   1 h    0.872 --   580 o    0.804
   582   1 h    0.906 --   580 o    0.897
   583   8 o    1.866 --   585 h    0.808   584 h    0.794
   584   1 h    0.880 --   583 o    0.794
   585   1 h    0.875 --   583 o    0.808
   586   8 o    1.860 --   587 h    0.910   588 h    0.850
   587   1 h    0.913 --   586 o    0.910
   588   1 h    0.883 --   586 o    0.850
   589   8 o    1.869 --   591 h    0.838   590 h    0.800
   590   1 h    0.879 --   589 o    0.800
   591   1 h    0.895 --   589 o    0.838
   592   8 o    1.856 --   593 h    0.880   594 h    0.792
   593   1 h    0.901 --   592 o    0.880
   594   1 h    0.872 --   592 o    0.792
   595   8 o    1.847 --   596 h    0.879   597 h    0.803
   596   1 h    0.899 --   595 o    0.879
   597   1 h    0.875 --   595 o    0.803
   598   8 o    1.864 --   600 h    0.888   599 h    0.842
   599   1 h    0.886 --   598 o    0.842
   600   1 h    0.901 --   598 o    0.888
   601   8 o    1.878 --   602 h    0.856   603 h    0.846
   602   1 h    0.896 --   601 o    0.856
   603   1 h    0.890 --   601 o    0.846
   604   8 o    1.840 --   605 h    0.838   606 h    0.823
   605   1 h    0.891 --   604 o    0.838
   606   1 h    0.884 --   604 o    0.823
   607   8 o    1.816 --   609 h    0.825   608 h    0.820
   608   1 h    0.886 --   607 o    0.820
   609   1 h    0.892 --   607 o    0.825
   610   8 o    1.849 --   612 h    0.864   611 h    0.796
   611   1 h    0.880 --   610 o    0.796
   612   1 h    0.901 --   610 o    0.864
   613   8 o    1.853 --   614 h    0.916   615 h    0.831
   614   1 h    0.919 --   613 o    0.916
   615   1 h    0.884 --   613 o    0.831
   616   8 o    1.866 --   618 h    0.882   617 h    0.873
   617   1 h    0.895 --   616 o    0.873
   618   1 h    0.897 --   616 o    0.882
   619   8 o    1.865 --   621 h    0.830   620 h    0.797
   620   1 h    0.882 --   619 o    0.797
   621   1 h    0.882 --   619 o    0.830
   622   8 o    1.846 --   624 h    0.825   623 h    0.820
   623   1 h    0.890 --   622 o    0.820
   624   1 h    0.891 --   622 o    0.825
   625   8 o    1.860 --   626 h    0.829   627 h    0.822
   626   1 h    0.895 --   625 o    0.829
   627   1 h    0.881 --   625 o    0.822
   628   8 o    1.854 --   630 h    0.889   629 h    0.792
   629   1 h    0.873 --   628 o    0.792
   630   1 h    0.901 --   628 o    0.889
   631   8 o    1.853 --   632 h    0.861   633 h    0.821
   632   1 h    0.887 --   631 o    0.861
   633   1 h    0.879 --   631 o    0.821
   634   8 o    1.860 --   635 h    0.865   636 h    0.812
   635   1 h    0.897 --   634 o    0.865
   636   1 h    0.880 --   634 o    0.812
   637   8 o    1.847 --   639 h    0.873   638 h    0.851
   638   1 h    0.891 --   637 o    0.851
   639   1 h    0.896 --   637 o    0.873
   640   8 o    1.823 --   641 h    0.855   642 h    0.848
   641   1 h    0.889 --   640 o    0.855
   642   1 h    0.895 --   640 o    0.848
   643   8 o    1.858 --   644 h    0.827   645 h    0.815
   644   1 h    0.886 --   643 o    0.827
   645   1 h    0.883 --   643 o    0.815
   646   8 o    1.820 --   648 h    0.910   647 h    0.828
   647   1 h    0.889 --   646 o    0.828
   648   1 h    0.917 --   646 o    0.910
   649   8 o    1.846 --   650 h    0.865   651 h    0.843
   650   1 h    0.897 --   649 o    0.865
   651   1 h    0.893 --   649 o    0.843
   652   8 o    1.841 --   654 h    0.898   653 h    0.836
   653   1 h    0.881 --   652 o    0.836
   654   1 h    0.909 --   652 o    0.898
   655   8 o    1.857 --   656 h    0.846   657 h    0.822
   656   1 h    0.896 --   655 o    0.846
   657   1 h    0.886 --   655 o    0.822
   658   8 o    1.842 --   660 h    0.833   659 h    0.828
   659   1 h    0.881 --   658 o    0.828
   660   1 h    0.883 --   658 o    0.833
   661   8 o    1.861 --   663 h    0.830   662 h    0.820
   662   1 h    0.888 --   661 o    0.820
   663   1 h    0.893 --   661 o    0.830
   664   8 o    1.865 --   665 h    0.839   666 h    0.812
   665   1 h    0.892 --   664 o    0.839
   666   1 h    0.885 --   664 o    0.812
   667   8 o    1.902 --   669 h    0.838   668 h    0.811
   668   1 h    0.876 --   667 o    0.811
   669   1 h    0.883 --   667 o    0.838
   670   8 o    1.859 --   671 h    0.852   672 h    0.809
   671   1 h    0.891 --   670 o    0.852
   672   1 h    0.883 --   670 o    0.809
   673   8 o    1.840 --   674 h    0.828   675 h    0.821
   674   1 h    0.883 --   673 o    0.828
   675   1 h    0.888 --   673 o    0.821
   676   8 o    1.831 --   677 h    0.843   678 h    0.841
   677   1 h    0.898 --   676 o    0.843
   678   1 h    0.894 --   676 o    0.841
   679   8 o    1.893 --   681 h    0.823   680 h    0.808
   680   1 h    0.872 --   679 o    0.808
   681   1 h    0.874 --   679 o    0.823
   682   8 o    1.842 --   683 h    0.837   684 h    0.823
   683   1 h    0.887 --   682 o    0.837
   684   1 h    0.885 --   682 o    0.823
   685   8 o    1.868 --   686 h    0.811   687 h    0.769
   686   1 h    0.877 --   685 o    0.811
   687   1 h    0.875 --   685 o    0.769
   688   8 o    1.905 --   689 h    0.824   690 h    0.785
   689   1 h    0.887 --   688 o    0.824
   690   1 h    0.868 --   688 o    0.785
   691   8 o    1.862 --   692 h    0.840   693 h    0.831
   692   1 h    0.889 --   691 o    0.840
   693   1 h    0.887 --   691 o    0.831
   694   8 o    1.841 --   695 h    0.845   696 h    0.811
   695   1 h    0.881 --   694 o    0.845
   696   1 h    0.873 --   694 o    0.811
   697   8 o    1.852 --   699 h    0.839   698 h    0.797
   698   1 h    0.874 --   697 o    0.797
   699   1 h    0.892 --   697 o    0.839
   700   8 o    1.831 --   702 h    0.869   701 h    0.812
   701   1 h    0.880 --   700 o    0.812
   702   1 h    0.898 --   700 o    0.869
   703   8 o    1.805 --   704 h    0.854   705 h    0.818
   704   1 h    0.897 --   703 o    0.854
   705   1 h    0.892 --   703 o    0.818
   706   8 o    1.867 --   707 h    0.860   708 h    0.827
   707   1 h    0.894 --   706 o    0.860
   708   1 h    0.885 --   706 o    0.827
   709   8 o    1.858 --   711 h    0.897   710 h    0.824
   710   1 h    0.881 --   709 o    0.824
   711   1 h    0.907 --   709 o    0.897
   712   8 o    1.865 --   713 h    0.842   714 h    0.823
   713   1 h    0.896 --   712 o    0.842
   714   1 h    0.890 --   712 o    0.823
   715   8 o    1.862 --   716 h    0.840   717 h    0.814
   716   1 h    0.884 --   715 o    0.840
   717   1 h    0.877 --   715 o    0.814
   718   8 o    1.870 --   720 h    0.813   719 h    0.805
   719   1 h    0.873 --   718 o    0.805
   720   1 h    0.873 --   718 o    0.813
   721   8 o    1.839 --   723 h    0.871   722 h    0.812
   722   1 h    0.882 --   721 o    0.812
   723   1 h    0.903 --   721 o    0.871
   724   8 o    1.835 --   725 h    0.873   726 h    0.866
   725   1 h    0.899 --   724 o    0.873
   726   1 h    0.898 --   724 o    0.866
   727   8 o    1.813 --   728 h    0.833   729 h    0.816
   728   1 h    0.896 --   727 o    0.833
   729   1 h    0.893 --   727 o    0.816
   730   8 o    1.870 --   731 h    0.918   732 h    0.812
   731   1 h    0.920 --   730 o    0.918
   732   1 h    0.875 --   730 o    0.812
   733   8 o    1.846 --   735 h    0.856   734 h    0.855
   734   1 h    0.898 --   733 o    0.855
   735   1 h    0.899 --   733 o    0.856
   736   8 o    1.847 --   737 h    0.882   738 h    0.875
   737   1 h    0.900 --   736 o    0.882
   738   1 h    0.894 --   736 o    0.875
   739   8 o    1.880 --   740 h    0.832   741 h    0.815
   740   1 h    0.883 --   739 o    0.832
   741   1 h    0.874 --   739 o    0.815
   742   8 o    1.826 --   744 h    0.870   743 h    0.797
   743   1 h    0.883 --   742 o    0.797
   744   1 h    0.900 --   742 o    0.870
   745   8 o    1.849 --   747 h    0.884   746 h    0.821
   746   1 h    0.883 --   745 o    0.821
   747   1 h    0.904 --   745 o    0.884
   748   8 o    1.854 --   749 h    0.866   750 h    0.821
   749   1 h    0.894 --   748 o    0.866
   750   1 h    0.879 --   748 o    0.821
   751   8 o    1.849 --   753 h    0.877   752 h    0.797
   752   1 h    0.874 --   751 o    0.797
   753   1 h    0.892 --   751 o    0.877
   754   8 o    1.858 --   756 h    0.882   755 h    0.842
   755   1 h    0.880 --   754 o    0.842
   756   1 h    0.891 --   754 o    0.882
 ---------------------------------------------------------------------------

Topologies differ in total number of bonds
Writing topology from bond orders to xtbtopo.mol

molecular dipole:
                 x           y           z       tot (Debye)
 q only:       -0.606      -1.966       1.513
   full:       -0.875      -2.496       1.578       7.829
molecular quadrupole (traceless):
                xx          xy          yy          xz          yz          zz
 q only:      -42.843      38.125      11.969      22.856     -29.940      30.874
  q+dip:      -40.518      50.889      -5.061      26.764     -51.879      45.579
   full:      -38.764      49.883      -7.032      26.137     -52.915      45.795


           -------------------------------------------------
          | TOTAL ENERGY            -1283.342963687386 Eh   |
          | GRADIENT NORM               0.042531937943 Eh/α |
          | HOMO-LUMO GAP               8.125259285764 eV   |
           -------------------------------------------------

------------------------------------------------------------------------
 * finished run on 2022/11/24 at 09:29:08.025     
------------------------------------------------------------------------
 total:
 * wall-time:     0 d,  0 h,  0 min, 57.948 sec
 *  cpu-time:     0 d,  0 h,  1 min, 12.811 sec
 * ratio c/w:     1.256 speedup
 SCF:
 * wall-time:     0 d,  0 h,  0 min, 56.908 sec
 *  cpu-time:     0 d,  0 h,  1 min, 11.082 sec
 * ratio c/w:     1.249 speedup

