756
 energy: -1283.338350995348 gnorm: 0.015381057437 xtb: 6.5.1 (579679a)
o           -2.90922572129082       -6.44840869453533       -4.17886927119671
h           -3.77152718698881       -6.28911582291434       -4.58771047666566
h           -2.26698457607578       -6.06190006619496       -4.80590510442201
o            3.88567384529853       -2.93209722566856        4.68159392955524
h            4.34434163604471       -2.89286018930918        3.82119122738136
h            3.04632627487079       -2.43190841987489        4.60430840172600
o            2.00487460949346       -0.09898160621692       -2.49461116595711
h            1.77073386891664       -0.13885058321809       -1.54904485588405
h            1.88972037687750        0.81820031668957       -2.77508506463565
o            3.66271331818425       -0.98368568733650        1.29319467472137
h            4.33891538024796       -1.51498459114441        1.73914535104716
h            3.40329262735242       -1.45140687014257        0.48343368784855
o            3.10654995608325       -2.34981547409093       -0.97540431650498
h            3.42510228372909       -2.12730152673496       -1.85721060269351
h            2.14895442632654       -2.53235898985531       -1.07720948525960
o           -0.13620765276328       -5.39691434829026       -0.81162337419982
h           -0.02658316223368       -4.45584495889967       -1.08030457587236
h           -1.03485042628957       -5.50282108186426       -0.43633323191826
o            5.14780224250215        1.08189827522475        2.24901823724252
h            4.94515502620306        0.46726143814906        2.97301177507266
h            4.31219486892723        1.23825060011857        1.78095997176786
o            0.62568179405123       -2.98716186565966       -1.49683250742810
h           -0.07704947645164       -2.32386685909846       -1.15551237779474
h            0.62575479854442       -2.86673806373244       -2.45921902914075
o            4.66734757787695       -5.46091476175244        3.15132118732978
h            5.03270160758094       -5.21997940750557        4.01841406328350
h            5.40498135534191       -5.89884109412308        2.69616175055809
o            0.94683618335508        2.89074472970532        2.64860634397024
h            1.45570131384437        2.07877687883741        2.77551869849578
h            1.42557738203894        3.60984673668897        3.08303246556545
o           -1.07610806776164        5.34745002877953        3.50718770741352
h           -0.49536816244101        6.06534637277513        3.83104410426675
h           -1.97967825993113        5.57665954191414        3.83472230152584
o           -0.43350663948065       -0.04068402252546        3.44746532225431
h            0.09724350077814       -0.72818547164097        3.01499216007789
h            0.18846350801470        0.61716793544104        3.78697370735581
o            1.49743505727232       -2.56819872522998       -4.16776839402689
h            1.38407652708952       -2.33013851801643       -5.10376450038769
h            2.45942388162173       -2.65029727781318       -3.99703923566655
o           -2.73087421073756        1.07804737778189        2.60073561461142
h           -1.92578541593108        0.58293728231664        2.81538654429652
h           -2.40566049280982        1.94127370619424        2.24963818948519
o            5.61278733596192        0.23722933249073       -0.41511402808677
h            5.57746728733878        0.41759057225740        0.53762732642068
h            5.51689685795871       -0.72465273876872       -0.54632512811366
o           -0.15722639581314       -0.82618073114938       -5.99549207525596
h            0.56494752088609       -0.17337533391449       -5.99124449444971
h           -0.71692067778611       -0.64520396633977       -6.76014785631324
o           -3.15363239561499        0.41172371120142       -5.87102813880313
h           -3.08363431000956        1.34411577349663       -5.58346603948244
h           -3.09819308215890       -0.15709261802560       -5.06254738731177
o           -7.21331247317009       -1.39132453191707       -1.25141901629687
h           -7.16961321502411       -1.47973506851457       -0.29020506077575
h           -7.96888973246992       -1.91144597946145       -1.58343542849364
o           -3.54951039638680       -3.14622748300216       -0.00962106630751
h           -3.86487851712795       -3.62982040583618        0.76762432488219
h           -3.41350543320484       -3.79124487165938       -0.72065370074012
o           -6.14656213864006        1.24250558532423       -1.02947819858804
h           -5.54756713801299        0.69784191095621       -0.50396849084324
h           -5.90319729901846        1.12182029912075       -1.96069957159226
o           -2.10337211445513        4.42055477687375       -3.49829419013870
h           -2.17402408060066        3.95629746934660       -2.64214731086911
h           -2.68171674649832        5.20500567829511       -3.42390133584070
o            4.57099561571652       -0.60864510403168       -3.09186071914603
h            5.15867774319309        0.16914180860742       -3.13622472713044
h            3.69321714985435       -0.31494110878080       -2.77884675628683
o           -1.31564543003837       -3.43252328164053        1.77201823719751
h           -1.67218852075916       -4.24473868588557        1.38178745290166
h           -2.07086862587086       -2.85780922146097        1.94083032583553
o           -3.06723601283080       -1.23502628601791       -3.86545189357488
h           -3.68738722479512       -1.26368317455930       -3.11331159805588
h           -3.19934661887386       -2.01625417883784       -4.41958164266396
o           -3.32497581591831       -1.81660461036094        3.15874799644045
h           -3.07233779495753       -1.11345419599712        3.78237127038270
h           -4.28374054786692       -1.94379601116050        3.31559707858855
o           -4.55078938569117       -1.23730123330683       -1.67093020577583
h           -5.51972190659642       -1.27627503409121       -1.61882746250991
h           -4.21597652445389       -1.83842554393632       -0.98425971078353
o            4.29285313802146        0.57022926389581       -7.88202441232890
h            4.26847964338279        0.06168979127672       -7.04319639985308
h            5.15120319758673        0.40815787703254       -8.27210555073834
o            4.50349922657832       -4.99265054689658       -0.28785623639365
h            4.97248350796778       -5.83920157165596       -0.39934260925010
h            3.89883365717762       -4.92834029236305       -1.05253708664873
o           -6.25961773715114       -4.06706772866925       -0.38429755914597
h           -6.09662004407333       -3.82442668948105       -1.31158909031478
h           -7.22418202356175       -4.00007429628474       -0.23142124552934
o            4.66986357784385        6.11690390189146        3.24321325910441
h            4.67291048486121        5.29755090140892        2.71201252808757
h            4.45522284665775        6.83989797561440        2.62928682576263
o          -12.42927603774841       -0.92929868148260       -0.74338279873130
h          -12.84819852688212       -1.34446633936455        0.03031319368753
h          -12.78714016504666       -0.01022218085167       -0.77381311990790
o           -5.85545728084777       -2.27638420630398        3.90856410037488
h           -5.72452998079486       -3.13329826150193        4.33853713638305
h           -5.99593033461545       -1.64207267515353        4.64296995993866
o            2.84566526228773        1.89720449258281        0.78089876585074
h            3.23772229941358        1.98852863900993       -0.12052427591789
h            2.26641634102838        1.11921606906229        0.69362916934711
o            4.76867216577640       -0.27888696272580        4.57567459328253
h            4.07289513952870        0.01407123749445        5.18523047422975
h            4.76012567616948       -1.24380667440320        4.64885565959275
o            5.59033384324507       -2.36072570097904        2.70748730270724
h            6.00709103337980       -3.00030402634075        2.09155035935213
h            6.24892643324272       -2.20425865989530        3.39943935860986
o           -4.65625852250591       -6.25247896721340       -0.51479814333857
h           -5.14721731405638       -5.42957564605974       -0.33558348916533
h           -5.28141267580592       -6.76408680594781       -1.05736962650042
o           -0.20324572234357        5.85430018755499        1.03196250875755
h           -0.70309074446905        5.63471976862717        1.83980190510851
h           -0.83955324800871        6.14135844652304        0.34344680583614
o            0.93931607565278       -1.99366784133321        1.86090725175074
h            1.75186242936761       -2.51731993205019        1.82410519816482
h            0.17859959772996       -2.58829483126578        1.72162162827296
o           -4.35638649382725        0.16930155149295        0.70550045924553
h           -4.86440138709535       -0.64557730790542        0.89546116402179
h           -3.73613936077170        0.29527454860533        1.44590064005376
o            5.75382926837661       -2.38936179102192       -0.74751190844796
h            4.83074600061771       -2.64842637798704       -0.64225105731381
h            6.12364377506623       -3.04004370895379       -1.38113264566273
o            3.42978786379418       -5.83463324237981       -5.81049551851935
h            2.55079699654477       -5.53257565950407       -5.48397065921311
h            3.81595793566667       -5.06492760789103       -6.24827642590304
o            2.25646200035228        2.53409190709465       -3.53111614489336
h            1.63763856816478        3.25772309415815       -3.29861673436410
h            2.86342662143957        2.44466839299102       -2.77355430607794
o           -0.82670846660057        1.75421048224955       -2.89828603770563
h           -0.68367756127015        0.80385954342041       -3.11481192131704
h           -1.75840216386087        1.78822259389399       -2.62129873770356
o           -5.06409659846774        0.45050743380340       -7.61254062463068
h           -4.35471439478240        0.42807298198488       -6.91082497623409
h           -4.60928077396427        0.54148826566206       -8.44992054464096
o            9.14558736119939       -2.38103794759452       -5.44248431016254
h            8.69337169565439       -3.22903267421972       -5.37354933165809
h            9.92475335911072       -2.44664638730739       -4.86207474691098
o            7.89147374835244        0.27347401142787       -1.83697035447147
h            8.25395648072224        1.12603909472935       -1.53018046043460
h            7.03669986505576        0.21095961262803       -1.37766316958438
o            3.09014502000542       -3.84031487450682        1.69220675540181
h            3.62539849084642       -4.29764949877656        2.36924590878812
h            3.54698377732133       -4.06181646535669        0.86037761157669
o           -8.23615689617357        0.61556760148968       -2.75002194946096
h           -9.16739201937613        0.32741264722383       -2.67466038125297
h           -7.71817186513072       -0.04945091551230       -2.26282068866190
o           -4.74119247802618        8.18550982557268        0.09629559376576
h           -4.88580543970913        8.27931947166921        1.06839842727714
h           -5.56287563969273        8.47850145278967       -0.31046573339607
o           -3.19803937699536        2.98227172761341       -5.39563399760903
h           -2.72823414878255        3.42826740773520       -4.65365024024809
h           -4.06953152454069        3.41275753457414       -5.41910429043144
o            3.96945620812574       -3.30680045720494       -3.64677179476321
h            4.28185602704213       -3.50842921439828       -4.54094954050422
h            3.72888329144538       -4.14693385495954       -3.23312607144020
o           -0.22615391601830        2.85076637281449       -5.19524993069983
h           -0.74494946608560        3.66389343967484       -5.23302345019559
h           -0.44582421633781        2.42842336319806       -4.32725658752982
o            7.40393319768505        5.56246500413084        3.35115344108976
h            6.56967959748431        6.03672471173054        3.47021313834361
h            7.16981514050581        4.61374464005052        3.41393989506484
o            3.55937062097186        2.45269215114648        4.35797878667953
h            3.21519980700344        1.64596411679218        3.92289844314502
h            4.01275387340855        2.95768160759518        3.66673104211159
o            2.32536485195949        3.93242912206053        6.37987636519368
h            1.63747583648002        4.58018336226391        6.65844037194928
h            3.19711592928076        4.36621601611516        6.43187621086959
o            8.64599079615025       -2.32820080099633       -2.33072954106175
h            7.87258375750460       -2.57603074380355       -2.85941370221218
h            8.47006565287226       -1.40815270945597       -2.07249742691981
o           -4.52026057162368        3.32742837249073        2.95618622213367
h           -5.44444418348055        3.00872946475881        2.97739653746603
h           -4.07705722014267        2.97663795923645        3.74540421531221
o           -2.49771933606889       -0.12842337098544        5.16471793413255
h           -2.89473745603465        0.74721447337540        5.06534660685214
h           -1.61825127686332       -0.10488719846894        4.74920884968218
o           -9.19397328370991       -2.62196703874176       -2.55317896362368
h           -8.80684523382653       -3.41298210265333       -2.96034973684752
h          -10.09210592188408       -2.85886578826289       -2.25247811162157
o          -13.19140512054038        1.60767025524516       -0.84592369471744
h          -12.66837065836585        2.02756329218848       -1.54439979851535
h          -12.94099721887206        2.06802492533458       -0.02933139567890
o            6.39050900660728       -4.97904066155927        5.21603371147171
h            7.09699299886206       -4.97322074609919        4.51178965610929
h            6.65726604915822       -5.62604559883217        5.86609797336084
o           -5.51603820053801        1.00313340683203       -3.72474679522873
h           -5.76115890229633        0.06698873438521       -3.86711934332008
h           -5.83530004301806        1.48717216452435       -4.50445086929023
o           -6.39177096279021        2.19232061060283       -6.00565399831285
h           -6.07284586207909        3.10549090408152       -5.98989543997521
h           -5.95553039176324        1.70640535468476       -6.72562050801662
o            0.07005780330025       -1.64239328132344        6.88918731154170
h           -0.79078447313319       -2.09394512433000        6.98725125064357
h           -0.04743904299889       -0.73818683771342        7.24963807289994
o           -5.16306023228667        0.55179931900578        3.68888486655607
h           -5.78093197326211        0.21089235953387        3.03147563124875
h           -4.32329703349735        0.77444556084917        3.25802059893024
o           -7.59498488475982        0.03028493829046        2.35965792107765
h           -8.00777442556202        0.34711533469579        1.53052828070201
h           -7.77613664585312       -0.93675201449075        2.38249937755890
o            3.94632242927205        1.84000569368982       -1.57500521777557
h            4.56087228135565        1.14978729302608       -1.23070174891937
h            4.48697368341197        2.64613501649948       -1.65431111831769
o           -2.27012659968420       -5.78072046688148        0.67017507852328
h           -2.04924843347700       -6.65599592397620        1.04937825264193
h           -3.13738371722295       -5.88792075073620        0.24908060889116
o           -7.50081186179664        3.18649353376668       -2.39941081508979
h           -6.55641171051522        3.33920690389801       -2.61344746703227
h           -7.65772801313871        2.22216511413390       -2.45482458674838
o           -1.87386279984844       -0.27453702332935       -8.10325410580365
h           -1.33777754668485        0.50526691712260       -8.29736668249445
h           -2.39047282331895       -0.04019935597030       -7.30306658084274
o           -1.19426826839910       -3.00640325897495       -7.59326051961953
h           -0.27681494111802       -2.88630966431685       -7.28084353770498
h           -1.42107617465646       -2.18113374334065       -8.04260797163062
o           -0.42560198221398       -0.76641427009424       -3.45122668580557
h           -0.45285307438552       -0.77505196959278       -4.43442636188677
h            0.52108673515522       -0.79886148348413       -3.21665424126838
o            0.76634755090073        3.62337601643375       -0.14496655795031
h            1.20915207631844        3.07540449087314        0.51732004870460
h            0.47330061208877        4.43209255540363        0.32230020619804
o            1.49784040673488       -1.74140054463816        4.59642229555757
h            1.03261623079690       -2.49521574670143        4.17999854699186
h            1.04573361807967       -1.60485838400585        5.44753388389371
o           -3.40945618268049        1.37664442877907       -2.20466689715728
h           -3.98033254331644        1.19364835225690       -2.97427390525541
h           -3.54246297194075        0.60943110605899       -1.63534226177759
o           -1.12138889606060       -3.39436429388061       -3.62520368836409
h           -1.24002938645390       -3.69540201675130       -4.53353135449230
h           -1.05525470339652       -2.42061135742290       -3.63602859226021
o           -3.09237407659840        5.48391715341845        1.68193011215548
h           -2.72729268866999        6.37388261044984        1.57590028509245
h           -3.63625513573888        5.34610319320434        0.88584818071361
o           -0.98471012424129        3.46444929007846        5.29012118199822
h           -0.33039112824743        2.77673311178303        5.11013387389699
h           -0.96373053498786        4.08570747924002        4.52026315592304
o           -4.42454011930399       -4.61836821572118        2.19503314595132
h           -4.41358030032115       -4.31399764685976        3.11504946539507
h           -4.12245888063050       -5.54548610880629        2.24657445076953
o          -11.09634505391395        2.63531012250373       -2.35942420409970
h          -10.56982485136246        2.83841380246005       -1.57327770263596
h          -10.65354489489563        3.10365696635168       -3.09427070822258
o           -5.33521137631467        4.58417783289363       -5.18755726121370
h           -4.73883558114469        5.33227725678710       -5.43999249299356
h           -5.23377645142548        4.46137907118650       -4.22302320150011
o          -12.33941617918498       -4.40129179396118        0.61111779960229
h          -12.71399177563295       -3.63533670032414        1.07044686478698
h          -11.64067686301227       -4.76090772519698        1.18536866462484
o           -7.06295697341953       -4.99354995571295        2.18017723372931
h           -6.11522988224714       -4.80076956109880        2.00653767433924
h           -7.41400981504982       -5.47826844384253        1.41180493191672
o            3.37146585410554        5.43266404877322       -3.89388726023670
h            3.25853340598274        5.00669537289343       -3.01198253035700
h            4.30035767582524        5.33791403556378       -4.13690005649057
o            2.46538508166878        5.50257899968682        1.05968507258543
h            1.88270634802787        5.47923352405296        1.82002794614315
h            3.22190103978157        4.93103009271337        1.26665851508338
o            1.82772914832869        0.90348796697719       -5.64743347394773
h            1.82017564322971        1.45949412249247       -4.85302968535031
h            2.06170666692113        1.49319758796569       -6.39234227563704
o           -0.14932213514626        1.85890771983616       -7.70336474950458
h           -0.21706801016120        2.04942973065998       -6.74045431564026
h            0.69302412920340        2.25855818675749       -7.96246112776645
o            9.53349026951063       -4.96123282921121       -3.53445118138404
h            9.64961484103714       -4.07584304655524       -3.17064373863723
h            8.74298917825115       -4.92067352747462       -4.10901896407746
o           10.54609209126474        0.19435232896871       -2.88396596293425
h            9.79284204544876        0.37765130176276       -3.47509992999065
h           10.94102454802374        1.03458385011409       -2.58845910675044
o           -2.15759873212418        8.44755475756062        3.76520645067503
h           -1.26441072769152        8.44469740372577        4.11711709832592
h           -2.06993398815750        8.34873567532906        2.79364697881359
o            7.82580964234453        1.09684971383741        1.56277635851024
h            8.78769788690330        1.27670696765098        1.48552191747777
h            7.69517865216409        0.25563547718272        1.07404639435287
o            8.57462849717103       -2.16852644431059        2.91356275668828
h            9.55682057164627       -2.18533816285070        2.87868633902420
h            8.31267123407481       -1.40526697122335        3.46085900921151
o            4.28372353646851        3.75798375754549        1.99439842006576
h            5.12611777371373        3.52542752872145        1.52080460650415
h            3.64425969459633        3.11464924243199        1.63543181246952
o           -6.30001178780350       -1.48251079495697       -4.23311235416440
h           -7.27266837576340       -1.43337018031597       -4.34257331840891
h           -5.96956589796143       -1.66828935452126       -5.14109866802384
o           -8.87983282205533       -3.73054547049084        0.08550921046692
h           -9.38130000263068       -4.20021335371666       -0.59767796604910
h           -9.23304528808506       -2.82261926452562        0.15963018948981
o           -5.92889230053501       -1.89449449323461        1.17099938085815
h           -5.83525055922261       -2.73980905230853        0.69864222858176
h           -6.00326617303478       -2.08921849776829        2.11520655085712
o            2.42930673681620        7.86763514206390       -3.13100391881464
h            2.01907427727622        7.45986844829510       -2.33908340708674
h            2.83597501388643        7.11169061909821       -3.59096127574094
o           -2.87555020171478        1.41452748006429        7.91731095655519
h           -3.28393545282624        0.53717497206263        7.98195089045807
h           -3.19029516581399        1.79052435968022        7.08128513871912
o            6.69102633142601        2.96694306963562        3.57313973329454
h            6.52054516504286        2.92234886517283        4.53392195705602
h            6.15275654136513        2.29744337225005        3.10790602575738
o            2.34962113840905        0.38364008130682        3.13035897717462
h            2.09558513427780       -0.33433343188178        3.73436781563647
h            2.78624094180078       -0.08500732551351        2.38855974439661
o           10.25761338342897       -0.80481949403143       -0.36229648668720
h           10.21332822723746       -0.42307814744826       -1.25879766881235
h            9.34672870213806       -1.08353830017261       -0.12273812451293
o            7.97396053229914        3.02069639214864       -4.89506928555003
h            8.10932309214065        2.61081979597597       -5.75271547007982
h            7.43150059182713        2.37695479027322       -4.37702473831246
o            6.53387364470658       -2.21656321555396       -4.09046566259837
h            5.73634875979835       -1.96335367754585       -3.60426694000647
h            6.42496104321078       -1.93365479060144       -5.01354154095845
o           -9.90669243118612       -1.22403416033770        0.22621052261309
h          -10.78231734594849       -1.13240026993902       -0.19331780426456
h           -9.42675517991318       -0.39135266739171        0.06163487728170
o          -11.97077720488657        3.04821092029618        1.17147082311446
h          -11.16334433669755        3.17082002072047        0.63226742524025
h          -12.17656273049447        3.91768852042832        1.51978010839949
o           -7.41209786062747        7.90666171414339       -0.64987082290703
h           -7.37679459630264        7.28894796615281        0.11464803046342
h           -8.34112211953515        7.98828912426981       -0.86838489963386
o           -2.07489593469718        3.67126732029037       -0.96176019457055
h           -2.90010272833676        3.39733982020463       -0.50889287608656
h           -1.35856411095637        3.37515780906298       -0.38415012165946
o            6.77996834007436        0.90143387976771       -6.49031675104744
h            7.31078596682674        0.66001785706567       -5.69541003309659
h            5.96439377604088        1.30616594871798       -6.17721887979594
o           -7.29779896893152        6.07400132757198        1.31239996613961
h           -7.18076904668952        5.20595355370714        0.88042695761650
h           -6.68971248074805        6.06810306031897        2.07983782053890
o           -0.46372896247651        7.05522782803666       -3.46093274350463
h           -0.65335249788378        6.57531647936165       -4.27798600750082
h            0.42003798433036        7.42776798947375       -3.56225714550413
o            6.67951670509412       -1.76562275639078       -6.80523823142996
h            6.67475872713538       -0.78791058360008       -6.83722677636217
h            7.60556197427856       -2.02005625808488       -6.74603015602302
o           -8.83602808721914        1.35678205422174       -5.26364943045430
h           -8.54602842032452        1.11421224742655       -4.36091567670698
h           -8.02161939577762        1.62074332363224       -5.72107379931549
o           -0.29656284898562        0.91406893919559        7.61012330945496
h           -1.23327011748070        1.13637108347080        7.82255561704643
h           -0.11315747640148        1.31261587521960        6.74539680448207
o           -5.56240065923694       -3.69339362263771       -3.00105588487066
h           -4.61143474036446       -3.80121250473467       -2.74486223403978
h           -5.72018885829774       -2.78092952699351       -3.34033790239306
o           -3.12919223608274       -4.39352500458160       -2.36512591017056
h           -2.36037319231161       -3.91030103091377       -2.76681616380266
h           -3.11524956307646       -5.25639302652712       -2.80972981992164
o           -8.53417148102465        1.09632040938637        0.10745316683061
h           -7.68268005182340        1.12775129757073       -0.38735773116225
h           -8.91052814450722        1.99129033175419        0.06115001752659
o           -5.04940053763164       -5.13004208894988       -5.26711642983249
h           -5.28620698866108       -4.62427886497319       -4.46248413878375
h           -5.82727153956280       -5.12212262908476       -5.82722213696748
o           11.19870585651695       -2.41679864187638        2.63333486948671
h           11.31905770875092       -3.05145808949443        1.89177187168698
h           11.79198393817451       -1.67686190232591        2.45309343990897
o           -1.98316875000748        3.94284293969453       -7.62954781215287
h           -2.50567078343114        3.55744119775095       -6.89967697996811
h           -1.36162330967236        3.24745523531067       -7.89311232090042
o            6.09430572048802        1.55992114997515       -3.65418574877562
h            6.13551858446461        2.19514317374121       -2.90786301301714
h            5.40443144049263        1.92020061104930       -4.25351956077099
o          -13.20467165030909       -1.97505166436044        1.67317140576816
h          -12.39559281377340       -1.62048212035650        2.12662433039824
h          -13.95631938437389       -1.74164283871561        2.21565234563817
o            2.19420353352835        5.05737783569118        3.91784753031345
h            3.06890275537617        5.44923759773566        3.75295113931204
h            2.28307958328277        4.54200891280580        4.74364097179875
o            2.18862504304570        1.88578558834221        8.17210000641643
h            2.12536293661533        2.69213732673131        7.62330534973236
h            1.27141052044225        1.58960703962081        8.29660962876515
o           -3.69403970847792       -1.14298153865753        7.33321827404561
h           -3.25048818442924       -0.83830128002500        6.51602593566209
h           -3.26153140350480       -1.98036365896760        7.54707639420425
o            1.33470107457058       -3.97662188386074        7.44853354304670
h            0.61197527652282       -4.62118466066029        7.49944920392286
h            0.90323104050108       -3.12271983518313        7.24290499882469
o            0.52636083466581        4.40745999818883       -2.69404861975412
h            0.37015315825805        3.87950177807141       -1.89525571456359
h           -0.33565866265854        4.50971526180160       -3.13054301185746
o            4.62348143914711        1.81029136694669        6.71756861736391
h            4.20192373585769        2.06534892518297        5.86205676653541
h            3.98991986662692        2.00149197780746        7.41467064558856
o           -0.24495853537347       -8.62814391380597       -0.66169781730945
h           -0.99916607570012       -8.18818979872383       -1.11062205155974