      -----------------------------------------------------------      
     |                   =====================                   |     
     |                           x T B                           |     
     |                   =====================                   |     
     |                         S. Grimme                         |     
     |          Mulliken Center for Theoretical Chemistry        |     
     |                    University of Bonn                     |     
      -----------------------------------------------------------      

   * xtb version 6.5.1 (579679a) compiled by 'ehlert@majestix' on 2022-07-11

   xtb is free software: you can redistribute it and/or modify it under
   the terms of the GNU Lesser General Public License as published by
   the Free Software Foundation, either version 3 of the License, or
   (at your option) any later version.
   
   xtb is distributed in the hope that it will be useful,
   but WITHOUT ANY WARRANTY; without even the implied warranty of
   MERCHANTABILITY or FITNESS FOR A PARTICULAR PURPOSE.  See the
   GNU Lesser General Public License for more details.
   
   Cite this work as:
   * C. Bannwarth, E. Caldeweyher, S. Ehlert, A. Hansen, P. Pracht,
     J. Seibert, S. Spicher, S. Grimme, WIREs Comput. Mol. Sci., 2020, 11,
     e01493. DOI: 10.1002/wcms.1493
   
   for GFN2-xTB:
   * C. Bannwarth, S. Ehlert and S. Grimme., J. Chem. Theory Comput., 2019,
     15, 1652-1671. DOI: 10.1021/acs.jctc.8b01176
   for GFN1-xTB:
   * S. Grimme, C. Bannwarth, P. Shushkov, J. Chem. Theory Comput., 2017,
     13, 1989-2009. DOI: 10.1021/acs.jctc.7b00118
   for GFN0-xTB:
   * P. Pracht, E. Caldeweyher, S. Ehlert, S. Grimme, ChemRxiv, 2019, preprint.
     DOI: 10.26434/chemrxiv.8326202.v1
   for GFN-FF:
   * S. Spicher and S. Grimme, Angew. Chem. Int. Ed., 2020, 59, 15665-15673.
     DOI: 10.1002/anie.202004239
   
   for ALPB and GBSA implicit solvation:
   * S. Ehlert, M. Stahn, S. Spicher, S. Grimme, J. Chem. Theory Comput.,
     2021, 17, 4250-4261. DOI: 10.1021/acs.jctc.1c00471
   
   for DFT-D4:
   * E. Caldeweyher, C. Bannwarth and S. Grimme, J. Chem. Phys., 2017,
     147, 034112. DOI: 10.1063/1.4993215
   * E. Caldeweyher, S. Ehlert, A. Hansen, H. Neugebauer, S. Spicher,
     C. Bannwarth and S. Grimme, J. Chem. Phys., 2019, 150, 154122.
     DOI: 10.1063/1.5090222
   * E. Caldeweyher, J.-M. Mewes, S. Ehlert and S. Grimme, Phys. Chem. Chem. Phys.
     2020, 22, 8499-8512. DOI: 10.1039/D0CP00502A
   
   for sTDA-xTB:
   * S. Grimme and C. Bannwarth, J. Chem. Phys., 2016, 145, 054103.
     DOI: 10.1063/1.4959605
   
   in the mass-spec context:
   * V. Asgeirsson, C. Bauer and S. Grimme, Chem. Sci., 2017, 8, 4879.
     DOI: 10.1039/c7sc00601b
   * J. Koopman and S. Grimme, ACS Omega 2019, 4, 12, 15120-15133.
     DOI: 10.1021/acsomega.9b02011
   
   for metadynamics refer to:
   * S. Grimme, J. Chem. Theory Comput., 2019, 155, 2847-2862
     DOI: 10.1021/acs.jctc.9b00143
   
   for SPH calculations refer to:
   * S. Spicher and S. Grimme, J. Chem. Theory Comput., 2021, 17, 1701-1714
     DOI: 10.1021/acs.jctc.0c01306
   
   with help from (in alphabetical order)
   P. Atkinson, C. Bannwarth, F. Bohle, G. Brandenburg, E. Caldeweyher
   M. Checinski, S. Dohm, S. Ehlert, S. Ehrlich, I. Gerasimov, C. Hölzer
   A. Katbashev, J. Koopman, C. Lavigne, S. Lehtola, F. März, M. Müller,
   F. Musil, H. Neugebauer, J. Pisarek, C. Plett, P. Pracht, F. Pultar,
   J. Seibert, P. Shushkov, S. Spicher, M. Stahn, M. Steiner, T. Strunk,
   J. Stückrath, T. Rose, and J. Unsleber
   
 * started run on 2022/11/17 at 06:48:47.985     

           -------------------------------------------------
          |                Calculation Setup                |
           -------------------------------------------------

          program call               : xtb solvent_cluster.coord --gfn2 --input xcontrol --opt 1
          hostname                   : cn0363
          coordinate file            : solvent_cluster.coord
          omp threads                :                     2

   ID    Z sym.   atoms
    1    8 o      1, 4, 7, 10, 13, 16, 19, 22, 25, 28, 31, 34, 37, 40, 43,
                  46, 49, 52, 55, 58, 61, 64, 67, 70, 73, 76, 79, 82, 85, 88,
                  91, 94, 97, 100, 103, 106, 109, 112, 115, 118, 121, 124,
                  127, 130, 133, 136, 139, 142, 145, 148, 151, 154, 157, 160,
                  163, 166, 169, 172, 175, 178, 181, 184, 187, 190, 193, 196,
                  199, 202, 205, 208, 211, 214, 217, 220, 223, 226, 229, 232,
                  235, 238, 241, 244, 247, 250, 253, 256, 259, 262, 265, 268,
                  271, 274, 277, 280, 283, 286, 289, 292, 295, 298, 301, 304,
                  307, 310, 313, 316, 319, 322, 325, 328, 331, 334, 337, 340,
                  343, 346, 349, 352, 355, 358, 361, 364, 367, 370, 373, 376,
                  379, 382, 385, 388, 391, 394, 397, 400, 403, 406, 409, 412,
                  415, 418, 421, 424, 427, 430, 433, 436, 439, 442, 445, 448,
                  451, 454, 457, 460, 463, 466, 469, 472, 475, 478, 481, 484,
                  487, 490, 493, 496, 499, 502, 505, 508, 511, 514, 517, 520,
                  523, 526, 529
    2    1 h      2, 3, 5, 6, 8, 9, 11, 12, 14, 15, 17, 18, 20, 21, 23, 24,
                  26, 27, 29, 30, 32, 33, 35, 36, 38, 39, 41, 42, 44, 45, 47,
                  48, 50, 51, 53, 54, 56, 57, 59, 60, 62, 63, 65, 66, 68, 69,
                  71, 72, 74, 75, 77, 78, 80, 81, 83, 84, 86, 87, 89, 90, 92,
                  93, 95, 96, 98, 99, 101, 102, 104, 105, 107, 108, 110, 111,
                  113, 114, 116, 117, 119, 120, 122, 123, 125, 126, 128, 129,
                  131, 132, 134, 135, 137, 138, 140, 141, 143, 144, 146, 147,
                  149, 150, 152, 153, 155, 156, 158, 159, 161, 162, 164, 165,
                  167, 168, 170, 171, 173, 174, 176, 177, 179, 180, 182, 183,
                  185, 186, 188, 189, 191, 192, 194, 195, 197, 198, 200, 201,
                  203, 204, 206, 207, 209, 210, 212, 213, 215, 216, 218, 219,
                  221, 222, 224, 225, 227, 228, 230, 231, 233, 234, 236, 237,
                  239, 240, 242, 243, 245, 246, 248, 249, 251, 252, 254, 255,
                  257, 258, 260, 261, 263, 264, 266, 267, 269, 270, 272, 273,
                  275, 276, 278, 279, 281, 282, 284, 285, 287, 288, 290, 291,
                  293, 294, 296, 297, 299, 300, 302, 303, 305, 306, 308, 309,
                  311, 312, 314, 315, 317, 318, 320, 321, 323, 324, 326, 327,
                  329, 330, 332, 333, 335, 336, 338, 339, 341, 342, 344, 345,
                  347, 348, 350, 351, 353, 354, 356, 357, 359, 360, 362, 363,
                  365, 366, 368, 369, 371, 372, 374, 375, 377, 378, 380, 381,
                  383, 384, 386, 387, 389, 390, 392, 393, 395, 396, 398, 399,
                  401, 402, 404, 405, 407, 408, 410, 411, 413, 414, 416, 417,
                  419, 420, 422, 423, 425, 426, 428, 429, 431, 432, 434, 435,
                  437, 438, 440, 441, 443, 444, 446, 447, 449, 450, 452, 453,
                  455, 456, 458, 459, 461, 462, 464, 465, 467, 468, 470, 471,
                  473, 474, 476, 477, 479, 480, 482, 483, 485, 486, 488, 489,
                  491, 492, 494, 495, 497, 498, 500, 501, 503, 504, 506, 507,
                  509, 510, 512, 513, 515, 516, 518, 519, 521, 522, 524, 525,
                  527, 528, 530, 531

molecular fragmentation (1/2 indicates fragments):
111222222222222222222222222222222222222222222222222222222222222222222222
222222222222222222222222222222222222222222222222222222222222222222222222
222222222222222222222222222222222222222222222222222222222222222222222222
222222222222222222222222222222222222222222222222222222222222222222222222
222222222222222222222222222222222222222222222222222222222222222222222222
222222222222222222222222222222222222222222222222222222222222222222222222
222222222222222222222222222222222222222222222222222222222222222222222222
222222222222222222222222222
# atoms in fragment 1/2:     3   528
 fragment masses (1/2) :       18.02     3170.69
CMA distance (Bohr)    :   5.925
constraining FC (au)   :  0.0500

           -------------------------------------------------
          |                 G F N 2 - x T B                 |
           -------------------------------------------------

        Reference                      10.1021/acs.jctc.8b01176
      * Hamiltonian:
        H0-scaling (s, p, d)           1.850000    2.230000    2.230000
        zeta-weighting                 0.500000
      * Dispersion:
        s8                             2.700000
        a1                             0.520000
        a2                             5.000000
        s9                             5.000000
      * Repulsion:
        kExp                           1.500000    1.000000
        rExp                           1.000000
      * Coulomb:
        alpha                          2.000000
        third order                    shell-resolved
        anisotropic                    true
        a3                             3.000000
        a5                             4.000000
        cn-shift                       1.200000
        cn-exp                         4.000000
        max-rad                        5.000000


          ...................................................
          :                      SETUP                      :
          :.................................................:
          :  # basis functions                1062          :
          :  # atomic orbitals                1062          :
          :  # shells                          708          :
          :  # electrons                      1416          :
          :  max. iterations                   250          :
          :  Hamiltonian                  GFN2-xTB          :
          :  restarted?                      false          :
          :  GBSA solvation                  false          :
          :  PC potential                    false          :
          :  electronic temp.          300.0000000     K    :
          :  accuracy                    1.0000000          :
          :  -> integral cutoff          0.2500000E+02      :
          :  -> integral neglect         0.1000000E-07      :
          :  -> SCF convergence          0.1000000E-05 Eh   :
          :  -> wf. convergence          0.1000000E-03 e    :
          :  Broyden damping             0.4000000          :
          ...................................................

 iter      E             dE          RMSdq      gap      omega  full diag
   1   -906.5708049 -0.906571E+03  0.407E+00    8.59       0.0  T
   2   -906.6290867 -0.582818E-01  0.241E+00    7.61       1.0  T
   3   -906.6521896 -0.231029E-01  0.216E-01    6.05       1.0  T
   4   -906.6562011 -0.401153E-02  0.464E-02    6.45       1.0  T
   5   -906.6562674 -0.663270E-04  0.312E-02    6.39       1.0  T
   6   -906.6562965 -0.290982E-04  0.407E-03    6.43       1.1  T
   7   -906.6562981 -0.157185E-05  0.738E-04    6.42       5.9  T
   8   -906.6562981 -0.194722E-07  0.382E-04    6.42      11.4  T
   9   -906.6562981 -0.100202E-07  0.581E-05    6.42      74.7  T

   *** convergence criteria satisfied after 9 iterations ***

         #    Occupation            Energy/Eh            Energy/eV
      -------------------------------------------------------------
         1        2.0000           -0.7057333             -19.2040
       ...           ...                  ...                  ...
       702        2.0000           -0.3516522              -9.5689
       703        2.0000           -0.3476603              -9.4603
       704        2.0000           -0.3386591              -9.2154
       705        2.0000           -0.3329241              -9.0593
       706        2.0000           -0.3266905              -8.8897
       707        2.0000           -0.3175021              -8.6397
       708        2.0000           -0.3132832              -8.5249 (HOMO)
       709                         -0.0771852              -2.1003 (LUMO)
       710                         -0.0683586              -1.8601
       711                         -0.0502164              -1.3665
       712                         -0.0434292              -1.1818
       713                         -0.0408574              -1.1118
       ...                                ...                  ...
      1062                          0.5039885              13.7142
      -------------------------------------------------------------
                  HL-Gap            0.2360980 Eh            6.4246 eV
             Fermi-level           -0.1952342 Eh           -5.3126 eV

 SCC (total)                   0 d,  0 h,  0 min,  8.273 sec
 SCC setup                      ...        0 min,  0.028 sec (  0.335%)
 Dispersion                     ...        0 min,  0.070 sec (  0.841%)
 classical contributions        ...        0 min,  0.016 sec (  0.189%)
 integral evaluation            ...        0 min,  0.605 sec (  7.316%)
 iterations                     ...        0 min,  2.781 sec ( 33.618%)
 molecular gradient             ...        0 min,  4.746 sec ( 57.371%)
 printout                       ...        0 min,  0.027 sec (  0.328%)

         :::::::::::::::::::::::::::::::::::::::::::::::::::::
         ::                     SUMMARY                     ::
         :::::::::::::::::::::::::::::::::::::::::::::::::::::
         :: total energy            -901.176908551216 Eh    ::
         :: gradient norm              0.103751538306 Eh/a0 ::
         :: HOMO-LUMO gap              6.424553810192 eV    ::
         ::.................................................::
         :: SCC energy              -906.656298140875 Eh    ::
         :: -> isotropic ES            5.095741874123 Eh    ::
         :: -> anisotropic ES         -1.107293179517 Eh    ::
         :: -> anisotropic XC         -0.093215106444 Eh    ::
         :: -> dispersion             -0.533056292589 Eh    ::
         :: repulsion energy           5.385939216937 Eh    ::
         :: add. restraining           0.000000000000 Eh    ::
         :: total charge               0.000000000000 e     ::
         :::::::::::::::::::::::::::::::::::::::::::::::::::::

      ----------------------------------------------------------- 
     |                       L-ANC optimizer                     |
      ----------------------------------------------------------- 
          low memory version by Sebastian Ehlert

          ...................................................
          :                      SETUP                      :
          :.................................................:
          :   energy convergence        0.1000000E-05 Eh    :
          :   grad. convergence         0.8000000E-03 Eh/a0 :
          :   optimization log               true           :
          :   writing optlog all                1     steps :
          :   Hessian reset                    20     steps :
          :   maximium step len.        1.0000000     a0    :
          :   LBFGS images                     20           :
          ...................................................
 * calculating model hessian...
Using Lindh-Hessian (1995)
 Shifting diagonal of input Hessian by   1.000009876448814E-002
 Lowest  eigenvalues of input Hessian
    0.010000    0.010000   -0.000000   -0.000000   -0.000000   -0.000000
   -0.000000   -0.000000   -0.000000   -0.000000   -0.000000   -0.000000
   -0.000000   -0.000000   -0.000000   -0.000000   -0.000000   -0.000000
 Highest eigenvalues
    0.316274    0.328775    1.234969    1.257737    1.411551    1.457976
 

........................................................................
.............................. CYCLE    1 ..............................
........................................................................
   1   -906.6552670 -0.906655E+03  0.245E-02    6.45       0.0  T
   2   -906.6552803 -0.132633E-04  0.148E-02    6.43       1.0  T
   3   -906.6552832 -0.290190E-05  0.238E-03    6.41       1.8  T
   4   -906.6552836 -0.399452E-06  0.434E-04    6.42      10.0  T
   5   -906.6552836 -0.415821E-08  0.734E-05    6.42      59.1  T
     SCC iter.                  ...        0 min,  1.320 sec
     gradient                   ...        0 min,  4.748 sec
 * total energy  :  -901.1798076 Eh     change       -0.2899056E-02 Eh
   gradient norm :     0.0133928 Eh/a0  converged?    E=F G=F D=F
   step length   :     0.3763603 a0

........................................................................
.............................. CYCLE    2 ..............................
........................................................................
   1   -906.6419002 -0.906642E+03  0.547E-02    6.43       0.0  T
   2   -906.6419722 -0.720337E-04  0.326E-02    6.40       1.0  T
   3   -906.6419857 -0.135292E-04  0.544E-03    6.38       1.0  T
   4   -906.6419877 -0.201620E-05  0.111E-03    6.38       3.9  T
   5   -906.6419878 -0.326462E-07  0.234E-04    6.38      18.6  T
   6   -906.6419878 -0.161117E-08  0.840E-05    6.38      51.6  T
     SCC iter.                  ...        0 min,  1.557 sec
     gradient                   ...        0 min,  4.757 sec
 * total energy  :  -901.1795605 Eh     change        0.2471169E-03 Eh
   gradient norm :     0.0670597 Eh/a0  converged?    E=F G=F D=F
   step length   :     1.1532484 a0

........................................................................
.............................. CYCLE    3 ..............................
........................................................................
   1   -906.6566237 -0.906657E+03  0.375E-02    6.38       0.0  T
   2   -906.6566357 -0.119707E-04  0.227E-02    6.38       1.0  T
   3   -906.6566411 -0.547302E-05  0.228E-03    6.38       1.9  T
   4   -906.6566414 -0.221553E-06  0.691E-04    6.38       6.3  T
   5   -906.6566414 -0.105945E-07  0.936E-05    6.38      46.4  T
     SCC iter.                  ...        0 min,  1.290 sec
     gradient                   ...        0 min,  4.757 sec
 * total energy  :  -901.1835947 Eh     change       -0.4034241E-02 Eh
   gradient norm :     0.0190475 Eh/a0  converged?    E=F G=F D=F
   step length   :     0.4036373 a0

........................................................................
.............................. CYCLE    4 ..............................
........................................................................
   1   -906.6604442 -0.906660E+03  0.721E-03    6.39       0.0  T
   2   -906.6604454 -0.120900E-05  0.433E-03    6.39       1.0  T
   3   -906.6604457 -0.282300E-06  0.683E-04    6.40       6.4  T
   4   -906.6604457 -0.338655E-07  0.155E-04    6.40      28.1  T
     SCC iter.                  ...        0 min,  1.030 sec
     gradient                   ...        0 min,  4.754 sec
 * total energy  :  -901.1847179 Eh     change       -0.1123184E-02 Eh
   gradient norm :     0.0113567 Eh/a0  converged?    E=F G=F D=F
   step length   :     0.3232923 a0

........................................................................
.............................. CYCLE    5 ..............................
........................................................................
   1   -906.6604344 -0.906660E+03  0.203E-02    6.38       0.0  T
   2   -906.6604492 -0.147673E-04  0.121E-02    6.36       1.0  T
   3   -906.6604519 -0.267582E-05  0.249E-03    6.33       1.7  T
   4   -906.6604522 -0.359124E-06  0.424E-04    6.34      10.2  T
   5   -906.6604522 -0.611601E-08  0.889E-05    6.34      48.8  T
     SCC iter.                  ...        0 min,  1.271 sec
     gradient                   ...        0 min,  4.770 sec
 * total energy  :  -901.1864811 Eh     change       -0.1763179E-02 Eh
   gradient norm :     0.0117522 Eh/a0  converged?    E=F G=F D=F
   step length   :     1.5678568 a0

........................................................................
.............................. CYCLE    6 ..............................
........................................................................
   1   -906.6642081 -0.906664E+03  0.144E-02    6.36       0.0  T
   2   -906.6642147 -0.667250E-05  0.850E-03    6.36       1.0  T
   3   -906.6642159 -0.113924E-05  0.177E-03    6.36       2.4  T
   4   -906.6642160 -0.170213E-06  0.262E-04    6.36      16.5  T
   5   -906.6642160 -0.108275E-08  0.491E-05    6.36      88.4  T
     SCC iter.                  ...        0 min,  1.252 sec
     gradient                   ...        0 min,  4.767 sec
 * total energy  :  -901.1870388 Eh     change       -0.5577477E-03 Eh
   gradient norm :     0.0122351 Eh/a0  converged?    E=F G=F D=F
   step length   :     0.4569622 a0

........................................................................
.............................. CYCLE    7 ..............................
........................................................................
   1   -906.6631347 -0.906663E+03  0.575E-03    6.37       0.0  T
   2   -906.6631353 -0.668986E-06  0.346E-03    6.37       1.3  T
   3   -906.6631355 -0.175252E-06  0.527E-04    6.37       8.2  T
   4   -906.6631355 -0.209596E-07  0.141E-04    6.37      30.7  T
     SCC iter.                  ...        0 min,  0.993 sec
     gradient                   ...        0 min,  4.773 sec
 * total energy  :  -901.1871501 Eh     change       -0.1112575E-03 Eh
   gradient norm :     0.0059041 Eh/a0  converged?    E=F G=F D=F
   step length   :     0.0969953 a0

........................................................................
.............................. CYCLE    8 ..............................
........................................................................
   1   -906.6623589 -0.906662E+03  0.655E-03    6.38       0.0  T
   2   -906.6623591 -0.263980E-06  0.396E-03    6.37       1.1  T
   3   -906.6623592 -0.118757E-06  0.343E-04    6.37      12.7  T
   4   -906.6623592 -0.659327E-08  0.118E-04    6.37      36.9  T
     SCC iter.                  ...        0 min,  1.012 sec
     gradient                   ...        0 min,  4.788 sec
 * total energy  :  -901.1872484 Eh     change       -0.9827849E-04 Eh
   gradient norm :     0.0078859 Eh/a0  converged?    E=F G=F D=F
   step length   :     0.1059830 a0

........................................................................
.............................. CYCLE    9 ..............................
........................................................................
   1   -906.6630797 -0.906663E+03  0.673E-03    6.39       0.0  T
   2   -906.6630801 -0.357362E-06  0.410E-03    6.39       1.1  T
   3   -906.6630802 -0.162164E-06  0.375E-04    6.40      11.6  T
   4   -906.6630802 -0.845000E-08  0.129E-04    6.40      33.6  T
     SCC iter.                  ...        0 min,  1.001 sec
     gradient                   ...        0 min,  4.792 sec
 * total energy  :  -901.1873550 Eh     change       -0.1066140E-03 Eh
   gradient norm :     0.0042978 Eh/a0  converged?    E=F G=F D=F
   step length   :     0.1034559 a0

........................................................................
.............................. CYCLE   10 ..............................
........................................................................
   1   -906.6627615 -0.906663E+03  0.683E-03    6.40       0.0  T
   2   -906.6627621 -0.585190E-06  0.411E-03    6.40       1.1  T
   3   -906.6627622 -0.116798E-06  0.468E-04    6.40       9.3  T
   4   -906.6627622 -0.222711E-07  0.102E-04    6.40      42.5  T
     SCC iter.                  ...        0 min,  0.979 sec
     gradient                   ...        0 min,  4.825 sec
 * total energy  :  -901.1873963 Eh     change       -0.4126285E-04 Eh
   gradient norm :     0.0031005 Eh/a0  converged?    E=F G=F D=F
   step length   :     0.1078158 a0

........................................................................
.............................. CYCLE   11 ..............................
........................................................................
   1   -906.6634649 -0.906663E+03  0.281E-03    6.40       0.0  T
   2   -906.6634649 -0.762259E-07  0.172E-03    6.40       2.5  T
   3   -906.6634650 -0.327080E-07  0.169E-04    6.41      25.7  T
   4   -906.6634650 -0.177795E-08  0.531E-05    6.41      81.7  T
     SCC iter.                  ...        0 min,  0.989 sec
     gradient                   ...        0 min,  4.825 sec
 * total energy  :  -901.1874189 Eh     change       -0.2268112E-04 Eh
   gradient norm :     0.0016921 Eh/a0  converged?    E=F G=F D=F
   step length   :     0.0340628 a0

........................................................................
.............................. CYCLE   12 ..............................
........................................................................
   1   -906.6633431 -0.906663E+03  0.720E-03    6.39       0.0  T
   2   -906.6633435 -0.341121E-06  0.441E-03    6.39       1.0  T
   3   -906.6633437 -0.181736E-06  0.349E-04    6.39      12.4  T
   4   -906.6633437 -0.507282E-08  0.107E-04    6.39      40.4  T
     SCC iter.                  ...        0 min,  0.988 sec
     gradient                   ...        0 min,  4.877 sec
 * total energy  :  -901.1874478 Eh     change       -0.2882370E-04 Eh
   gradient norm :     0.0024436 Eh/a0  converged?    E=F G=F D=F
   step length   :     0.0872207 a0

........................................................................
.............................. CYCLE   13 ..............................
........................................................................
   1   -906.6633628 -0.906663E+03  0.189E-03    6.39       0.0  T
   2   -906.6633628 -0.414672E-07  0.114E-03    6.39       3.8  T
   3   -906.6633628 -0.115693E-07  0.128E-04    6.39      33.9  T
   4   -906.6633628 -0.126352E-08  0.328E-05    6.39     132.3  T
     SCC iter.                  ...        0 min,  0.975 sec
     gradient                   ...        0 min,  4.816 sec
 * total energy  :  -901.1874572 Eh     change       -0.9448262E-05 Eh
   gradient norm :     0.0011587 Eh/a0  converged?    E=F G=F D=F
   step length   :     0.0371176 a0

........................................................................
.............................. CYCLE   14 ..............................
........................................................................
   1   -906.6629936 -0.906663E+03  0.198E-03    6.38       0.0  T
   2   -906.6629936 -0.370210E-07  0.120E-03    6.38       3.6  T
   3   -906.6629936 -0.132344E-07  0.127E-04    6.38      34.2  T
   4   -906.6629936 -0.113005E-08  0.384E-05    6.38     113.0  T
     SCC iter.                  ...        0 min,  0.990 sec
     gradient                   ...        0 min,  4.828 sec
 * total energy  :  -901.1874595 Eh     change       -0.2315727E-05 Eh
   gradient norm :     0.0009707 Eh/a0  converged?    E=F G=F D=F
   step length   :     0.0263589 a0

........................................................................
.............................. CYCLE   15 ..............................
........................................................................
   1   -906.6631134 -0.906663E+03  0.888E-04    6.39       0.0  T
   2   -906.6631134 -0.853129E-08  0.539E-04    6.39       8.1  T
   3   -906.6631134 -0.281636E-08  0.583E-05    6.39      74.5  T
     SCC iter.                  ...        0 min,  0.746 sec
     gradient                   ...        0 min,  4.816 sec
 * total energy  :  -901.1874604 Eh     change       -0.8325679E-06 Eh
   gradient norm :     0.0002609 Eh/a0  converged?    E=T G=T D=F
   step length   :     0.0113185 a0

   *** GEOMETRY OPTIMIZATION CONVERGED AFTER 15 CYCLES ***

------------------------------------------------------------------------
 total energy gain   :        -0.0105518 Eh       -6.6214 kcal/mol
 total RMSD          :         0.1333410 a0        0.0706 Å
 total power (kW/mol):        -1.8469176 (step)   -0.2785 (real)
------------------------------------------------------------------------

 L-ANCopt (total)              0 d,  0 h,  1 min, 39.497 sec
 setup                          ...        0 min,  0.017 sec (  0.017%)
 model hessian                  ...        0 min,  3.922 sec (  3.942%)
 ANC generation                 ...        0 min,  0.909 sec (  0.914%)
 coordinate transformation      ...        0 min,  0.001 sec (  0.001%)
 Rational function              ...        0 min,  0.000 sec (  0.000%)
 singlepoint calculation        ...        1 min, 34.568 sec ( 95.046%)
 optimization log               ...        0 min,  0.075 sec (  0.075%)
 hessian update                 ...        0 min,  0.000 sec (  0.000%)

================
 final structure:
================
$coord
       -1.09256499495100       -5.15618886760200       -2.50331835687700      o
        0.42859780482600       -4.92974105708900       -1.46173746676100      h
       -0.78063605340900       -6.67547258058700       -3.48912944369500      h
        1.58678082009800       -9.37668151575500        1.64669370127500      o
        2.43914818013900       -7.84992189819300        1.07958202342300      h
        2.69070744952300      -10.80273505781400        1.27178533106300      h
        4.76715317510100        8.18089884342300        1.87248458711200      o
        5.34970371742700        6.51999455758900        1.25002853070400      h
        3.79146376452400        7.91024420323700        3.38378411139600      h
        6.01169805803800       -1.28095381876400       -1.03503655467000      o
        6.79967524379300       -1.25357788239000       -2.70161726129400      h
        7.43812537182700       -1.13923401980700        0.13109435276900      h
      -12.18497351681400       -0.41895924496100       12.40362068014800      o
      -11.88007596244800        1.40951380828400       12.46856966850800      h
      -11.14332985000100       -1.06184480546300       11.02753322960200      h
        5.46409518201900       -8.60323895909700       -1.88484780997600      o
        6.01071226152100       -7.19304524877000       -2.95532414053500      h
        6.27447846039300      -10.09049754065400       -2.60926104421000      h
       -6.29398005008800       -7.28975542127400        7.21198306234900      o
       -6.23883936206900       -6.81972635483200        8.99583475582500      h
       -4.59795218827100       -7.08811229813600        6.55662092547200      h
        8.69165936098600       -6.33583263782000        9.15386049317400      o
        8.24617288448900       -5.06045731500300        7.87635200329700      h
        7.83320555082100       -5.79399557286300       10.66553006000300      h
       -4.25599783898500       -5.52100422418000        1.35460359294400      o
       -3.21947640531600       -6.17775922476300        2.73206786039900      h
       -3.18536647927800       -5.47993655169500       -0.15465489031000      h
        2.60430272211600        5.08254852825700        5.73639149460100      o
        1.14512810660100        5.53093847362200        4.69475073872200      h
        2.02957336847800        5.39120013112400        7.46416113080900      h
       -2.14847236330600       -0.60460102461700       -4.36541269876200      o
       -2.04131729318800       -2.37609241617800       -3.85302660303300      h
       -3.45668062871800        0.20935021508700       -3.35043274289600      h
        7.61977384232300        5.63982837206600        6.75846675781200      o
        8.62604751647900        4.88054762425000        5.40509984045800      h
        5.86209742913000        5.30697241638800        6.35568959047900      h
       -1.96688227116900        7.55966234168900       -2.18702270993300      o
       -1.30774365379900        7.91492823179900       -0.51946322580100      h
       -1.71178522580500        9.04222742564600       -3.21631881914200      h
       -8.13845879564100        6.00424324979500        8.48112852298300      o
       -6.81373017975100        7.18377616264200        8.90089276455300      h
       -9.31913547985800        6.88369309992600        7.35778287203800      h
       -2.32549359396100       -0.59117372938500       -9.29009291007700      o
       -2.49123336611300       -0.40717748793700       -7.44500514818000      h
       -1.31965593287200       -2.14055150933700       -9.46403852746800      h
       -1.39834896760300       10.44454272052400       -6.63756137291300      o
       -1.59153476001600        9.22134413107600       -7.99683127691500      h
        0.22787867623000       11.24533690090900       -6.87514778828600      h
       -6.88833318404500        1.47656223323000       -6.93975343328200      o
       -6.91106469635500       -0.24372110793300       -6.32723393235000      h
       -8.40478197305800        2.30941308192300       -6.30875588871700      h
        0.05417561404700       -4.94401146451400       -8.80692399575100      o
        0.22997322485100       -5.92375764162700      -10.34474382138000      h
       -1.06053693860500       -5.95941998773700       -7.73093651983500      h
        5.06871685642700        0.99448516646400        3.94004206511100      o
        3.99076135187700        2.27868182242000        4.68586365464800      h
        5.52209329081900        1.62702283862300        2.29238011493500      h
        6.89889307412800       -3.45663126208400        5.49137833454900      o
        6.59684267441900       -1.73843070014000        4.90668974286600      h
        7.37237345138400       -4.44933672981300        4.00200771817000      h
       -6.32771726075300       11.08531788497500       -5.28823505076500      o
       -4.54935715907400       11.18105563360800       -5.74949182831500      h
       -7.06880973211100       10.03458020267200       -6.61403568305300      h
        3.05214019929700       -1.98223670986900       -5.87391738035000      o
        3.72860286022100       -0.62381722204000       -6.90452722099200      h
        2.02469502242000       -3.02873711296700       -6.98186936075100      h
       10.28041864591800        3.90990262846900        2.79904430492700      o
       11.79273183035100        4.72448082576300        2.10536300652800      h
       10.51219945354400        2.09928018108700        2.54219141427200      h
       15.29155083213500       -2.64559881673700        0.16890581673900      o
       16.94537834845700       -2.79631750786100       -0.67097568799500      h
       15.55298816733000       -1.68005395583300        1.70577627731000      h
      -10.04205663164700        0.26916546829700       -0.90094439848000      o
       -9.40552030788300       -0.88353044441100        0.41514343076600      h
      -10.77202976314600        1.70519262675800       -0.04080607866600      h
        6.24168389888900        3.93393552568800       -0.14848214112600      o
        6.50400131422900        4.47936590245800       -1.89576645111300      h
        7.90754919589700        3.96792869085100        0.65812348021200      h
       -9.45276198584200       -2.16207785213600        8.35800021792300      o
       -7.70545800078400       -2.21610195041300        7.80683825812900      h
      -10.26327568157400       -0.81129559082000        7.39995768695700      h
       -6.22232851596800       -3.10158615319200      -11.24590090057900      o
       -7.82307027837900       -2.18262943177100      -11.33252998777800      h
       -4.97543213686100       -1.97047236496900      -10.46222813939500      h
      -11.73639976725400        4.21631418307700      -10.19392855637800      o
      -10.92147003728000        2.67448683206800      -10.75569657339400      h
      -13.46341509005900        3.71939714151700       -9.88054220432700      h
       13.99091842722000       -6.18555821465200        9.79552857845800      o
       12.16490558664600       -6.26885061595400        9.63914486971700      h
       14.69446121248700       -7.05236980307900        8.34494653001500      h
        9.02196234698400      -10.15870339950000       -9.70830771979900      o
        9.68072413996000       -8.42973650530600       -9.54393938054000      h
       10.08756002383800      -11.02656095690900      -10.88101117553700      h
      -18.23917224617700       -6.50721922555800       -0.87509747225300      o
      -16.83943107835000       -7.56248650423900       -1.41253331388400      h
      -18.30006851617200       -6.71487324984400        0.94184824381900      h
       -5.40452203218300        1.99704428871300       -1.49641657126400      o
       -7.11873096077500        1.28607801325400       -1.43567871264900      h
       -5.63126826538200        3.79830154776500       -1.76104911669900      h
        1.33661098192300       -9.13035740292400       -4.66139907145700      o
        2.68785921205300       -8.83679757081800       -3.42137305994600      h
        2.05467844272100       -8.75778220231900       -6.30304969416100      h
        1.86450959514000       -3.74482796501900        5.61101085485000      o
        3.67457141733600       -3.95605597356900        5.90553760567900      h
        1.39348725132300       -2.17135868272200        6.45791586320200      h
        7.79539356509800      -12.07763463399800       -4.83616222246600      o
        9.29513040998800      -11.76231528637500       -3.82282374359800      h
        8.20477733472500      -11.50831098335600       -6.52462360797600      h
        5.91337920983200        0.66882101887700        9.24514817511200      o
        4.40714044855200        0.71565143162000        8.19312220804800      h
        7.39712152181300        0.84344311734000        8.15845041621800      h
      -13.22086520327800       -4.24551864794800        0.67496214935600      o
      -12.41066314206300       -5.02400362139500        2.10989747688700      h
      -11.96151370620100       -4.35517685472700       -0.67758799404900      h
       10.91448817301800        3.75885758394100       -3.06307452591600      o
       10.58032072617800        5.36299691865100       -2.21346617558700      h
       12.62109988683200        3.22368066364000       -2.59167447973900      h
       -3.48593502298300        5.04762155690500       -6.35206856696800      o
       -4.46709593227800        3.49160006157500       -6.29096818616100      h
       -3.55352042584000        5.82992471464100       -4.69591532599100      h
        8.29725342846400       -6.34091057805500        1.65163024484500      o
        7.06242067601300       -7.36776670411000        0.75335751162100      h
        9.39326187561400       -5.64219171549400        0.33462676608600      h
        5.24857463262900       -3.47914101184200       12.01416884637100      o
        5.57327779183100       -2.05841322452100       10.86140650374900      h
        3.87787890091900       -2.90329137385800       13.05977162605200      h
       11.06710786381900        0.63224139317700       12.42917233915200      o
       10.44952325956000        2.38526964877500       12.37781742567700      h
        9.76058584962600       -0.36377942846600       13.19190549571200      h
       -4.40486592092000       -1.77117793251400        6.86138096844900      o
       -3.17244880760700       -2.65696330053900        7.91100174958400      h
       -3.55059360336100       -1.04452318302600        5.40722097242000      h
        1.45627390375800        5.38337690871300       -5.82623425844100      o
       -0.33427933486800        5.16931735936700       -6.25620567917100      h
        1.53289281175800        6.84346176307700       -4.70368643032800      h
       -0.34348827139700       12.82223654451800       -1.53402840193900      o
       -0.31979653528600       14.30118459058500       -2.57275608082600      h
        0.45511453742400       13.30744964759100        0.10034859415500      h
       -7.99240683566000       -8.82000626141800        0.39014445802100      o
       -8.21784969274800       -9.89648980759300        1.85827095650300      h
       -6.43720438024900       -7.86197801810300        0.70097032457500      h
      -11.85555514743800        1.68014109884500        6.00960124420300      o
      -12.99143775811500        0.92656731886000        4.75906447472800      h
      -12.83537754891400        3.01244882008000        6.81620209398300      h
       16.74173116622600        4.36200799936100       -7.37965614924600      o
       14.98190425435100        3.85753018279700       -7.73966611641600      h
       17.49213641738900        4.81281696231600       -8.96081976821900      h
       -5.27316970290800        3.38930521031800      -11.52747766088800      o
       -5.93308653588000        2.61592823319700       -9.99280221716300      h
       -4.33822031411600        2.09097946952600      -12.37694048455500      h
      -15.19084373807000       -0.27669741534200        2.83093900085600      o
      -16.62057523900400       -0.97120369382500        3.75234294950600      h
      -14.47206214378900       -1.67692408324600        1.83135185060700      h
        4.44270228505300        3.61626924860700       13.02210081703100      o
        5.05750215419300        2.55329985513700       11.62258760854500      h
        3.25105199021600        2.56649269207100       13.90160476755900      h
      -14.91911256258400        1.83656875637500       -3.73623129894100      o
      -15.65314114518100        2.66228723811800       -2.27288659682800      h
      -15.11349156235500        0.01179219700400       -3.48575733488600      h
       -7.15838093420700        2.49962867093000        4.47704707435800      o
       -8.87266599966900        2.63976772754700        5.13006521538700      h
       -7.05895906241300        0.78708005933600        3.81359133232600      h
       15.60896002504000       -1.43290703723700       10.26958994137400      o
       14.41180269405400       -0.64585459341200       11.39485079952200      h
       15.07234100289900       -3.21127854568100       10.19015820199800      h
       15.43208117748700        1.82517364975200       -2.46634334003700      o
       15.28445384047700        0.43160273837200       -1.27961441370300      h
       16.94900262588800        2.77633268462800       -2.03546220391300      h
      -19.05826470850200        5.33841182196700        4.76640414650500      o
      -18.05927903364600        5.21197807403900        3.22225882948900      h
      -20.35733564307000        4.07582938975900        4.57165665867800      h
        5.16043990684700        2.16783402937600       -8.17214341447700      o
        3.56304254532800        2.62230236046000       -9.01455347079700      h
        5.55580356608700        3.61206056643500       -7.07854395954200      h
       -6.05524882985300       -6.06393428224800       12.24171981539800      o
       -7.62891800717200       -6.97164826980700       12.40182243488700      h
       -6.41469939827000       -4.38665730137400       12.97614772524400      h
        6.51927613953000       12.74009441467700        0.70706371320600      o
        8.07120970372000       13.03048784768300        1.60802642728800      h
        6.02147464651100       11.00550722398800        1.13552430824400      h
      -10.70436110992400        4.29455054210000       -4.75871977227400      o
      -11.46124874923800        5.66665932451400       -5.75141311079800      h
      -12.06522401548400        3.06097837254000       -4.52553814084900      h
      -15.00511798485100        5.28459592330200        7.81861557580900      o
      -13.98688109443700        6.68587657753800        7.19173188696700      h
      -16.60784309325800        5.41206666042300        6.90100866730400      h
      -10.04685738177800        9.91861416380600        1.19848075860300      o
      -10.82521701764000       10.62708265619700       -0.32912274858500      h
       -8.32086657578600       10.51771444014800        1.14623036107000      h
      -11.53639457655500        5.15731142301900        0.33063386038200      o
      -11.28110644437000        5.09817877661600       -1.49039213533100      h
      -10.85832569997400        6.79152706467400        0.85871522748400      h
       10.43351756233800       -0.92233805776200        1.31975432126500      o
       11.23299841795900       -1.67182704241700       -0.14548388454900      h
       11.13413725412200       -1.86384740304200        2.74771715908600      h
        7.12040718095100       10.71559732990000        6.45809108407300      o
        8.47745373809100       11.40473919514200        5.46311800170700      h
        7.49803643792300        8.92106966614600        6.66184278364500      h
       10.80034556681400       -4.56167688989500       -2.35067527788300      o
        9.41718178725200       -4.64393704219300       -3.54176927746300      h
       12.18538178530200       -5.50493395181000       -3.07465593419500      h
       -0.65247939905800        7.68471940083000        2.83697654638400      o
       -0.32871121937500        9.10620214519400        3.93125520265200      h
       -2.43768056870000        7.22537921206200        3.00042976544400      h
        0.61188079699400       -0.48961397396400       12.96326760923200      o
       -0.36723025192000       -1.93637237416400       12.33866525670400      h
       -0.60684311037900        0.84161745064400       13.29555276260400      h
       -7.78374462557200       -2.24556285752000        2.63309962450000      o
       -6.33694899928200       -3.26950929316200        2.10178975680100      h
       -8.86603614127300       -3.41269088150200        3.55662740704300      h
       10.47102173589200       -5.41468539143200       -8.85757783204800      o
       10.95077630168800       -3.81119749004300       -9.66760012438900      h
        9.14600864576100       -4.98675626386500       -7.64686992256600      h
      -10.55458542360600       -5.88874710054600        4.85890279468900      o
      -11.74204589611400       -5.23781994109100        6.12607640245200      h
       -9.03026417348300       -6.38081983851700        5.78900731505400      h
        6.62356287059700       -5.31530513688400       -5.45940510501200      o
        5.86203585864600       -6.54007800486400       -6.62476148143600      h
        5.38848797093100       -3.89857657129900       -5.46726001699300      h
        7.44156477982400        1.57563929164300      -12.71968100084300      o
        6.67417960892700        1.76411380791400      -11.04288994844600      h
        6.10691233009500        0.95242940938200      -13.78715989610000      h
      -16.29384125368500        1.47030409526700       -8.51122285148800      o
      -15.52195315516800        1.64631244358500       -6.83508732952700      h
      -15.83941269150500       -0.22251449410400       -9.08144637299800      h
       13.64899314078600       -1.24642586115700       -6.03610516445900      o
       11.86304380142900       -1.08804939841900       -5.64106903913400      h
       14.53671942894900       -0.04511174894400       -4.97039391318500      h
       15.13272405639700       -7.65736173187000        0.74852056265600      o
       14.83839503553100       -5.82726318360700        0.64139300732600      h
       16.51278451232000       -7.97500973284500       -0.41027569079600      h
      -19.63541335185100       -4.89178198114600       -6.04639030879700      o
      -20.52569556957200       -3.29673035780100       -5.98843002229500      h
      -20.10487535462100       -5.83774756855600       -4.56455113736400      h
        0.96845534292200        0.60598335574700        7.93559324355700      o
        0.78003309628200        0.30440847836100        9.74161596191800      h
       -0.30885089374400        1.84176806085700        7.43870756388900      h
        8.65433643652800       -0.23870553678000       -5.14126549088700      o
        9.25088814795300        1.25392715155600       -4.22887166315500      h
        7.64760321050100        0.38328625232300       -6.52851790513400      h
        1.21874417109300        6.56993353758200       10.42617060283400      o
       -0.22626911670400        5.59974000073200       11.04197915874200      h
        2.62027872191600        5.89652798119100       11.42295453984500      h
       11.86022876304200        3.40668889343400       -8.03895079637400      o
       10.74736508273200        4.49406419693800       -9.03041723429300      h
       11.40346382628000        3.65201836469700       -6.26027119797200      h
        2.77079978323300       -4.62923945522500        0.62319010382300      o
        2.39228438822200       -4.15703470043300        2.36280363596900      h
        4.08295007102200       -3.47947594668000        0.00713808242600      h
      -15.40168049927200       -3.09575509253700       -3.91203885556200      o
      -16.80146337920900       -3.85861168977700       -4.83503496711100      h
      -15.22342510881900       -3.97599161177100       -2.32427649612200      h
      -13.21770289940300        8.15409870257800       -6.78397605275000      o
      -12.59672817365600        8.27555826132800       -8.48459691143900      h
      -15.00498444264200        7.64501800379700       -6.90417007034700      h
        3.42146050342400       12.60530414269900       -7.27097292294800      o
        3.67427425622900       14.04798109276300       -8.32911216706500      h
        4.86793558003600       12.58469924898100       -6.07250215702800      h
       16.28601279975600        1.55277356173600        2.92244933729800      o
       18.02912632621400        1.18917423246800        2.43788163762000      h
       16.39748651482100        1.87601343243700        4.73591807932200      h
       19.20630308981900       -0.24055730191400       -6.41438454271400      o
       18.44464587291600       -1.18712291699800       -7.80175503044100      h
       18.39195533269900        1.40202364988200       -6.43243677855700      h
       11.24359308523600       11.78036272495900        3.07577505012200      o
       12.00385102678100       12.27505058645200        1.48859196632900      h
       12.57833133192500       10.92854611042800        3.99578083117200      h
       14.49877106624000        5.89678210303300        0.95761253459800      o
       14.93677624053600        7.17129758164600        2.20202052635400      h
       15.40083412994700        4.35475883846600        1.45620243092100      h
        4.01069275954900      -13.71039426335100        0.60843217658300      o
        3.27226141009900      -14.20805827956400       -1.01391604695900      h
        3.05842207713200      -14.42878023802500        2.01560750475200      h
       12.71128179733200       -3.27515447375800        5.11530689697400      o
       14.53454329462300       -3.11016356655200        5.26102471655700      h
       12.34443350267900       -5.09920768515300        5.11298812840100      h
        1.83889049692000      -14.03454329726900        5.13784459521200      o
        0.03094998507700      -13.76747534861900        5.15682620564600      h
        2.59521303296400      -12.52953208363500        5.83335065928600      h
      -19.25558358856900       -1.19741928630900       -0.65861305642600      o
      -18.94007966536600       -2.99939757426500       -0.66417708822200      h
      -19.57739793146100       -0.70980839123700       -2.40417245121200      h
      -14.50920766814500       -4.53227895563800        7.61417983342700      o
      -15.00618527617800       -2.84908410898100        8.13966162661600      h
      -15.88528658657800       -5.25085077408700        6.66973259338500      h
      -13.64144021608200       -9.66540900208000        3.35177849460100      o
      -12.35999311157100       -8.42367653629000        3.83826745559700      h
      -15.23909973040000       -8.93774901249500        3.81619263325900      h
       -0.70154703397500       -8.16558761859900      -12.78197842344900      o
       -2.47216603600800       -8.43460234005500      -12.32263519600200      h
        0.05657054254400       -9.79924112706600      -12.93480666270500      h
       11.14885212773500      -10.28576825995900       -1.37379351316000      o
       12.59884958945500       -9.40653631979600       -0.67046854810000      h
       10.11790089241600      -10.71559486097300        0.08083808930100      h
      -10.68451452524600       -0.85359729252200      -10.71137562090300      o
      -10.70036394099800       -0.89789351039000       -8.85428124613700      h
      -12.15700866038700       -1.79823590057500      -11.20507095788700      h
       -3.26471400811900      -12.56097943135300       -4.54034013498600      o
       -3.11959449844800      -11.95251109240800       -2.77488466189900      h
       -1.86299798577900      -13.67676325547300       -4.80821090063500      h
       17.89822464763500       -3.15003366622400        5.61362060985000      o
       17.89033938533200       -4.98880829894300        5.68872646587300      h
       17.81681423102000       -2.55673309658100        7.33356981515000      h
        5.21383841286000       -9.33788429438600        6.31880300090700      o
        6.11416931067700       -9.99257293728000        4.85973693805400      h
        6.48155123653700       -8.55453242151800        7.37946600256400      h
       -8.36968979468200      -11.40738704021400        4.92871910236700      o
      -10.15197633927100      -11.65707537054800        5.15065964342500      h
       -7.85058960318900      -10.02534678134100        6.03728960688900      h
       -9.86301167552100       -5.37406699902400       -2.82405808556500      o
       -8.45874376177800       -4.65542595065400       -3.79514365016400      h
       -9.20088200615400       -6.73572235454700       -1.78264899818300      h
      -10.83497066710700       -6.77348104773100       10.63639988895200      o
      -10.36899674430500       -5.14106916933700        9.94006485445000      h
      -12.64404355187100       -6.75763568827600       10.68686014474600      h
       18.48000975041900       -7.79602135379000       -3.29418708997400      o
       19.31425095118400       -9.10536163874500       -4.21880056939700      h
       17.03306108032700       -7.25011902098700       -4.32131422899800      h
       13.03571152981900        5.24744112908400        8.00492357400200      o
       12.08698808335000        3.78239540697600        7.35934599022600      h
       12.16716913251300        5.75460778246600        9.52160471200100      h
      -16.23093230631300        0.11478456368300        9.46271731990100      o
      -14.99191848436600       -0.18311257743800       10.82676946756900      h
      -16.03311121721300        1.87411242992600        9.02983235693100      h
       -5.63374718671800        6.85913926120000        2.60404741995100      o
       -6.05781829400600        6.97510895914200        0.82158913461200      h
       -6.31738805632000        5.25512194741700        3.22869968637700      h
      -20.40661700580300        0.35529889190600       -5.46861858576500      o
      -19.09311063687800        0.68689289993300       -6.72633453315800      h
      -20.81739784717900        1.98859255913600       -4.76038137277500      h
      -18.44364047937400       -6.68158088350200        4.44629694896600      o
      -18.95133276702000       -4.92752645493500        4.76843438605100      h
      -19.73816397004700       -7.73514677936100        5.14559854820700      h
      -17.87144013217800        6.35254454452600       -7.19290552848000      o
      -17.64555417007100        4.77711479533300       -8.08527942357200      h
      -18.68795826959800        5.93859464558200       -5.60316749551900      h
       14.54383703203700       -6.02146370896600       -5.84946259123100      o
       14.47868278372400       -4.14202146233600       -5.74545681762700      h
       13.15834673961600       -6.40927648837400       -6.99151049177700      h
       -3.26380566674400      -12.51413029993000        4.91687532982800      o
       -2.89277419951900      -10.84368408272100        5.55894397994400      h
       -5.06829652808600      -12.73333433583300        5.08063537821000      h
       -3.39496726371000       -7.88840223236300       -6.59930204975200      o
       -4.18367412386500       -8.20211669526400       -8.24804136689500      h
       -3.23930867985500       -9.54756400681300       -5.80018250878700      h
       -5.31569645547500       12.19217782997700       -0.16494699432100      o
       -6.07520989507400       12.31733575172900       -1.81429040866200      h
       -3.50565205371800       12.21904204651600       -0.49765873348400      h
        6.47945255773100        5.79673982249400       -4.84974151100100      o
        8.04843470258000        6.67722278995900       -5.25637596313200      h
        5.30336479821500        7.12987730406300       -4.40512307917400      h
        5.28908358269200       -3.64576750350200      -10.82157506276800      o
        4.19924102313100       -2.61031934497700      -11.91348887119600      h
        6.97034000138300       -3.47559834638400      -11.47182796838200      h
       -2.92689211116100      -10.74756468805900        0.03256055844100      o
       -3.30155835834700      -11.75321952307600        1.51599727735800      h
       -1.21383113684800      -10.11946303720600        0.32141253159700      h
       11.54861946562100       -0.94917665226200      -10.92158921360300      o
       10.23561780772700       -0.13210344941900      -11.91870181061800      h
       11.94386230768900        0.27898687861200       -9.60413692379800      h
       19.68034826043000       -2.82465957966500       -2.17543749272200      o
       19.74551829400200       -4.58238158627600       -2.67702367898400      h
       19.55850564723800       -1.82179364963600       -3.74999052019000      h
       -8.44278221838200      -11.58216734275400       -3.91851158078900      o
       -6.82799489437600      -12.35827763139300       -4.26503025678000      h
       -8.17375350067000      -10.63413898700000       -2.35770275672800      h
      -11.59923263501500        8.71466513942800        5.95868759515500      o
      -11.10072917456800       10.21299624704200        6.90589114505800      h
      -11.24287076905000        9.13912508995600        4.20416332100100      h
      -15.26122169951100       -3.49343792437300       -9.62144252457100      o
      -16.93569443025600       -4.18753516090200       -9.64924658535000      h
      -14.28883488889900       -4.63726244396800       -8.53316311645700      h
       -7.18222843305900       -1.48144458437200       14.01043709550200      o
       -6.74673819714000       -0.30920473888100       12.65901501682100      h
       -8.99620671927600       -1.36352847380500       14.18691068225400      h
      -21.91372563968500        1.23928512668900        2.80880762941300      o
      -23.64956485318400        1.10913255135000        2.32271544793900      h
      -20.91170611148300        0.46002066169700        1.43615361967700      h
        4.07273445234600        7.91155522782700       -9.51514256961800      o
        3.11923971071600        6.86346412731300       -8.33641800632200      h
        3.92548278586300        9.61936426519900       -8.87273509749800      h
       15.04978253903000        8.83513641043500        5.10673788287900      o
       16.71476607082500        9.09879296249400        5.76318274598600      h
       14.22542404845600        7.57387474076300        6.19405734176900      h
        3.11889322152700        9.18220195214000       -2.84194197706100      o
        2.00580874903800       10.63267145436300       -2.74513665099700      h
        3.58152164494000        8.81668029366900       -1.09728885440000      h
       -2.37467285310000        3.73244036998100       12.79031901314100      o
       -3.70709584610600        2.99081113387200       11.68106628070100      h
       -3.24535284830600        4.46673984951700       14.19257798965100      h
       20.94948988322000       -0.49717061387000        2.26898963402200      o
       20.88173227814100       -1.35123909897400        0.64604217101100      h
       20.27268235902700       -1.67245734709000        3.50424975687700      h
      -11.06179612971300       -1.24195716346500       -5.74316150830100      o
      -12.57217292765000       -2.23895309276900       -5.48399485174400      h
      -10.55851317477200       -0.74859961367200       -4.05023267439700      h
      -12.88514436315700       -6.84813628782900       -6.55453440932100      o
      -14.03604638226500       -7.96152783133600       -5.69949766038700      h
      -11.75227229340900       -6.23431373808500       -5.19722377564000      h
       -6.23029740242400       -3.81389253763500       -5.90282022001500      o
       -6.82491757752400       -3.90593628702000       -7.62765728482000      h
       -5.05392568116000       -5.23155064524100       -5.74216818557200      h
        2.60531475199800       -0.64168858181900      -13.83384569869800      o
        1.08039637757700       -1.53763159399600      -14.33300252735700      h
        2.00810206149100        0.81239565169500      -12.86857464169900      h
        4.29422906683500       -8.21704225725800       -8.89905777338200      o
        5.66383542652600       -9.26845925635600       -9.48977787065200      h
        4.36114975783400       -6.63850105596000       -9.86652658071500      h
       -3.69083781377900        8.76299070768800        9.15311835773100      o
       -3.80769438958900        9.93822538632900        7.74716088934000      h
       -2.04970674042200        8.96521250214000        9.90020597332500      h
      -16.33442752566500        4.03415718600600        0.64768161164000      o
      -14.61124120186100        4.75673996403400        0.69314655036400      h
      -16.13030567394400        2.34550904020300        1.42140461383400      h
       11.52971162574100       -8.17678222246400        5.03057789898200      o
       10.31039962771600       -7.91657561324500        3.66264350947400      h
       10.56213510516300       -8.42940857209200        6.54364733718900      h
        8.08291147771500      -11.76277121072800        2.64418840238900      o
        8.90313547713700      -13.10129632365500        3.54102247553100      h
        6.67036138023000      -12.53170749079400        1.71850263180200      h
       -1.82618798547800       -3.27244034239100      -14.50378745129800      o
       -3.48296710595600       -3.19413175142900      -13.73886676517400      h
       -1.29954797396200       -5.01229317147900      -14.35688125733100      h
       12.68043285420100       12.13319150486500       -2.02853460974500      o
       11.67898905822200       12.95748995506700       -3.30443002274900      h
       13.88983568719500       11.04643287600800       -2.87298825765900      h
        0.91608191516000        2.94978230508200      -10.65664547660300      o
        0.19425527374300        4.63793268856600      -10.71924817782200      h
       -0.41889116437100        1.81215863055000      -10.03631091668600      h
        8.74674774479200        6.41784262422800      -10.70979517317100      o
        7.03688619083900        6.99194423263800      -10.24228509611300      h
        8.48304373585500        5.21875402129000      -12.05688573447000      h
      -20.20497020658100        4.89430292167100       -2.68073540272700      o
      -21.31193108090100        6.15693584357700       -2.00932342368600      h
      -18.89978184002100        4.60822697010800       -1.40695918887400      h
       16.79496670964300       -8.09857317678400        5.55115990660700      o
       17.44957501121600       -9.76485867457700        5.78792530899800      h
       15.88789089878900       -8.10188912104800        3.92452713992300      h
       16.69830169743100       -2.94633373588300      -10.11787278217500      o
       16.23805877712900       -4.36728225793400       -9.07843216864600      h
       15.12679638841600       -2.12317026188900      -10.55267547966800      h
       -1.97215990800500        7.23707736118500      -10.86619225021100      o
       -3.36529321743700        6.00867720487500      -10.97770906765700      h
       -2.00758055967900        8.20530316363200      -12.39115353879700      h
        2.16639661500200       -7.26516943093900       10.01505694764700      o
        3.44373567753100       -6.13813675345800       10.69711595770400      h
        2.87777943972900       -8.03977214497100        8.52256819425700      h
        2.02765014222300       10.48489052401800        6.55040230602500      o
        1.75563393899400        9.42242405937900        8.00649430136100      h
        3.85541248503400       10.76462866715000        6.52147363210600      h
       -5.93349183655400        1.68289475458600       10.13137580345000      o
       -5.30591874450500        0.53887220890800        8.79880405764200      h
       -6.88395488687500        3.00993626521300        9.29352869131200      h
       -7.72628346671600        7.45285428062400       -8.44934556484900      o
       -6.19337907585100        6.50825137006100       -8.08765092891600      h
       -8.87755049961900        6.30601683375400       -9.27730073378400      h
       17.36770772538500        2.70683986817600        7.75053710452300      o
       15.95268553924600        3.83250181328700        8.10778370899800      h
       17.04681734472100        1.21135074133800        8.76537892066600      h
       10.45057865997500        8.65683906938900       -6.15135135814400      o
       10.46979279173900        8.38292623307400       -7.94959375503000      h
       12.11723057752000        8.22962159069300       -5.45621029728300      h
       -9.45369709877600       -9.97794243256000       -8.74194545925900      o
       -9.01993569376000      -10.72425973614200       -7.11511847088800      h
      -10.77822805178700       -8.76835435370000       -8.34640875535700      h
       -5.51531247657900       -8.19088568866300      -11.14288896049700      o
       -5.96163400672200       -6.42545140847500      -11.40244215029200      h
       -7.05936264098000       -9.02635409560100      -10.50623214383800      h
        1.93013462917900       14.10553410458300        2.62698945680300      o
        1.76913669136100       13.05533130902100        4.11072429113800      h
        3.67938384162600       13.93592310145800        2.06784069028200      h
       -8.94540490968900       12.43222954119400        8.12844069036500      o
       -8.25086188454100       12.66254857285400        9.78121171930200      h
       -7.52525122092400       12.19113652842900        6.96879539835100      h
       -5.09067011005000       11.25505610426300        4.94433550640500      o
       -5.50359574597000        9.61669798055900        4.16367356412900      h
       -4.95638146147900       12.39586284867900        3.53214130157400      h
        7.50064354201500       12.63185476734200       -4.38986663051200      o
        7.07226697742100       12.57747855208300       -2.59351716417300      h
        8.37037402193000       11.07036534600900       -4.80052874173000      h
      -11.66233451471400        4.60048694647200       11.95828563740600      o
      -13.16077387471300        5.09309018588600       11.04736778145000      h
      -10.25338341844100        5.08901982182700       10.87661407030200      h
        9.61151732918400        8.11658012458800       -0.73547075775700      o
       10.69224670292900        9.50048770576400       -1.25968786905200      h
        9.52370584159300        8.21685043552300        1.07404634923300      h
       20.88549510196300        4.46236599811600        4.10560356165000      o
       19.83019896962300        4.12373751812400        5.56158172915400      h
       21.73377400495300        2.88232867243800        3.76986688694800      h
       -6.93924724921100        6.79824395080800       -2.42250223053800      o
       -6.52991637830400        8.40819472004500       -3.21147744254900      h
       -8.26000683060300        6.04966381775400       -3.44894846237300      h
      -11.35140839479800       11.55528564454900       -3.36400516171100      o
       -9.74841635787600       11.89812587732900       -4.15710682976100      h
      -12.23433938204400       10.42696680919400       -4.51342067117500      h
       14.92198241549500        7.79414926314100       -3.89116803828600      o
       15.92074587710000        6.65799010051900       -4.93229195997600      h
       14.90910087141700        7.03614655474800       -2.20762332871200      h
       10.65226373918600        0.79538159992000        7.36030282801600      o
       11.33054201837800       -0.68480950655400        6.50067774964500      h
       11.01026880841400        0.51391967013100        9.14607512820900      h
      -19.18671171659900       -1.86947249717400        5.75574425250200      o
      -20.40046734302200       -0.68831918779000        5.03518279564800      h
      -18.51742349831900       -1.12125477954200        7.29725818395900      h
       -1.43909176067000       -7.45388946210600        5.16680803649800      o
       -0.36089130965300       -6.06703071424500        5.74483470094700      h
       -0.31203939545700       -8.39635270419600        4.04111702097700      h
      -13.87940884270000       -9.49141926487900       -1.86090541003200      o
      -12.50093805278000      -10.42479656533200       -2.59131350031900      h
      -13.66208059053800       -9.67602274368300       -0.03817606410400      h
       -1.67021777145100       -4.16766854078300       10.35548706722600      o
       -0.31989349788000       -5.42506538017100       10.10074220933100      h
       -3.02707658280700       -5.03925122103700       11.21703604705200      h
       19.53224525691100        4.42230717038000       -0.92457153166400      o
       19.95624390473600        4.70190484545800        0.84823622145100      h
       21.04220051084600        3.85168238200600       -1.73934564875300      h
        2.54908398841600      -14.04857613647300       -4.21619902015400      o
        4.28625902764601      -13.94976044208700       -4.75611331598000      h
        1.88248403512300      -12.32857414205600       -4.42248027985900      h
       -2.52705936305700        4.15327968401399        6.76341042772700      o
       -3.92689984977800        3.45048672972100        5.82186748897700      h
       -3.13326553903700        5.63202301266699        7.64656585848001      h
        9.18089340895000        5.27919504534300       11.60520776421900      o
        8.47763210913500        5.34408275366900        9.88899365724800      h
        7.74019690453100        5.36233097223400       12.71344846507601      h
       -2.62230999164746        0.25511082543799        2.58671331410800      o
       -0.97588209145157        0.49715475936463        1.78906487603673      h
       -3.75616947022076        0.82642368175858        1.26964325870008      h
        1.15106274991931        1.14002168091488       -0.63010321213746      o
        2.92406657265767        0.82950615994904       -0.87077810862219      h
        0.36611683950254        0.76307894713760       -2.23641224461790      h
$end
 
 Bond Distances (Angstroems)
 ---------------------------
O1-H2=0.9829         O1-H3=0.9725         H2-O1=0.9829         H3-O1=0.9725         O4-H5=0.9728         O4-H6=0.9747         
H5-O4=0.9728         H6-O4=0.9747         O7-H8=0.9879         O7-H9=0.9626         H8-O7=0.9879         H9-O7=0.9626         
O10-H11=0.9756       O10-H12=0.9779       H11-O10=0.9756       H12-O10=0.9779       O13-H14=0.9815       O13-H15=0.9746       
H14-O13=0.9815       H15-O13=0.9746       O16-H17=0.9805       O16-H18=0.9748       H17-O16=0.9805       H18-O16=0.9748       
O19-H20=0.9766       O19-H21=0.9681       H20-O19=0.9766       H21-O19=0.9681       O22-H23=0.9839       O22-H24=0.9636       
H23-O22=0.9839       H24-O22=0.9636       O25-H26=0.9762       O25-H27=0.9794       H26-O25=0.9762       H27-O25=0.9794       
O28-H29=0.9779       O28-H30=0.9773       H29-O28=0.9779       H30-O28=0.9773       O31-H32=0.9775       O31-H33=0.9763       
H32-O31=0.9775       H33-O31=0.9763       O34-H35=0.9787       O34-H36=0.9704       H35-O34=0.9787       H36-O34=0.9704       
O37-H38=0.9673       O37-H39=0.9646       H38-O37=0.9673       H39-O37=0.9646       O40-H41=0.9646       O40-H42=0.9800       
H41-O40=0.9646       H42-O40=0.9800       O43-H44=0.9851       O43-H45=0.9818       H44-O43=0.9851       H45-O43=0.9818       
O46-H47=0.9730       O46-H48=0.9674       H47-O46=0.9730       H48-O46=0.9674       O49-H50=0.9664       O49-H51=0.9745       
H50-O49=0.9664       H51-O49=0.9745       O52-H53=0.9694       O52-H54=0.9802       H53-O52=0.9694       H54-O52=0.9802       
O55-H56=0.9711       O55-H57=0.9643       H56-O55=0.9711       H57-O55=0.9643       O58-H59=0.9736       O58-H60=0.9797       
H59-O58=0.9736       H60-O58=0.9797       O61-H62=0.9735       O61-H63=0.9773       H62-O61=0.9735       H63-O61=0.9773       
O64-H65=0.9707       O64-H66=0.9726       H65-O64=0.9707       H66-O64=0.9726       O67-H68=0.9803       O67-H69=0.9755       
H68-O67=0.9803       H69-O67=0.9755       O70-H71=0.9848       O70-H72=0.9704       H71-O70=0.9848       H72-O70=0.9704       
O73-H74=0.9852       O73-H75=0.9664       H74-O73=0.9852       H75-O73=0.9664       O76-H77=0.9785       O76-H78=0.9796       
H77-O76=0.9785       H78-O76=0.9796       O79-H80=0.9700       O79-H81=0.9757       H80-O79=0.9700       H81-O79=0.9757       
O82-H83=0.9778       O82-H84=0.9827       H83-O82=0.9778       H84-O82=0.9827       O85-H86=0.9696       O85-H87=0.9653       
H86-O85=0.9696       H87-O85=0.9653       O88-H89=0.9708       O88-H90=0.9686       H89-O88=0.9708       H90-O88=0.9686       
O91-H92=0.9829       O91-H93=0.9560       H92-O91=0.9829       H93-O91=0.9560       O94-H95=0.9702       O94-H96=0.9683       
H95-O94=0.9702       H96-O94=0.9683       O97-H98=0.9826       O97-H99=0.9709       H98-O97=0.9826       H99-O97=0.9709       
O100-H101=0.9829     O100-H102=0.9685     H101-O100=0.9829     H102-O100=0.9685     O103-H104=0.9769     O103-H105=0.9779     
H104-O103=0.9769     H105-O103=0.9779     O106-H107=0.9722     O106-H108=0.9675     H107-O106=0.9722     H108-O106=0.9675     
O109-H110=0.9726     O109-H111=0.9776     H110-O109=0.9726     H111-O109=0.9776     O112-H113=0.9644     O112-H114=0.9797     
H113-O112=0.9644     H114-O112=0.9797     O115-H116=0.9767     O115-H117=0.9788     H116-O115=0.9767     H117-O115=0.9788     
O118-H119=0.9740     O118-H120=0.9699     H119-O118=0.9740     H120-O118=0.9699     O121-H122=0.9738     O121-H123=0.9792     
H122-O121=0.9738     H123-O121=0.9792     O124-H125=0.9833     O124-H126=0.9618     H125-O124=0.9833     H126-O124=0.9618     
O127-H128=0.9839     O127-H129=0.9585     H128-O127=0.9839     H129-O127=0.9585     O130-H131=0.9765     O130-H132=0.9718     
H131-O130=0.9765     H132-O130=0.9718     O133-H134=0.9810     O133-H135=0.9754     H134-O133=0.9810     H135-O133=0.9754     
O136-H137=0.9565     O136-H138=0.9963     H137-O136=0.9565     H138-O136=0.9963     O139-H140=0.9707     O139-H141=0.9805     
H140-O139=0.9707     H141-O139=0.9805     O142-H143=0.9789     O142-H144=0.9737     H143-O142=0.9789     H144-O142=0.9737     
O145-H146=0.9873     O145-H147=0.9564     H146-O145=0.9873     H147-O145=0.9564     O148-H149=0.9742     O148-H150=0.9586     
H149-O148=0.9742     H150-O148=0.9586     O151-H152=0.9722     O151-H153=0.9867     H152-O151=0.9722     H153-O151=0.9867     
O154-H155=0.9853     O154-H156=0.9607     H155-O154=0.9853     H156-O154=0.9607     O157-H158=0.9703     O157-H159=0.9801     
H158-O157=0.9703     H159-O157=0.9801     O160-H161=0.9736     O160-H162=0.9733     H161-O160=0.9736     H162-O160=0.9733     
O163-H164=0.9640     O163-H165=0.9839     H164-O163=0.9640     H165-O163=0.9839     O166-H167=0.9718     O166-H168=0.9745     
H167-O166=0.9718     H168-O166=0.9745     O169-H170=0.9755     O169-H171=0.9642     H170-O169=0.9755     H171-O169=0.9642     
O172-H173=0.9854     O172-H174=0.9812     H173-O172=0.9854     H174-O172=0.9812     O175-H176=0.9651     O175-H177=0.9874     
H176-O175=0.9651     H177-O175=0.9874     O178-H179=0.9620     O178-H180=0.9815     H179-O178=0.9620     H180-O178=0.9815     
O181-H182=0.9816     O181-H183=0.9798     H182-O181=0.9816     H183-O181=0.9798     O184-H185=0.9748     O184-H186=0.9796     
H185-O184=0.9748     H186-O184=0.9796     O187-H188=0.9817     O187-H189=0.9672     H188-O187=0.9817     H189-O187=0.9672     
O190-H191=0.9736     O190-H192=0.9771     H191-O190=0.9736     H192-O190=0.9771     O193-H194=0.9682     O193-H195=0.9781     
H194-O193=0.9682     H195-O193=0.9781     O196-H197=0.9622     O196-H198=0.9764     H197-O196=0.9622     H198-O196=0.9764     
O199-H200=0.9669     O199-H201=0.9660     H200-O199=0.9669     H201-O199=0.9660     O202-H203=0.9646     O202-H204=0.9793     
H203-O202=0.9646     H204-O202=0.9793     O205-H206=0.9817     O205-H207=0.9711     H206-O205=0.9817     H207-O205=0.9711     
O208-H209=0.9792     O208-H210=0.9738     H209-O208=0.9792     H210-O208=0.9738     O211-H212=0.9840     O211-H213=0.9764     
H212-O211=0.9840     H213-O211=0.9764     O214-H215=0.9814     O214-H216=0.9802     H215-O214=0.9814     H216-O214=0.9802     
O217-H218=0.9812     O217-H219=0.9946     H218-O217=0.9812     H219-O217=0.9946     O220-H221=0.9809     O220-H222=0.9626     
H221-O220=0.9809     H222-O220=0.9626     O223-H224=0.9809     O223-H225=0.9754     H224-O223=0.9809     H225-O223=0.9754     
O226-H227=0.9715     O226-H228=0.9710     H227-O226=0.9715     H228-O226=0.9710     O229-H230=0.9825     O229-H231=0.9683     
H230-O229=0.9825     H231-O229=0.9683     O232-H233=0.9671     O232-H234=0.9629     H233-O232=0.9671     H234-O232=0.9629     
O235-H236=0.9741     O235-H237=0.9766     H236-O235=0.9741     H237-O235=0.9766     O238-H239=0.9781     O238-H240=0.9649     
H239-O238=0.9781     H240-O238=0.9649     O241-H242=0.9770     O241-H243=0.9774     H242-O241=0.9770     H243-O241=0.9774     
O244-H245=0.9763     O244-H246=0.9804     H245-O244=0.9763     H246-O244=0.9804     O247-H248=0.9747     O247-H249=0.9791     
H248-O247=0.9747     H249-O247=0.9791     O250-H251=0.9748     O250-H252=0.9653     H251-O250=0.9748     H252-O250=0.9653     
O253-H254=0.9602     O253-H255=0.9855     H254-O253=0.9602     H255-O253=0.9855     O256-H257=0.9562     O256-H258=0.9941     
H257-O256=0.9562     H258-O256=0.9941     O259-H260=0.9765     O259-H261=0.9766     H260-O259=0.9765     H261-O259=0.9766     
O262-H263=0.9759     O262-H264=0.9702     H263-O262=0.9759     H264-O262=0.9702     O265-H266=0.9674     O265-H267=0.9691     
H266-O265=0.9674     H267-O265=0.9691     O268-H269=0.9707     O268-H270=0.9815     H269-O268=0.9707     H270-O268=0.9815     
O271-H272=0.9793     O271-H273=0.9762     H272-O271=0.9793     H273-O271=0.9762     O274-H275=0.9718     O274-H276=0.9846     
H275-O274=0.9718     H276-O274=0.9846     O277-H278=0.9672     O277-H279=0.9643     H278-O277=0.9672     H279-O277=0.9643     
O280-H281=0.9681     O280-H282=0.9741     H281-O280=0.9681     H282-O280=0.9741     O283-H284=0.9695     O283-H285=0.9616     
H284-O283=0.9695     H285-O283=0.9616     O286-H287=0.9787     O286-H288=0.9610     H287-O286=0.9787     H288-O286=0.9610     
O289-H290=0.9784     O289-H291=0.9565     H290-O289=0.9784     H291-O289=0.9565     O292-H293=0.9715     O292-H294=0.9705     
H293-O292=0.9715     H294-O292=0.9705     O295-H296=0.9830     O295-H297=0.9619     H296-O295=0.9830     H297-O295=0.9619     
O298-H299=0.9911     O298-H300=0.9586     H299-O298=0.9911     H300-O298=0.9586     O301-H302=0.9739     O301-H303=0.9638     
[...]
   160   8 o      162   1 h                                       0.9732951
   163   8 o      164   1 h                                       0.9640397
   163   8 o      165   1 h                                       0.9838819
   166   8 o      167   1 h                                       0.9717515
   166   8 o      168   1 h                                       0.9745217
   169   8 o      170   1 h                                       0.9755168
   169   8 o      171   1 h                                       0.9641526
   172   8 o      173   1 h                                       0.9854461
   172   8 o      174   1 h                                       0.9812012
   175   8 o      176   1 h                                       0.9650795
   175   8 o      177   1 h                                       0.9874293
   178   8 o      179   1 h                                       0.9619622
   178   8 o      180   1 h                                       0.9815029
   181   8 o      182   1 h                                       0.9816205
   181   8 o      183   1 h                                       0.9797673
   184   8 o      185   1 h                                       0.9748038
   184   8 o      186   1 h                                       0.9796183
   187   8 o      188   1 h                                       0.9816693
   187   8 o      189   1 h                                       0.9672074
   190   8 o      191   1 h                                       0.9735717
   190   8 o      192   1 h                                       0.9770894
   193   8 o      194   1 h                                       0.9682391
   193   8 o      195   1 h                                       0.9781031
   196   8 o      197   1 h                                       0.9622392
   196   8 o      198   1 h                                       0.9763927
   199   8 o      200   1 h                                       0.9669060
   199   8 o      201   1 h                                       0.9659779
   202   8 o      203   1 h                                       0.9646257
   202   8 o      204   1 h                                       0.9792859
   205   8 o      206   1 h                                       0.9817481
   205   8 o      207   1 h                                       0.9711345
   208   8 o      209   1 h                                       0.9791887
   208   8 o      210   1 h                                       0.9738078
   211   8 o      212   1 h                                       0.9839672
   211   8 o      213   1 h                                       0.9764140
   214   8 o      215   1 h                                       0.9814059
   214   8 o      216   1 h                                       0.9801622
   217   8 o      218   1 h                                       0.9811990
   217   8 o      219   1 h                                       0.9945987
   220   8 o      221   1 h                                       0.9809112
   220   8 o      222   1 h                                       0.9626371
   223   8 o      224   1 h                                       0.9809383
   223   8 o      225   1 h                                       0.9753664
   226   8 o      227   1 h                                       0.9715487
   226   8 o      228   1 h                                       0.9710012
   229   8 o      230   1 h                                       0.9825279
   229   8 o      231   1 h                                       0.9683041
   232   8 o      233   1 h                                       0.9671287
   232   8 o      234   1 h                                       0.9629126
   235   8 o      236   1 h                                       0.9740554
   235   8 o      237   1 h                                       0.9765536
   238   8 o      239   1 h                                       0.9780892
   238   8 o      240   1 h                                       0.9649116
   241   8 o      242   1 h                                       0.9769821
   241   8 o      243   1 h                                       0.9773823
   244   8 o      245   1 h                                       0.9763079
   244   8 o      246   1 h                                       0.9804102
   247   8 o      248   1 h                                       0.9746788
   247   8 o      249   1 h                                       0.9790801
   250   8 o      251   1 h                                       0.9747876
   250   8 o      252   1 h                                       0.9653070
   253   8 o      254   1 h                                       0.9602013
   253   8 o      255   1 h                                       0.9854618
   256   8 o      257   1 h                                       0.9561708
   256   8 o      258   1 h                                       0.9940996
   259   8 o      260   1 h                                       0.9765371
   259   8 o      261   1 h                                       0.9765549
   262   8 o      263   1 h                                       0.9758845
   262   8 o      264   1 h                                       0.9702231
   265   8 o      266   1 h                                       0.9673757
   265   8 o      267   1 h                                       0.9690633
   268   8 o      269   1 h                                       0.9706890
   268   8 o      270   1 h                                       0.9814983
   271   8 o      272   1 h                                       0.9793303
   271   8 o      273   1 h                                       0.9761908
   274   8 o      275   1 h                                       0.9718349
   274   8 o      276   1 h                                       0.9845759
   277   8 o      278   1 h                                       0.9671552
   277   8 o      279   1 h                                       0.9643246
   280   8 o      281   1 h                                       0.9680762
   280   8 o      282   1 h                                       0.9740753
   283   8 o      284   1 h                                       0.9694583
   283   8 o      285   1 h                                       0.9615777
   286   8 o      287   1 h                                       0.9787173
   286   8 o      288   1 h                                       0.9609611
   289   8 o      290   1 h                                       0.9783995
   289   8 o      291   1 h                                       0.9564683
   292   8 o      293   1 h                                       0.9714702
   292   8 o      294   1 h                                       0.9705123
   295   8 o      296   1 h                                       0.9830474
   295   8 o      297   1 h                                       0.9619267
   298   8 o      299   1 h                                       0.9911486
   298   8 o      300   1 h                                       0.9586052
   301   8 o      302   1 h                                       0.9738580
   301   8 o      303   1 h                                       0.9637506
   304   8 o      305   1 h                                       0.9711645
   304   8 o      306   1 h                                       0.9679377
   307   8 o      308   1 h                                       0.9595703
   307   8 o      309   1 h                                       0.9769634
   310   8 o      311   1 h                                       0.9802529
   310   8 o      312   1 h                                       0.9724565
   313   8 o      314   1 h                                       0.9709765
   313   8 o      315   1 h                                       0.9577293
   316   8 o      317   1 h                                       0.9562221
   316   8 o      318   1 h                                       0.9824272
   319   8 o      320   1 h                                       0.9847825
   319   8 o      321   1 h                                       0.9630307
   322   8 o      323   1 h                                       0.9878106
   322   8 o      324   1 h                                       0.9644620
   325   8 o      326   1 h                                       0.9715041
   325   8 o      327   1 h                                       0.9801110
   328   8 o      329   1 h                                       0.9782057
   328   8 o      330   1 h                                       0.9668156
   331   8 o      332   1 h                                       0.9812252
   331   8 o      333   1 h                                       0.9576230
   334   8 o      335   1 h                                       0.9655614
   334   8 o      336   1 h                                       0.9707660
   337   8 o      338   1 h                                       0.9966763
   337   8 o      339   1 h                                       0.9720535
   340   8 o      341   1 h                                       0.9671512
   340   8 o      342   1 h                                       0.9658108
   343   8 o      344   1 h                                       0.9813088
   343   8 o      345   1 h                                       0.9779962
   346   8 o      347   1 h                                       0.9631693
   346   8 o      348   1 h                                       0.9739851
   349   8 o      350   1 h                                       0.9760856
   349   8 o      351   1 h                                       0.9697270
   352   8 o      353   1 h                                       0.9832144
   352   8 o      354   1 h                                       0.9581484
   355   8 o      356   1 h                                       0.9688860
   355   8 o      357   1 h                                       0.9775503
   358   8 o      359   1 h                                       0.9737171
   358   8 o      360   1 h                                       0.9757953
   361   8 o      362   1 h                                       0.9678915
   361   8 o      363   1 h                                       0.9899721
   364   8 o      365   1 h                                       0.9656522
   364   8 o      366   1 h                                       0.9767956
   367   8 o      368   1 h                                       0.9744187
   367   8 o      369   1 h                                       0.9736740
   370   8 o      371   1 h                                       0.9593158
   370   8 o      372   1 h                                       0.9812240
   373   8 o      374   1 h                                       0.9743387
   373   8 o      375   1 h                                       0.9664643
   376   8 o      377   1 h                                       0.9563864
   376   8 o      378   1 h                                       0.9893599
   379   8 o      380   1 h                                       0.9753296
   379   8 o      381   1 h                                       0.9686954
   382   8 o      383   1 h                                       0.9572998
   382   8 o      384   1 h                                       0.9832751
   385   8 o      386   1 h                                       0.9688700
   385   8 o      387   1 h                                       0.9745264
   388   8 o      389   1 h                                       0.9978614 (max)
   388   8 o      390   1 h                                       0.9559832
   391   8 o      392   1 h                                       0.9711495
   391   8 o      393   1 h                                       0.9707533
   394   8 o      395   1 h                                       0.9674550
   394   8 o      396   1 h                                       0.9703881
   397   8 o      398   1 h                                       0.9606140
   397   8 o      399   1 h                                       0.9903492
   400   8 o      401   1 h                                       0.9666880
   400   8 o      402   1 h                                       0.9785365
   403   8 o      404   1 h                                       0.9724843
   403   8 o      405   1 h                                       0.9761524
   406   8 o      407   1 h                                       0.9656941
   406   8 o      408   1 h                                       0.9803738
   409   8 o      410   1 h                                       0.9716635
   409   8 o      411   1 h                                       0.9601826
   412   8 o      413   1 h                                       0.9890894
   412   8 o      414   1 h                                       0.9888461
   415   8 o      416   1 h                                       0.9794317
   415   8 o      417   1 h                                       0.9597536
   418   8 o      419   1 h                                       0.9567326
   418   8 o      420   1 h                                       0.9819703
   421   8 o      422   1 h                                       0.9665496
   421   8 o      423   1 h                                       0.9650805
   424   8 o      425   1 h                                       0.9627924
   424   8 o      426   1 h                                       0.9695361
   427   8 o      428   1 h                                       0.9721325
   427   8 o      429   1 h                                       0.9844910
   430   8 o      431   1 h                                       0.9860015
   430   8 o      432   1 h                                       0.9644981
   433   8 o      434   1 h                                       0.9569770
   433   8 o      435   1 h                                       0.9768821
   436   8 o      437   1 h                                       0.9556123 (min)
   436   8 o      438   1 h                                       0.9855678
   439   8 o      440   1 h                                       0.9629507
   439   8 o      441   1 h                                       0.9665681
   442   8 o      443   1 h                                       0.9846428
   442   8 o      444   1 h                                       0.9560730
   445   8 o      446   1 h                                       0.9710082
   445   8 o      447   1 h                                       0.9661794
   448   8 o      449   1 h                                       0.9646470
   448   8 o      450   1 h                                       0.9785925
   451   8 o      452   1 h                                       0.9869380
   451   8 o      453   1 h                                       0.9709223
   454   8 o      455   1 h                                       0.9718573
   454   8 o      456   1 h                                       0.9651012
   457   8 o      458   1 h                                       0.9753281
   457   8 o      459   1 h                                       0.9713484
   460   8 o      461   1 h                                       0.9626188
   460   8 o      462   1 h                                       0.9819717
   463   8 o      464   1 h                                       0.9745636
   463   8 o      465   1 h                                       0.9720073
   466   8 o      467   1 h                                       0.9733595
   466   8 o      468   1 h                                       0.9882207
   469   8 o      470   1 h                                       0.9657036
   469   8 o      471   1 h                                       0.9759395
   472   8 o      473   1 h                                       0.9564927
   472   8 o      474   1 h                                       0.9785830
   475   8 o      476   1 h                                       0.9849179
   475   8 o      477   1 h                                       0.9633012
   478   8 o      479   1 h                                       0.9776662
   478   8 o      480   1 h                                       0.9704776
   481   8 o      482   1 h                                       0.9638800
   481   8 o      483   1 h                                       0.9748676
   484   8 o      485   1 h                                       0.9697063
   484   8 o      486   1 h                                       0.9601494
   487   8 o      488   1 h                                       0.9682920
   487   8 o      489   1 h                                       0.9654859
   490   8 o      491   1 h                                       0.9731648
   490   8 o      492   1 h                                       0.9697626
   493   8 o      494   1 h                                       0.9636452
   493   8 o      495   1 h                                       0.9719917
   496   8 o      497   1 h                                       0.9717754
   496   8 o      498   1 h                                       0.9770534
   499   8 o      500   1 h                                       0.9743161
   499   8 o      501   1 h                                       0.9752338
   502   8 o      503   1 h                                       0.9739643
   502   8 o      504   1 h                                       0.9734620
   505   8 o      506   1 h                                       0.9786215
   505   8 o      507   1 h                                       0.9794304
   508   8 o      509   1 h                                       0.9620074
   508   8 o      510   1 h                                       0.9762786
   511   8 o      512   1 h                                       0.9856511
   511   8 o      513   1 h                                       0.9675394
   514   8 o      515   1 h                                       0.9758690
   514   8 o      516   1 h                                       0.9568360
   517   8 o      518   1 h                                       0.9640688
   517   8 o      519   1 h                                       0.9822354
   520   8 o      521   1 h                                       0.9671030
   520   8 o      522   1 h                                       0.9662567
   523   8 o      524   1 h                                       0.9820734
   523   8 o      525   1 h                                       0.9628577
   526   8 o      527   1 h                                       0.9765512
   526   8 o      528   1 h                                       0.9680776
   529   8 o      530   1 h                                       0.9609904
   529   8 o      531   1 h                                       0.9668830

 * 1 distinct bonds (by element types)

   Z      Z             #   av. dist./Å        max./Å        min./Å
   1 H    8 O         354     0.9732105     0.9978614     0.9556123


optimized geometry written to: xtbopt.coord


           -------------------------------------------------
          | TOTAL ENERGY             -901.187460357715 Eh   |
          | GRADIENT NORM               0.002813370820 Eh/α |
          | HOMO-LUMO GAP               6.387342280538 eV   |
           -------------------------------------------------

------------------------------------------------------------------------
 * finished run on 2022/11/17 at 06:50:42.418     
------------------------------------------------------------------------
 total:
 * wall-time:     0 d,  0 h,  1 min, 54.433 sec
 *  cpu-time:     0 d,  0 h,  2 min, 57.234 sec
 * ratio c/w:     1.549 speedup
 SCF:
 * wall-time:     0 d,  0 h,  0 min,  8.279 sec
 *  cpu-time:     0 d,  0 h,  0 min, 12.718 sec
 * ratio c/w:     1.536 speedup
 ANC optimizer:
 * wall-time:     0 d,  0 h,  1 min, 45.482 sec
 *  cpu-time:     0 d,  0 h,  2 min, 43.403 sec
 * ratio c/w:     1.549 speedup

