      -----------------------------------------------------------      
     |                   =====================                   |     
     |                           x T B                           |     
     |                   =====================                   |     
     |                         S. Grimme                         |     
     |          Mulliken Center for Theoretical Chemistry        |     
     |                    University of Bonn                     |     
      -----------------------------------------------------------      

   * xtb version 6.5.1 (579679a) compiled by 'ehlert@majestix' on 2022-07-11

   xtb is free software: you can redistribute it and/or modify it under
   the terms of the GNU Lesser General Public License as published by
   the Free Software Foundation, either version 3 of the License, or
   (at your option) any later version.
   
   xtb is distributed in the hope that it will be useful,
   but WITHOUT ANY WARRANTY; without even the implied warranty of
   MERCHANTABILITY or FITNESS FOR A PARTICULAR PURPOSE.  See the
   GNU Lesser General Public License for more details.
   
   Cite this work as:
   * C. Bannwarth, E. Caldeweyher, S. Ehlert, A. Hansen, P. Pracht,
     J. Seibert, S. Spicher, S. Grimme, WIREs Comput. Mol. Sci., 2020, 11,
     e01493. DOI: 10.1002/wcms.1493
   
   for GFN2-xTB:
   * C. Bannwarth, S. Ehlert and S. Grimme., J. Chem. Theory Comput., 2019,
     15, 1652-1671. DOI: 10.1021/acs.jctc.8b01176
   for GFN1-xTB:
   * S. Grimme, C. Bannwarth, P. Shushkov, J. Chem. Theory Comput., 2017,
     13, 1989-2009. DOI: 10.1021/acs.jctc.7b00118
   for GFN0-xTB:
   * P. Pracht, E. Caldeweyher, S. Ehlert, S. Grimme, ChemRxiv, 2019, preprint.
     DOI: 10.26434/chemrxiv.8326202.v1
   for GFN-FF:
   * S. Spicher and S. Grimme, Angew. Chem. Int. Ed., 2020, 59, 15665-15673.
     DOI: 10.1002/anie.202004239
   
   for ALPB and GBSA implicit solvation:
   * S. Ehlert, M. Stahn, S. Spicher, S. Grimme, J. Chem. Theory Comput.,
     2021, 17, 4250-4261. DOI: 10.1021/acs.jctc.1c00471
   
   for DFT-D4:
   * E. Caldeweyher, C. Bannwarth and S. Grimme, J. Chem. Phys., 2017,
     147, 034112. DOI: 10.1063/1.4993215
   * E. Caldeweyher, S. Ehlert, A. Hansen, H. Neugebauer, S. Spicher,
     C. Bannwarth and S. Grimme, J. Chem. Phys., 2019, 150, 154122.
     DOI: 10.1063/1.5090222
   * E. Caldeweyher, J.-M. Mewes, S. Ehlert and S. Grimme, Phys. Chem. Chem. Phys.
     2020, 22, 8499-8512. DOI: 10.1039/D0CP00502A
   
   for sTDA-xTB:
   * S. Grimme and C. Bannwarth, J. Chem. Phys., 2016, 145, 054103.
     DOI: 10.1063/1.4959605
   
   in the mass-spec context:
   * V. Asgeirsson, C. Bauer and S. Grimme, Chem. Sci., 2017, 8, 4879.
     DOI: 10.1039/c7sc00601b
   * J. Koopman and S. Grimme, ACS Omega 2019, 4, 12, 15120-15133.
     DOI: 10.1021/acsomega.9b02011
   
   for metadynamics refer to:
   * S. Grimme, J. Chem. Theory Comput., 2019, 155, 2847-2862
     DOI: 10.1021/acs.jctc.9b00143
   
   for SPH calculations refer to:
   * S. Spicher and S. Grimme, J. Chem. Theory Comput., 2021, 17, 1701-1714
     DOI: 10.1021/acs.jctc.0c01306
   
   with help from (in alphabetical order)
   P. Atkinson, C. Bannwarth, F. Bohle, G. Brandenburg, E. Caldeweyher
   M. Checinski, S. Dohm, S. Ehlert, S. Ehrlich, I. Gerasimov, C. Hölzer
   A. Katbashev, J. Koopman, C. Lavigne, S. Lehtola, F. März, M. Müller,
   F. Musil, H. Neugebauer, J. Pisarek, C. Plett, P. Pracht, F. Pultar,
   J. Seibert, P. Shushkov, S. Spicher, M. Stahn, M. Steiner, T. Strunk,
   J. Stückrath, T. Rose, and J. Unsleber
   
 * started run on 2022/11/17 at 06:54:59.739     

           -------------------------------------------------
          |                Calculation Setup                |
           -------------------------------------------------

          program call               : xtb solvent_cluster.coord --gfn2 --sp --lmo --chrg 0
          hostname                   : cn0363
          coordinate file            : solvent_cluster.coord
          omp threads                :                     2

   ID    Z sym.   atoms
    1    8 o      1, 4, 7, 10, 13, 16, 19, 22, 25, 28, 31, 34, 37, 40, 43,
                  46, 49, 52, 55, 58, 61, 64, 67, 70, 73, 76, 79, 82, 85, 88,
                  91, 94, 97, 100, 103, 106, 109, 112, 115, 118, 121, 124,
                  127, 130, 133, 136, 139, 142, 145, 148, 151, 154, 157, 160,
                  163, 166, 169, 172, 175, 178, 181, 184, 187, 190, 193, 196,
                  199, 202, 205, 208, 211, 214, 217, 220, 223, 226, 229, 232,
                  235, 238, 241, 244, 247, 250, 253, 256, 259, 262, 265, 268,
                  271, 274, 277, 280, 283, 286, 289, 292, 295, 298, 301, 304,
                  307, 310, 313, 316, 319, 322, 325, 328, 331, 334, 337, 340,
                  343, 346, 349, 352, 355, 358, 361, 364, 367, 370, 373, 376,
                  379, 382, 385, 388, 391, 394, 397, 400, 403, 406, 409, 412,
                  415, 418, 421, 424, 427, 430, 433, 436, 439, 442, 445, 448,
                  451, 454, 457, 460, 463, 466, 469, 472, 475, 478, 481, 484,
                  487, 490, 493, 496, 499, 502, 505, 508, 511, 514, 517, 520,
                  523, 526, 529
    2    1 h      2, 3, 5, 6, 8, 9, 11, 12, 14, 15, 17, 18, 20, 21, 23, 24,
                  26, 27, 29, 30, 32, 33, 35, 36, 38, 39, 41, 42, 44, 45, 47,
                  48, 50, 51, 53, 54, 56, 57, 59, 60, 62, 63, 65, 66, 68, 69,
                  71, 72, 74, 75, 77, 78, 80, 81, 83, 84, 86, 87, 89, 90, 92,
                  93, 95, 96, 98, 99, 101, 102, 104, 105, 107, 108, 110, 111,
                  113, 114, 116, 117, 119, 120, 122, 123, 125, 126, 128, 129,
                  131, 132, 134, 135, 137, 138, 140, 141, 143, 144, 146, 147,
                  149, 150, 152, 153, 155, 156, 158, 159, 161, 162, 164, 165,
                  167, 168, 170, 171, 173, 174, 176, 177, 179, 180, 182, 183,
                  185, 186, 188, 189, 191, 192, 194, 195, 197, 198, 200, 201,
                  203, 204, 206, 207, 209, 210, 212, 213, 215, 216, 218, 219,
                  221, 222, 224, 225, 227, 228, 230, 231, 233, 234, 236, 237,
                  239, 240, 242, 243, 245, 246, 248, 249, 251, 252, 254, 255,
                  257, 258, 260, 261, 263, 264, 266, 267, 269, 270, 272, 273,
                  275, 276, 278, 279, 281, 282, 284, 285, 287, 288, 290, 291,
                  293, 294, 296, 297, 299, 300, 302, 303, 305, 306, 308, 309,
                  311, 312, 314, 315, 317, 318, 320, 321, 323, 324, 326, 327,
                  329, 330, 332, 333, 335, 336, 338, 339, 341, 342, 344, 345,
                  347, 348, 350, 351, 353, 354, 356, 357, 359, 360, 362, 363,
                  365, 366, 368, 369, 371, 372, 374, 375, 377, 378, 380, 381,
                  383, 384, 386, 387, 389, 390, 392, 393, 395, 396, 398, 399,
                  401, 402, 404, 405, 407, 408, 410, 411, 413, 414, 416, 417,
                  419, 420, 422, 423, 425, 426, 428, 429, 431, 432, 434, 435,
                  437, 438, 440, 441, 443, 444, 446, 447, 449, 450, 452, 453,
                  455, 456, 458, 459, 461, 462, 464, 465, 467, 468, 470, 471,
                  473, 474, 476, 477, 479, 480, 482, 483, 485, 486, 488, 489,
                  491, 492, 494, 495, 497, 498, 500, 501, 503, 504, 506, 507,
                  509, 510, 512, 513, 515, 516, 518, 519, 521, 522, 524, 525,
                  527, 528, 530, 531

molecular fragmentation (1/2 indicates fragments):
111222222222222222222222222222222222222222222222222222222222222222222222
222222222222222222222222222222222222222222222222222222222222222222222222
222222222222222222222222222222222222222222222222222222222222222222222222
222222222222222222222222222222222222222222222222222222222222222222222222
222222222222222222222222222222222222222222222222222222222222222222222222
222222222222222222222222222222222222222222222222222222222222222222222222
222222222222222222222222222222222222222222222222222222222222222222222222
222222222222222222222222222
# atoms in fragment 1/2:     3   528
 fragment masses (1/2) :       18.02     3170.69
CMA distance (Bohr)    :   5.913
constraining FC (au)   :  0.0500

           -------------------------------------------------
          |                 G F N 2 - x T B                 |
           -------------------------------------------------

        Reference                      10.1021/acs.jctc.8b01176
      * Hamiltonian:
        H0-scaling (s, p, d)           1.850000    2.230000    2.230000
        zeta-weighting                 0.500000
      * Dispersion:
        s8                             2.700000
        a1                             0.520000
        a2                             5.000000
        s9                             5.000000
      * Repulsion:
        kExp                           1.500000    1.000000
        rExp                           1.000000
      * Coulomb:
        alpha                          2.000000
        third order                    shell-resolved
        anisotropic                    true
        a3                             3.000000
        a5                             4.000000
        cn-shift                       1.200000
        cn-exp                         4.000000
        max-rad                        5.000000


          ...................................................
          :                      SETUP                      :
          :.................................................:
          :  # basis functions                1062          :
          :  # atomic orbitals                1062          :
          :  # shells                          708          :
          :  # electrons                      1416          :
          :  max. iterations                   250          :
          :  Hamiltonian                  GFN2-xTB          :
          :  restarted?                      false          :
          :  GBSA solvation                  false          :
          :  PC potential                    false          :
          :  electronic temp.          300.0000000     K    :
          :  accuracy                    1.0000000          :
          :  -> integral cutoff          0.2500000E+02      :
          :  -> integral neglect         0.1000000E-07      :
          :  -> SCF convergence          0.1000000E-05 Eh   :
          :  -> wf. convergence          0.1000000E-03 e    :
          :  Broyden damping             0.4000000          :
          ...................................................

 iter      E             dE          RMSdq      gap      omega  full diag
   1   -906.5796878 -0.906580E+03  0.406E+00    8.62       0.0  T
   2   -906.6362158 -0.565280E-01  0.241E+00    7.62       1.0  T
   3   -906.6591126 -0.228968E-01  0.214E-01    5.99       1.0  T
   4   -906.6630192 -0.390665E-02  0.461E-02    6.41       1.0  T
   5   -906.6630831 -0.638380E-04  0.312E-02    6.35       1.0  T
   6   -906.6631119 -0.288205E-04  0.397E-03    6.39       1.1  T
   7   -906.6631134 -0.149751E-05  0.737E-04    6.39       5.9  T
   8   -906.6631134 -0.196916E-07  0.380E-04    6.39      11.4  T
   9   -906.6631134 -0.988075E-08  0.568E-05    6.39      76.5  T

   *** convergence criteria satisfied after 9 iterations ***

         #    Occupation            Energy/Eh            Energy/eV
      -------------------------------------------------------------
         1        2.0000           -0.7052925             -19.1920
       ...           ...                  ...                  ...
       702        2.0000           -0.3548217              -9.6552
       703        2.0000           -0.3500178              -9.5245
       704        2.0000           -0.3435394              -9.3482
       705        2.0000           -0.3429818              -9.3330
       706        2.0000           -0.3328088              -9.0562
       707        2.0000           -0.3267135              -8.8903
       708        2.0000           -0.3119394              -8.4883 (HOMO)
       709                         -0.0772117              -2.1010 (LUMO)
       710                         -0.0676224              -1.8401
       711                         -0.0494275              -1.3450
       712                         -0.0441885              -1.2024
       713                         -0.0412196              -1.1216
       ...                                ...                  ...
      1062                          0.4802689              13.0688
      -------------------------------------------------------------
                  HL-Gap            0.2347277 Eh            6.3873 eV
             Fermi-level           -0.1945755 Eh           -5.2947 eV
 
 localization/xTB-IFF output generation
 averaging CT terms over            1  occ. levels
 averaging CT terms over            2  virt. levels
 dipole moment from electron density (au)
     X       Y       Z   
  -1.0746  -1.2327   0.2505  total (Debye):    4.205
cpu  time for init local    0.40 s
wall time for init local    0.20 s
 doing rotations ...
 initialization of trafo matrix to unity

 converged in     17 iterations, threshold :   0.99998137D-06
 doing transformations ...
 lmo centers(Z=2) and atoms on file <lmocent.coord>
 LMO Fii/eV  ncent    charge center   contributions...
    1 LP   *******   0.00   2.62870   1.28609   7.69247  235O : 10.20  100O :  6.85  379O :  5.76  427O :  5.59  394O :  5.47   70O :  5.18   10O :  4.95   37O :  4.50   46O :  4.11    7O :  4.11  292O :  3.90  142O :  3.88
  148O :  3.85  313O :  3.73  463O :  3.70  508O :  3.53  154O :  3.40  262O :  3.37  517O :  3.36  448O :  3.33  421O :  3.16  160O :  3.02  334O :  2.87  511O :  2.87
  133O :  2.86  325O :  2.86  247O :  2.76  424O :  2.73  355O :  2.71  214O :  2.69   25O :  2.58  166O :  2.57    1O :  2.31   82O :  2.30  403O :  2.27  127O :  2.26
  493O :  2.21   97O :  2.18  115O :  2.17  382O :  2.17   22O :  2.15  496O :  2.14   73O :  2.09  442O :  2.08  238O :  2.07  271O :  2.07  490O :  2.04  283O :  1.97
  367O :  1.96  175O :  1.93  226O :  1.80  181O :  1.77  364O :  1.73  520O :  1.68  286O :  1.68   79O :  1.68  502O :  1.67  397O :  1.64  418O :  1.62   88O :  1.58
    4O :  1.55   19O :  1.49  529O :  1.49   64O :  1.37  340O :  1.36  229O :  1.36  481O :  1.34  445O :  1.32  370O :  1.28  430O :  1.26  337O :  1.26   31O :  1.26
  331O :  1.24   55O :  1.24  163O :  1.22  409O :  1.22  478O :  1.22  301O :  1.15  415O :  1.15  412O :  1.14  130O :  1.14  433O :  1.13   13O :  1.12  469O :  1.11
   49O :  1.11  361O :  1.10  298O :  1.09  526O :  1.09  223O :  1.06  328O :  1.04  277O :  0.98  439O :  0.96  388O :  0.95  208O :  0.93  151O :  0.93  232O :  0.92
  406O :  0.91  295O :  0.89  184O :  0.84   28O :  0.84  322O :  0.83  391O :  0.81  505O :  0.80  250O :  0.80  241O :  0.80  454O :  0.80   75H :  0.79  112O :  0.79
  145O :  0.78   16O :  0.77   40O :  0.77  484O :  0.77  400O :  0.76  304O :  0.74  499O :  0.73  211O :  0.73   76O :  0.72   58O :  0.72   48H :  0.71  265O :  0.70
  523O :  0.70  256O :  0.68  109O :  0.66  172O :  0.65  202O :  0.63  356H :  0.63  457O :  0.63  253O :  0.62  196O :  0.62  385O :  0.59  343O :  0.56  310O :  0.55
  187O :  0.54  294H :  0.54   27H :  0.53  103O :  0.52   85O :  0.52  268O :  0.52    9H :  0.52  475O :  0.51  118O :  0.51  139O :  0.49  472O :  0.49   43O :  0.47
  487O :  0.45   34O :  0.45  193O :  0.44  244O :  0.44  157O :  0.43  444H :  0.41  178O :  0.40  460O :  0.40  220O :  0.40  169O :  0.39   30H :  0.37  217O :  0.37
  121O :  0.36  319O :  0.36  335H :  0.35  278H :  0.35  259O :  0.34   91O :  0.32  423H :  0.32  429H :  0.32  316O :  0.31  401H :  0.30  396H :  0.30  349O :  0.30
  106O :  0.30  307O :  0.29  245H :  0.29  190O :  0.29  104H :  0.28  134H :  0.28  199O :  0.27   90H :  0.26  514O :  0.26   78H :  0.25  436O :  0.24  405H :  0.23
  205O :  0.22  466O :  0.22  117H :  0.22  404H :  0.22  315H :  0.22  432H :  0.22  384H :  0.21  280O :  0.21   15H :  0.21    5H :  0.21   80H :  0.20   18H :  0.20
  136O :  0.20  236H :  0.20  248H :  0.20   94O :  0.20  352O :  0.20  408H :  0.19  110H :  0.19  380H :  0.19   61O :  0.19  176H :  0.19  174H :  0.19  101H :  0.19
  366H :  0.19  513H :  0.19  381H :  0.18   38H :  0.17  373O :  0.17  293H :  0.17   67O :  0.17  165H :  0.16   36H :  0.16  159H :  0.16  530H :  0.16  141H :  0.16
  414H :  0.15  289O :  0.15  225H :  0.15   14H :  0.15  116H :  0.14  501H :  0.14  395H :  0.14  323H :  0.14  203H :  0.14  357H :  0.14  428H :  0.14    3H :  0.13
   71H :  0.13  239H :  0.13  358O :  0.13  135H :  0.13  192H :  0.13  376O :  0.13   33H :  0.13  350H :  0.13  398H :  0.12  500H :  0.12  387H :  0.12  161H :  0.12
  227H :  0.12  495H :  0.12  120H :  0.12  113H :  0.12  464H :  0.12   57H :  0.12  390H :  0.12  272H :  0.12  188H :  0.11  150H :  0.11  488H :  0.11  462H :  0.11
   52O :  0.10  168H :  0.10  274O :  0.10  346O :  0.10  479H :  0.10  288H :  0.10   83H :  0.10  124O :  0.09  416H :  0.09  128H :  0.09  473H :  0.09  413H :  0.09
   42H :  0.09  447H :  0.09  122H :  0.09  251H :  0.08    6H :  0.08   44H :  0.08  207H :  0.08  519H :  0.08  338H :  0.08   26H :  0.08  362H :  0.08   56H :  0.08
  455H :  0.08  216H :  0.08  164H :  0.08  497H :  0.08  419H :  0.08  386H :  0.08  149H :  0.08  257H :  0.08  269H :  0.07  422H :  0.07  363H :  0.07  182H :  0.07
  296H :  0.07  303H :  0.07  411H :  0.07  437H :  0.07  524H :  0.07  374H :  0.07
    2 LP   *******   0.00  -0.05465  -8.08259  -4.29757  100O :  9.61  235O :  5.89  379O :  5.19  427O :  5.04  394O :  4.92   70O :  4.66   10O :  4.47   37O :  4.05    7O :  3.70   46O :  3.70  292O :  3.51  142O :  3.50
  148O :  3.47  313O :  3.36  463O :  3.33  508O :  3.18  154O :  3.06  262O :  3.04  517O :  3.00  448O :  3.00  421O :  2.85  160O :  2.72  334O :  2.59  511O :  2.58
  133O :  2.58  325O :  2.57  247O :  2.50  424O :  2.45  355O :  2.45  214O :  2.42  166O :  2.32   25O :  2.31   82O :  2.07    1O :  2.07  403O :  2.04  127O :  2.04
  493O :  1.99   97O :  1.96  115O :  1.96  382O :  1.96   22O :  1.94  496O :  1.93   73O :  1.88  442O :  1.87  238O :  1.87  271O :  1.87  490O :  1.83  283O :  1.77
  367O :  1.76  175O :  1.74  226O :  1.62  181O :  1.59  364O :  1.56  520O :  1.54  286O :  1.51   79O :  1.51  502O :  1.50  397O :  1.48  418O :  1.46   88O :  1.43
    4O :  1.39   19O :  1.34  529O :  1.34   64O :  1.24  340O :  1.23  229O :  1.23  481O :  1.21  445O :  1.19  370O :  1.15  430O :  1.14  337O :  1.14   31O :  1.13
  331O :  1.12   55O :  1.11  409O :  1.10  163O :  1.10  478O :  1.10  301O :  1.03  130O :  1.03  415O :  1.03  412O :  1.03  433O :  1.01   13O :  1.01  469O :  1.00
   49O :  1.00  361O :  0.99  526O :  0.98  298O :  0.98  223O :  0.95  328O :  0.94  277O :  0.88  439O :  0.87  388O :  0.85  208O :  0.84  151O :  0.83  232O :  0.83
  295O :  0.80  406O :  0.80  184O :  0.76  322O :  0.75   28O :  0.74  391O :  0.73  250O :  0.72  505O :  0.72  241O :  0.72  454O :  0.72   75H :  0.71  112O :  0.71
  145O :  0.71   16O :  0.70   40O :  0.69  484O :  0.69  400O :  0.69  304O :  0.67  499O :  0.66  211O :  0.66   76O :  0.65   58O :  0.64   48H :  0.64  265O :  0.63
  523O :  0.63  256O :  0.62  109O :  0.59  172O :  0.58  202O :  0.57  356H :  0.57  457O :  0.56  253O :  0.56  196O :  0.55  385O :  0.53  343O :  0.50  310O :  0.50
  187O :  0.48  294H :  0.48   27H :  0.48   85O :  0.47  103O :  0.47  268O :  0.47    9H :  0.47  475O :  0.46  118O :  0.46  139O :  0.45  472O :  0.44   43O :  0.43
  487O :  0.41   34O :  0.40  193O :  0.40  244O :  0.40  157O :  0.39  444H :  0.37  178O :  0.36  460O :  0.36  220O :  0.36  169O :  0.35  217O :  0.33  121O :  0.32
  319O :  0.32  335H :  0.32   30H :  0.32  278H :  0.31  259O :  0.30   91O :  0.29  423H :  0.29  429H :  0.29  316O :  0.28  401H :  0.27  396H :  0.27  349O :  0.27
  106O :  0.27  307O :  0.26  245H :  0.26  190O :  0.26  104H :  0.26  134H :  0.25  199O :  0.24   90H :  0.23  514O :  0.23   78H :  0.23  236H :  0.22  436O :  0.21
  405H :  0.21    3H :  0.21  205O :  0.20  466O :  0.20  117H :  0.20  315H :  0.20  404H :  0.20  432H :  0.19  384H :  0.19  280O :  0.19   15H :  0.19    5H :  0.18
   80H :  0.18  136O :  0.18  248H :  0.18   94O :  0.18   18H :  0.18  352O :  0.18  408H :  0.17  380H :  0.17   61O :  0.17  176H :  0.17  174H :  0.17  366H :  0.17
  513H :  0.17  381H :  0.16   38H :  0.16  373O :  0.15  293H :  0.15   67O :  0.15  101H :  0.15   36H :  0.15  165H :  0.15  159H :  0.14  530H :  0.14  141H :  0.14
  414H :  0.14  289O :  0.14  225H :  0.14   14H :  0.13  116H :  0.13  395H :  0.13  501H :  0.13  323H :  0.13  203H :  0.13  428H :  0.12  357H :  0.12   71H :  0.12
  239H :  0.12  358O :  0.12  135H :  0.12  192H :  0.12  376O :  0.12   33H :  0.11  350H :  0.11  398H :  0.11  500H :  0.11  387H :  0.11  161H :  0.11  227H :  0.11
  495H :  0.11  120H :  0.11  113H :  0.11  519H :  0.11  464H :  0.11   57H :  0.11  390H :  0.11  272H :  0.11  188H :  0.10  150H :  0.10  488H :  0.10  462H :  0.10
  110H :  0.10   52O :  0.09  168H :  0.09  274O :  0.09  346O :  0.09  479H :  0.09  288H :  0.09   83H :  0.09  128H :  0.08  124O :  0.08  416H :  0.08  473H :  0.08
  413H :  0.08   42H :  0.08  447H :  0.08  122H :  0.08  251H :  0.08   44H :  0.08    6H :  0.08  338H :  0.07  362H :  0.07   26H :  0.07  207H :  0.07  455H :  0.07
  216H :  0.07  164H :  0.07
    3 LP   *******   0.00  14.23026  -1.69710  -0.87581   70O :  6.61  100O :  4.69  235O :  4.48  379O :  3.95  427O :  3.83  394O :  3.75   10O :  3.40   37O :  3.08    7O :  2.82   46O :  2.82  292O :  2.67  142O :  2.66
  148O :  2.64  313O :  2.56  463O :  2.54  508O :  2.42  154O :  2.33  262O :  2.31  517O :  2.30  448O :  2.28  421O :  2.17  160O :  2.07  334O :  1.97  511O :  1.96
  133O :  1.96  325O :  1.96  247O :  1.90  424O :  1.87  355O :  1.86  214O :  1.84   25O :  1.77  166O :  1.74    1O :  1.58   82O :  1.58  403O :  1.56  127O :  1.55
  493O :  1.52   97O :  1.50  382O :  1.49  115O :  1.49   22O :  1.48  496O :  1.47   73O :  1.43  442O :  1.43  238O :  1.42  271O :  1.42  490O :  1.40  283O :  1.35
  367O :  1.34  175O :  1.32  226O :  1.24  181O :  1.21  364O :  1.19  520O :  1.17  286O :  1.15   79O :  1.15  502O :  1.14  397O :  1.12  418O :  1.11   88O :  1.09
    4O :  1.06   19O :  1.02  529O :  1.02   64O :  0.94  340O :  0.93  481O :  0.92  229O :  0.91  445O :  0.90  370O :  0.88  430O :  0.87  337O :  0.86   31O :  0.86
  331O :  0.85   55O :  0.84  409O :  0.84  163O :  0.84  478O :  0.83  130O :  0.79  415O :  0.79  301O :  0.78  412O :  0.78  433O :  0.77   13O :  0.77  469O :  0.76
   49O :  0.76  361O :  0.75  298O :  0.75  526O :  0.75  223O :  0.72  328O :  0.71  277O :  0.67  439O :  0.66  388O :  0.65  208O :  0.64  151O :  0.64  232O :  0.63
  406O :  0.62  295O :  0.61  184O :  0.58  322O :  0.57   28O :  0.56  391O :  0.56  250O :  0.55  505O :  0.55  241O :  0.55  454O :  0.55   75H :  0.54  112O :  0.54
  145O :  0.54   16O :  0.53   40O :  0.53  484O :  0.53  400O :  0.52  304O :  0.51  499O :  0.50  211O :  0.50   76O :  0.50   58O :  0.49   48H :  0.49  265O :  0.48
  523O :  0.48  256O :  0.47  109O :  0.45  172O :  0.44  202O :  0.43  356H :  0.43  457O :  0.43  253O :  0.43  196O :  0.42  385O :  0.40  343O :  0.38  310O :  0.38
  187O :  0.37  294H :  0.37   27H :  0.36   85O :  0.36  268O :  0.36  103O :  0.35    9H :  0.35  475O :  0.35  118O :  0.35  139O :  0.34  472O :  0.33   43O :  0.32
  487O :  0.31   34O :  0.31  244O :  0.30  193O :  0.29  157O :  0.29  444H :  0.28  178O :  0.27  460O :  0.27  220O :  0.27  169O :  0.26  217O :  0.25  121O :  0.25
  319O :  0.25  335H :  0.24   30H :  0.24  278H :  0.24  259O :  0.23   91O :  0.22  423H :  0.22  429H :  0.22  316O :  0.21  401H :  0.21  396H :  0.21  349O :  0.21
  106O :  0.20  307O :  0.20  245H :  0.20  190O :  0.20  104H :  0.20  134H :  0.19  199O :  0.18  514O :  0.18   90H :  0.18   78H :  0.17  236H :  0.17  436O :  0.16
  405H :  0.16  205O :  0.16  466O :  0.15  315H :  0.15  404H :  0.15  117H :  0.15  432H :  0.15  384H :  0.15  280O :  0.14   15H :  0.14    5H :  0.14   80H :  0.14
   18H :  0.14  136O :  0.14  248H :  0.14   94O :  0.14  352O :  0.13  408H :  0.13  380H :  0.13   61O :  0.13  176H :  0.13  174H :  0.13  101H :  0.13  366H :  0.13
  513H :  0.13  381H :  0.12   38H :  0.12  373O :  0.12  293H :  0.11   67O :  0.11   36H :  0.11  165H :  0.11  159H :  0.11  530H :  0.11  141H :  0.11  414H :  0.11
  289O :  0.10  225H :  0.10   14H :  0.10  116H :  0.10  395H :  0.10  501H :  0.10  323H :  0.10  203H :  0.10  357H :  0.10  428H :  0.09    3H :  0.09  239H :  0.09
  358O :  0.09  135H :  0.09  192H :  0.09  376O :  0.09   33H :  0.09  350H :  0.09  398H :  0.08  227H :  0.08  500H :  0.08  387H :  0.08  161H :  0.08  495H :  0.08
  120H :  0.08  113H :  0.08  464H :  0.08   57H :  0.08  390H :  0.08  272H :  0.08  188H :  0.08  150H :  0.08  488H :  0.08  462H :  0.08  110H :  0.08   71H :  0.07
   52O :  0.07  168H :  0.07
    4 LP   *******   0.00   5.10888  -2.91556  -0.70560   10O :  5.80  100O :  4.59  235O :  4.38  379O :  3.86  427O :  3.75  394O :  3.66   70O :  3.47   37O :  3.01   46O :  2.76    7O :  2.75  292O :  2.61  142O :  2.60
  148O :  2.58  313O :  2.50  463O :  2.48  508O :  2.37  154O :  2.28  262O :  2.26  517O :  2.25  448O :  2.23  421O :  2.12  160O :  2.02  334O :  1.92  511O :  1.92
  133O :  1.92  325O :  1.92  424O :  1.83  247O :  1.83  355O :  1.82  214O :  1.80   25O :  1.73  166O :  1.72    1O :  1.55   82O :  1.54  403O :  1.52  127O :  1.52
  493O :  1.48   97O :  1.46  382O :  1.45  115O :  1.45   22O :  1.44  238O :  1.44  496O :  1.43   73O :  1.40  442O :  1.39  271O :  1.39  490O :  1.36  283O :  1.32
  367O :  1.31  175O :  1.29  226O :  1.21  181O :  1.19  364O :  1.16  520O :  1.15  286O :  1.12   79O :  1.12  502O :  1.12  397O :  1.10  418O :  1.09   88O :  1.06
    4O :  1.03  529O :  1.00   19O :  1.00   64O :  0.92  340O :  0.91  229O :  0.91  481O :  0.90  445O :  0.88  370O :  0.86  430O :  0.85  337O :  0.84   31O :  0.84
  331O :  0.83   55O :  0.82  409O :  0.82  163O :  0.82  478O :  0.82  301O :  0.77  415O :  0.77  130O :  0.77  412O :  0.76  433O :  0.75   13O :  0.75  469O :  0.75
   49O :  0.74  361O :  0.74  298O :  0.73  526O :  0.73  223O :  0.71  328O :  0.70  277O :  0.65  439O :  0.64  388O :  0.64  208O :  0.62  151O :  0.62  232O :  0.62
  406O :  0.61  295O :  0.60  184O :  0.56  322O :  0.56   28O :  0.55  391O :  0.54  250O :  0.54  505O :  0.54  241O :  0.54  454O :  0.54   75H :  0.53  112O :  0.53
  145O :  0.53   16O :  0.52   40O :  0.51  484O :  0.51  400O :  0.51  304O :  0.50  499O :  0.49  211O :  0.49   76O :  0.49   58O :  0.48   48H :  0.47  265O :  0.47
  523O :  0.47  256O :  0.46  109O :  0.44  172O :  0.43  202O :  0.42  356H :  0.42  457O :  0.42  253O :  0.42  196O :  0.41  385O :  0.39  343O :  0.38  310O :  0.37
  187O :  0.36  294H :  0.36   27H :  0.36   85O :  0.35  103O :  0.35  268O :  0.35    9H :  0.35  475O :  0.35  118O :  0.34  139O :  0.33  472O :  0.33   43O :  0.32
  487O :  0.30   34O :  0.30  244O :  0.30  157O :  0.29  193O :  0.28  444H :  0.27  178O :  0.27  460O :  0.27  220O :  0.27  169O :  0.26  217O :  0.25  121O :  0.24
  319O :  0.24  335H :  0.24   30H :  0.24  278H :  0.23  259O :  0.23   91O :  0.22  423H :  0.21  429H :  0.21  316O :  0.21  401H :  0.20  396H :  0.20  349O :  0.20
  106O :  0.20  307O :  0.20  245H :  0.20  190O :  0.19  104H :  0.19  134H :  0.19  199O :  0.18   90H :  0.17  514O :  0.17   78H :  0.17  236H :  0.16  436O :  0.16
  405H :  0.15  205O :  0.15  117H :  0.15  466O :  0.15  315H :  0.15  404H :  0.15  432H :  0.14  384H :  0.14  280O :  0.14   15H :  0.14   80H :  0.14   18H :  0.14
  248H :  0.14    5H :  0.14  136O :  0.14   94O :  0.13  352O :  0.13  408H :  0.13  380H :  0.13   61O :  0.13  176H :  0.13  174H :  0.13  101H :  0.13  366H :  0.13
  513H :  0.12  381H :  0.12   38H :  0.12  373O :  0.11   67O :  0.11  293H :  0.11   36H :  0.11  165H :  0.11  159H :  0.11  141H :  0.10  414H :  0.10  289O :  0.10
  225H :  0.10   14H :  0.10  530H :  0.10  116H :  0.10  395H :  0.10  501H :  0.10  323H :  0.09  203H :  0.09  357H :  0.09  428H :  0.09    3H :  0.09   71H :  0.09
  358O :  0.09  192H :  0.09  135H :  0.09  376O :  0.09   33H :  0.09  350H :  0.08   57H :  0.08  239H :  0.08  398H :  0.08  500H :  0.08  387H :  0.08  161H :  0.08
  227H :  0.08  495H :  0.08  120H :  0.08  113H :  0.08  464H :  0.08  390H :  0.08  272H :  0.08  188H :  0.08  150H :  0.08  488H :  0.08  462H :  0.08  110H :  0.07
   52O :  0.07
    5 LP   *******   0.00 -11.44253   0.15414  -6.75330  394O :  5.87  100O :  4.29  235O :  4.10  379O :  3.61  427O :  3.50   70O :  3.24   10O :  3.10   37O :  2.82    7O :  2.58   46O :  2.58  292O :  2.44  142O :  2.43
  148O :  2.41  313O :  2.34  463O :  2.32  508O :  2.21  154O :  2.13  262O :  2.11  517O :  2.10  448O :  2.09  421O :  1.98  160O :  1.89  334O :  1.80  511O :  1.79
  133O :  1.79  325O :  1.79  247O :  1.73  424O :  1.71  355O :  1.70  214O :  1.69   25O :  1.61  166O :  1.61    1O :  1.45   82O :  1.44  403O :  1.42  127O :  1.42
  493O :  1.39   97O :  1.37  115O :  1.36  382O :  1.36   22O :  1.35  496O :  1.34  442O :  1.30  238O :  1.30  271O :  1.30   73O :  1.29  490O :  1.28  283O :  1.23
  367O :  1.23  175O :  1.21  226O :  1.13  181O :  1.12  364O :  1.09  520O :  1.07  286O :  1.05   79O :  1.05  502O :  1.04  397O :  1.02  418O :  1.02   88O :  0.99
    4O :  0.97   19O :  0.93  529O :  0.93   64O :  0.86  340O :  0.85  229O :  0.85  481O :  0.84  445O :  0.83  370O :  0.80  430O :  0.79  337O :  0.79   31O :  0.79
  331O :  0.78   55O :  0.77  409O :  0.77  163O :  0.76  478O :  0.76  301O :  0.72  130O :  0.72  415O :  0.72  412O :  0.72  433O :  0.71   49O :  0.71   13O :  0.70
  469O :  0.70  361O :  0.69  298O :  0.68  526O :  0.68  223O :  0.66  328O :  0.65  277O :  0.61  439O :  0.60  388O :  0.59  151O :  0.58  208O :  0.58  232O :  0.58
  406O :  0.57  295O :  0.55  184O :  0.53  322O :  0.52   28O :  0.51  391O :  0.51  241O :  0.50  505O :  0.50  454O :  0.50   75H :  0.50  250O :  0.49  112O :  0.49
  145O :  0.49   16O :  0.48   40O :  0.48  484O :  0.48  400O :  0.48  304O :  0.46  499O :  0.46  211O :  0.46   76O :  0.45   58O :  0.45   48H :  0.44  265O :  0.44
  523O :  0.44  256O :  0.43  109O :  0.41  172O :  0.40  202O :  0.40  356H :  0.39  457O :  0.39  253O :  0.39  196O :  0.39  385O :  0.37  343O :  0.35  310O :  0.35
  187O :  0.34  294H :  0.34   27H :  0.33   85O :  0.33  268O :  0.32  103O :  0.32    9H :  0.32  475O :  0.32  118O :  0.32  139O :  0.31  472O :  0.30   43O :  0.30
  487O :  0.28   34O :  0.28  193O :  0.28  244O :  0.28  157O :  0.27  444H :  0.25  178O :  0.25  460O :  0.25  220O :  0.25  169O :  0.24  217O :  0.23  121O :  0.22
  319O :  0.22  335H :  0.22   30H :  0.22  278H :  0.22  259O :  0.21   91O :  0.20  423H :  0.20  429H :  0.20  316O :  0.20  401H :  0.19  349O :  0.19  106O :  0.19
  307O :  0.18  245H :  0.18  190O :  0.18  104H :  0.18  396H :  0.18  134H :  0.17  199O :  0.17   90H :  0.16  514O :  0.16   78H :  0.16  236H :  0.15  436O :  0.15
  405H :  0.14  205O :  0.14  117H :  0.14  466O :  0.14  315H :  0.14  404H :  0.14  432H :  0.14  384H :  0.13  280O :  0.13   15H :  0.13    5H :  0.13   80H :  0.13
   18H :  0.13  136O :  0.13  248H :  0.13   94O :  0.12  352O :  0.12  408H :  0.12  380H :  0.12   61O :  0.12  176H :  0.12  174H :  0.12  101H :  0.12  366H :  0.12
  513H :  0.12  381H :  0.11   38H :  0.11  373O :  0.11  293H :  0.10   67O :  0.10  159H :  0.10  296H :  0.10   36H :  0.10  165H :  0.10  530H :  0.10  225H :  0.10
  141H :  0.10  414H :  0.10  289O :  0.10   14H :  0.09  116H :  0.09  501H :  0.09  323H :  0.09  203H :  0.09  357H :  0.09  428H :  0.09    3H :  0.08   71H :  0.08
  239H :  0.08  358O :  0.08  135H :  0.08  192H :  0.08  376O :  0.08   33H :  0.08  350H :  0.08  500H :  0.08  398H :  0.08  387H :  0.08  161H :  0.08  227H :  0.08
  495H :  0.08  120H :  0.08  113H :  0.08  464H :  0.07   57H :  0.07  390H :  0.07  395H :  0.07  272H :  0.07  188H :  0.07  150H :  0.07  488H :  0.07  462H :  0.07
    6 LP   *******   0.00  -6.59590   3.87777 -12.52587  148O :  4.94  100O :  4.16  235O :  3.97  379O :  3.50  427O :  3.38  394O :  3.32   70O :  3.15   10O :  3.01   37O :  2.73   46O :  2.50    7O :  2.50  292O :  2.37
  142O :  2.36  313O :  2.27  463O :  2.25  508O :  2.15  154O :  2.07  262O :  2.05  517O :  2.04  448O :  2.02  421O :  1.92  160O :  1.83  334O :  1.74  511O :  1.74
  133O :  1.74  325O :  1.74  247O :  1.68  424O :  1.66  355O :  1.65  214O :  1.64   25O :  1.57  166O :  1.56    1O :  1.40   82O :  1.40  403O :  1.38  127O :  1.37
  493O :  1.35   97O :  1.33  115O :  1.32  382O :  1.32   22O :  1.31  496O :  1.30  442O :  1.27   73O :  1.27  238O :  1.26  271O :  1.26  490O :  1.24  283O :  1.20
  367O :  1.19  175O :  1.17  226O :  1.10  181O :  1.08  364O :  1.05  520O :  1.04  286O :  1.02   79O :  1.02  502O :  1.01  397O :  1.00  418O :  0.99   88O :  0.96
    4O :  0.94   19O :  0.91  529O :  0.91   64O :  0.84  340O :  0.83  229O :  0.83  481O :  0.82  445O :  0.80  370O :  0.78  430O :  0.77  337O :  0.77   31O :  0.76
  331O :  0.75   55O :  0.75  409O :  0.74  163O :  0.74  478O :  0.74  301O :  0.70  130O :  0.70  415O :  0.70  412O :  0.69   49O :  0.69  433O :  0.68   13O :  0.68
  469O :  0.68  361O :  0.67  526O :  0.66  298O :  0.66  223O :  0.64  328O :  0.63  277O :  0.59  439O :  0.58  388O :  0.58  208O :  0.56  151O :  0.56  232O :  0.56
  406O :  0.55  295O :  0.54  184O :  0.51  322O :  0.50   28O :  0.50  391O :  0.49  250O :  0.49  505O :  0.49  241O :  0.49  454O :  0.49   75H :  0.48  112O :  0.48
  145O :  0.48   16O :  0.47   40O :  0.47  484O :  0.47  400O :  0.46  304O :  0.45  499O :  0.44  211O :  0.44   76O :  0.44   58O :  0.43   48H :  0.43  265O :  0.43
  523O :  0.42  256O :  0.42  109O :  0.40  172O :  0.39  202O :  0.39  356H :  0.38  457O :  0.38  253O :  0.38  196O :  0.37  385O :  0.36  343O :  0.34  310O :  0.34
  187O :  0.33  294H :  0.33   27H :  0.32   85O :  0.32  268O :  0.31  103O :  0.31    9H :  0.31  475O :  0.31  118O :  0.30  139O :  0.30   43O :  0.30  472O :  0.30
  487O :  0.27   34O :  0.27  193O :  0.27  244O :  0.27  157O :  0.26  444H :  0.25  178O :  0.24  460O :  0.24  220O :  0.24  169O :  0.23  217O :  0.22  121O :  0.22
  319O :  0.22  335H :  0.21   30H :  0.21  278H :  0.21  259O :  0.21   91O :  0.20  423H :  0.19  316O :  0.19  401H :  0.19  396H :  0.18  349O :  0.18  429H :  0.18
  106O :  0.18  307O :  0.18  245H :  0.18  190O :  0.18  104H :  0.17  134H :  0.17  199O :  0.16   90H :  0.16  514O :  0.16   78H :  0.15  236H :  0.15  436O :  0.14
  405H :  0.14  205O :  0.14  404H :  0.13  466O :  0.13  117H :  0.13  315H :  0.13  432H :  0.13  384H :  0.13  280O :  0.13   15H :  0.13    5H :  0.12   80H :  0.12
   18H :  0.12  136O :  0.12  248H :  0.12   94O :  0.12  352O :  0.12  408H :  0.12   61O :  0.12  380H :  0.12  176H :  0.12  174H :  0.12  101H :  0.11  366H :  0.11
  513H :  0.11  381H :  0.11   38H :  0.11  373O :  0.10  293H :  0.10   67O :  0.10   36H :  0.10  165H :  0.10  159H :  0.10  530H :  0.10  141H :  0.09  414H :  0.09
  289O :  0.09  225H :  0.09   14H :  0.09  116H :  0.09  395H :  0.09  501H :  0.09  323H :  0.09  203H :  0.09  357H :  0.08    3H :  0.08   71H :  0.08  239H :  0.08
  428H :  0.08  358O :  0.08  135H :  0.08  192H :  0.08  376O :  0.08   33H :  0.08  350H :  0.08  398H :  0.07  500H :  0.07  387H :  0.07  161H :  0.07  227H :  0.07
  495H :  0.07  113H :  0.07  120H :  0.07  464H :  0.07   57H :  0.07  390H :  0.07  272H :  0.07
    7 LP   *******   0.00  -1.05514   6.26927  -2.90909   37O :  4.55  100O :  3.99  235O :  3.81  379O :  3.36  427O :  3.26  394O :  3.19   70O :  3.02   10O :  2.89    7O :  2.40   46O :  2.38  292O :  2.27  142O :  2.26
  148O :  2.24  313O :  2.18  463O :  2.16  508O :  2.06  154O :  1.98  262O :  1.97  517O :  1.96  448O :  1.94  421O :  1.85  160O :  1.76  133O :  1.68  334O :  1.67
  325O :  1.67  511O :  1.67  247O :  1.61  424O :  1.59  355O :  1.58  214O :  1.57   25O :  1.50  166O :  1.50    1O :  1.35   82O :  1.34  403O :  1.32  127O :  1.32
  493O :  1.29   97O :  1.27  115O :  1.27  382O :  1.27   22O :  1.26  496O :  1.25   73O :  1.22  442O :  1.21  238O :  1.21  271O :  1.21  490O :  1.18  283O :  1.15
  367O :  1.14  175O :  1.12  226O :  1.05  181O :  1.03  364O :  1.01  520O :  1.00  286O :  0.98   79O :  0.98  502O :  0.97  397O :  0.96  418O :  0.95   88O :  0.92
    4O :  0.90   19O :  0.87  529O :  0.87   64O :  0.80  340O :  0.80  229O :  0.79  481O :  0.78  445O :  0.77  370O :  0.75  430O :  0.74  337O :  0.74   31O :  0.73
  331O :  0.72   55O :  0.72  409O :  0.71  163O :  0.71  478O :  0.71  301O :  0.67  130O :  0.67  415O :  0.67  412O :  0.67  433O :  0.66  469O :  0.65   13O :  0.65
   49O :  0.65  361O :  0.64  526O :  0.64  298O :  0.64  223O :  0.62  328O :  0.61  277O :  0.57  439O :  0.56  388O :  0.55  208O :  0.54  151O :  0.54  232O :  0.54
  406O :  0.53  295O :  0.52  184O :  0.49  322O :  0.48   28O :  0.48  391O :  0.47  250O :  0.47  241O :  0.47  505O :  0.47  454O :  0.47   75H :  0.46  112O :  0.46
  145O :  0.46   16O :  0.45   40O :  0.45  484O :  0.45  400O :  0.44  304O :  0.43  499O :  0.43  211O :  0.42   76O :  0.42   58O :  0.42   48H :  0.41  265O :  0.41
  523O :  0.41  256O :  0.40  109O :  0.38  172O :  0.38  356H :  0.37  457O :  0.37  253O :  0.36  196O :  0.36  202O :  0.36  385O :  0.34  343O :  0.33  310O :  0.32
  294H :  0.31  187O :  0.31   27H :  0.31   85O :  0.30  103O :  0.30  268O :  0.30    9H :  0.30  475O :  0.30  139O :  0.29  472O :  0.28  118O :  0.28   43O :  0.28
  487O :  0.26   34O :  0.26  193O :  0.26  244O :  0.26  157O :  0.25  444H :  0.24  178O :  0.23  460O :  0.23  220O :  0.23  169O :  0.23  217O :  0.21  121O :  0.21
  319O :  0.21  335H :  0.21   30H :  0.20  278H :  0.20  259O :  0.20   91O :  0.19  423H :  0.19  429H :  0.19  316O :  0.18  401H :  0.18  396H :  0.18  134H :  0.18
  349O :  0.18  106O :  0.17  307O :  0.17  245H :  0.17  190O :  0.17  104H :  0.17  199O :  0.16   90H :  0.15  514O :  0.15   78H :  0.15  236H :  0.14  436O :  0.14
  405H :  0.13  205O :  0.13  117H :  0.13  466O :  0.13  315H :  0.13  404H :  0.13  432H :  0.13  136O :  0.13  384H :  0.12  280O :  0.12   15H :  0.12    5H :  0.12
   80H :  0.12   18H :  0.12  248H :  0.12   94O :  0.11  352O :  0.11   61O :  0.11  408H :  0.11  380H :  0.11  176H :  0.11  174H :  0.11  101H :  0.11  366H :  0.11
  513H :  0.11  381H :  0.10  373O :  0.10  293H :  0.10   67O :  0.10   36H :  0.09  165H :  0.09  159H :  0.09  530H :  0.09  135H :  0.09  141H :  0.09  414H :  0.09
  289O :  0.09  225H :  0.09   14H :  0.09  116H :  0.08  395H :  0.08  501H :  0.08  323H :  0.08  203H :  0.08  357H :  0.08  428H :  0.08    3H :  0.08   71H :  0.08
  239H :  0.08  358O :  0.08  192H :  0.07  376O :  0.07   38H :  0.07   33H :  0.07  350H :  0.07  398H :  0.07  500H :  0.07  387H :  0.07  161H :  0.07  227H :  0.07
  495H :  0.07
    8 LP   *******   0.00   5.90235   7.38285  -9.54220  379O :  5.33  100O :  3.83  235O :  3.66  427O :  3.13  394O :  3.06   70O :  2.90   10O :  2.77   37O :  2.52    7O :  2.30   46O :  2.30  292O :  2.18  142O :  2.17
  148O :  2.15  313O :  2.09  463O :  2.07  508O :  1.98  154O :  1.90  262O :  1.89  517O :  1.88  448O :  1.86  421O :  1.77  160O :  1.69  334O :  1.61  511O :  1.60
  325O :  1.60  133O :  1.58  247O :  1.55  424O :  1.53  355O :  1.52  214O :  1.51   25O :  1.44  166O :  1.44    1O :  1.29   82O :  1.29  403O :  1.27  127O :  1.27
  493O :  1.24   97O :  1.22  115O :  1.22  382O :  1.21   22O :  1.20  496O :  1.20   73O :  1.17  238O :  1.16  442O :  1.16  271O :  1.16  490O :  1.14  283O :  1.10
  367O :  1.10  175O :  1.08  226O :  1.01  181O :  0.99  364O :  0.97  520O :  0.96  286O :  0.94   79O :  0.94  502O :  0.93  397O :  0.92  418O :  0.91   88O :  0.89
    4O :  0.86   19O :  0.83  529O :  0.83   64O :  0.77  340O :  0.76  229O :  0.76  481O :  0.75  445O :  0.74  370O :  0.72  337O :  0.71   31O :  0.70  331O :  0.69
  430O :  0.69   55O :  0.69  409O :  0.68  163O :  0.68  478O :  0.68  301O :  0.64  130O :  0.64  415O :  0.64  412O :  0.64  433O :  0.63   13O :  0.63  469O :  0.62
   49O :  0.62  361O :  0.62  298O :  0.61  526O :  0.61  223O :  0.59  328O :  0.58  277O :  0.55  439O :  0.54  388O :  0.53  208O :  0.52  151O :  0.52  232O :  0.51
  406O :  0.51  295O :  0.50  184O :  0.47  322O :  0.46   28O :  0.46  391O :  0.45  250O :  0.45  505O :  0.45  241O :  0.45  454O :  0.45   75H :  0.44  112O :  0.44
  145O :  0.44   16O :  0.43   40O :  0.43  484O :  0.43  400O :  0.43  304O :  0.41  499O :  0.41  211O :  0.41   76O :  0.40   58O :  0.40  265O :  0.39  256O :  0.39
  523O :  0.39   48H :  0.39  109O :  0.36  172O :  0.36  202O :  0.35  356H :  0.35  457O :  0.35  253O :  0.35  196O :  0.34  385O :  0.33  343O :  0.31  310O :  0.31
  187O :  0.30  294H :  0.30   27H :  0.30   85O :  0.29  268O :  0.29  103O :  0.29    9H :  0.29  475O :  0.29  118O :  0.29  139O :  0.28  472O :  0.27   43O :  0.27
  487O :  0.25   34O :  0.25  244O :  0.25  193O :  0.25  157O :  0.24  444H :  0.23  178O :  0.22  220O :  0.22  460O :  0.22  169O :  0.22  217O :  0.21  121O :  0.20
  319O :  0.20  335H :  0.20   30H :  0.20  278H :  0.19  259O :  0.19   91O :  0.18  423H :  0.18  429H :  0.18  316O :  0.17  401H :  0.17  396H :  0.17  349O :  0.17
  106O :  0.17  245H :  0.17  307O :  0.16  190O :  0.16  104H :  0.16  134H :  0.16  199O :  0.15   90H :  0.14  514O :  0.14   78H :  0.14  236H :  0.14  436O :  0.13
  405H :  0.13  205O :  0.13  466O :  0.12  117H :  0.12  315H :  0.12  404H :  0.12  432H :  0.12  384H :  0.12  280O :  0.12   15H :  0.12    5H :  0.12   80H :  0.11
   18H :  0.11  381H :  0.11  174H :  0.11  136O :  0.11  248H :  0.11   94O :  0.11  352O :  0.11  408H :  0.11   61O :  0.11  176H :  0.11  101H :  0.11  366H :  0.11
  513H :  0.10   38H :  0.10  373O :  0.09  293H :  0.09   67O :  0.09   36H :  0.09  165H :  0.09  159H :  0.09  530H :  0.09  141H :  0.09  414H :  0.09  289O :  0.09
  225H :  0.08   14H :  0.08  116H :  0.08  380H :  0.08  428H :  0.08  395H :  0.08  501H :  0.08  323H :  0.08  203H :  0.08  357H :  0.08    3H :  0.07   71H :  0.07
  239H :  0.07  135H :  0.07  358O :  0.07  350H :  0.07  192H :  0.07  376O :  0.07   33H :  0.07
    9 LP   *******   0.00   2.35680   2.92493  -9.43006  427O :  5.45  100O :  3.71  235O :  3.54  379O :  3.12  394O :  2.96   70O :  2.80   10O :  2.68   37O :  2.44    7O :  2.23   46O :  2.22  292O :  2.11  142O :  2.10
  148O :  2.07  313O :  2.02  463O :  2.00  508O :  1.91  154O :  1.84  262O :  1.83  517O :  1.82  448O :  1.80  421O :  1.71  160O :  1.63  133O :  1.56  334O :  1.55
  511O :  1.55  325O :  1.55  247O :  1.50  424O :  1.48  355O :  1.47  214O :  1.46   25O :  1.39  166O :  1.39    1O :  1.25   82O :  1.25  403O :  1.24  127O :  1.22
  493O :  1.20   97O :  1.18  115O :  1.18  382O :  1.17   22O :  1.17  496O :  1.16   73O :  1.13  238O :  1.12  271O :  1.12  490O :  1.10  442O :  1.09  283O :  1.07
  367O :  1.06  175O :  1.04  226O :  0.98  181O :  0.96  364O :  0.94  520O :  0.93  286O :  0.91   79O :  0.91  502O :  0.90  397O :  0.89  418O :  0.88   88O :  0.86
    4O :  0.84   19O :  0.81  529O :  0.81   64O :  0.74  340O :  0.74  229O :  0.74  481O :  0.73  445O :  0.71  370O :  0.69  430O :  0.68  337O :  0.68   31O :  0.68
  331O :  0.67   55O :  0.67  409O :  0.66  163O :  0.66  478O :  0.66  301O :  0.62  130O :  0.62  415O :  0.62  412O :  0.62  433O :  0.61   13O :  0.60  469O :  0.60
   49O :  0.60  361O :  0.60  298O :  0.59  526O :  0.59  223O :  0.57  328O :  0.56  277O :  0.53  439O :  0.52  388O :  0.51  208O :  0.50  151O :  0.50  232O :  0.50
  406O :  0.49  295O :  0.48  184O :  0.45  322O :  0.45   28O :  0.44  391O :  0.44  250O :  0.44  505O :  0.43  241O :  0.43  454O :  0.43   75H :  0.43  112O :  0.42
  145O :  0.42   16O :  0.42   40O :  0.42  484O :  0.41  400O :  0.41  304O :  0.40  499O :  0.40  211O :  0.39   76O :  0.39   58O :  0.39   48H :  0.38  265O :  0.38
  523O :  0.38  256O :  0.37  109O :  0.35  202O :  0.34  356H :  0.34  457O :  0.34  253O :  0.34  196O :  0.33  172O :  0.33  385O :  0.32  343O :  0.30  310O :  0.30
  187O :  0.29  294H :  0.29   27H :  0.29   85O :  0.28  103O :  0.28  268O :  0.28    9H :  0.28  475O :  0.28  118O :  0.28  139O :  0.27  472O :  0.26  487O :  0.24
   34O :  0.24   43O :  0.24  193O :  0.24  244O :  0.24  157O :  0.23  444H :  0.22  178O :  0.22  460O :  0.22  220O :  0.21  169O :  0.21  217O :  0.20  121O :  0.19
  319O :  0.19  335H :  0.19   30H :  0.19  278H :  0.19  259O :  0.18   91O :  0.17  423H :  0.17  316O :  0.17  401H :  0.16  396H :  0.16  349O :  0.16  106O :  0.16
  307O :  0.16  245H :  0.16  190O :  0.16  104H :  0.15  199O :  0.14  134H :  0.14  429H :  0.14   90H :  0.14  514O :  0.14   78H :  0.14  236H :  0.13  436O :  0.13
  205O :  0.12  466O :  0.12  117H :  0.12  315H :  0.12  405H :  0.12  404H :  0.12  432H :  0.12  384H :  0.11  280O :  0.11   15H :  0.11    5H :  0.11   80H :  0.11
   18H :  0.11  136O :  0.11  248H :  0.11   94O :  0.11  352O :  0.11  408H :  0.10   61O :  0.10  174H :  0.10  176H :  0.10  101H :  0.10  366H :  0.10  513H :  0.10
  381H :  0.10   38H :  0.09  380H :  0.09  373O :  0.09  293H :  0.09   67O :  0.09   36H :  0.09  165H :  0.09  159H :  0.09  530H :  0.09  141H :  0.08  414H :  0.08
  289O :  0.08  225H :  0.08   14H :  0.08  116H :  0.08  395H :  0.08  501H :  0.08  323H :  0.08  203H :  0.08  357H :  0.08  173H :  0.07    3H :  0.07   71H :  0.07
  239H :  0.07  358O :  0.07  135H :  0.07
   10 LP   *******   0.01   6.15530   9.32514   2.17274    7O :  4.17  100O :  3.47  235O :  3.32  379O :  2.92  427O :  2.84  394O :  2.77   70O :  2.63   10O :  2.51   37O :  2.28   46O :  2.08  292O :  1.98  142O :  1.97
  148O :  1.95  313O :  1.89  463O :  1.88  508O :  1.79  154O :  1.72  262O :  1.71  517O :  1.70  448O :  1.68  421O :  1.60  160O :  1.53  334O :  1.46  511O :  1.45
  325O :  1.45  133O :  1.45  247O :  1.40  424O :  1.38  355O :  1.38  214O :  1.36   25O :  1.31  166O :  1.30    1O :  1.17   82O :  1.17  403O :  1.15  127O :  1.15
  493O :  1.12   97O :  1.11  115O :  1.10  382O :  1.10   22O :  1.09  496O :  1.09   73O :  1.06  442O :  1.06  238O :  1.05  271O :  1.05  490O :  1.03  283O :  1.00
  367O :  0.99  175O :  0.98  226O :  0.91  181O :  0.90  364O :  0.88  520O :  0.87  286O :  0.85   79O :  0.85  502O :  0.85  397O :  0.83  418O :  0.82   88O :  0.80
    4O :  0.78   19O :  0.76  529O :  0.76   64O :  0.70  340O :  0.69  229O :  0.69  481O :  0.68  445O :  0.67  370O :  0.65  430O :  0.64  337O :  0.64   31O :  0.64
  331O :  0.63   55O :  0.62  409O :  0.62  163O :  0.62  478O :  0.62  301O :  0.58  130O :  0.58  415O :  0.58  412O :  0.58  433O :  0.57   13O :  0.57  469O :  0.56
   49O :  0.56  361O :  0.56  298O :  0.55  526O :  0.55  223O :  0.54  328O :  0.53  277O :  0.49  439O :  0.49  388O :  0.48  208O :  0.47  151O :  0.47  232O :  0.47
  406O :  0.46  295O :  0.45   28O :  0.43  184O :  0.43  322O :  0.42  391O :  0.41  250O :  0.41  505O :  0.41  454O :  0.41  241O :  0.41   75H :  0.40  112O :  0.40
  145O :  0.40   16O :  0.39   40O :  0.39  400O :  0.39  484O :  0.39  304O :  0.38  499O :  0.37  211O :  0.37   58O :  0.36   48H :  0.36  265O :  0.36  523O :  0.35
   76O :  0.35  256O :  0.35  109O :  0.33  172O :  0.33  202O :  0.32  356H :  0.32  457O :  0.32  196O :  0.32  385O :  0.32  253O :  0.31  343O :  0.28  310O :  0.28
  187O :  0.27  294H :  0.27   27H :  0.27   85O :  0.26  268O :  0.26  103O :  0.26  475O :  0.26  118O :  0.26  139O :  0.25  472O :  0.25   43O :  0.24  487O :  0.23
    9H :  0.23   34O :  0.23  193O :  0.22  244O :  0.22  157O :  0.22  444H :  0.21  460O :  0.20  220O :  0.20  169O :  0.20  178O :  0.19  217O :  0.19  121O :  0.18
  319O :  0.18   30H :  0.18  335H :  0.18  278H :  0.18  259O :  0.17   91O :  0.16  423H :  0.16  429H :  0.16  316O :  0.16  401H :  0.15  396H :  0.15  349O :  0.15
  106O :  0.15  307O :  0.15  245H :  0.15  190O :  0.15  104H :  0.14  134H :  0.14  199O :  0.14   90H :  0.13  514O :  0.13   78H :  0.13  236H :  0.12  436O :  0.12
  405H :  0.12  205O :  0.12  466O :  0.11  117H :  0.11  404H :  0.11  315H :  0.11  432H :  0.11  384H :  0.11  280O :  0.11   15H :  0.11    5H :  0.10   80H :  0.10
   18H :  0.10  136O :  0.10  248H :  0.10   94O :  0.10  352O :  0.10  408H :  0.10  380H :  0.10   61O :  0.10  174H :  0.10  176H :  0.10  101H :  0.10  366H :  0.10
  513H :  0.09  381H :  0.09   38H :  0.09  373O :  0.09  293H :  0.08   67O :  0.08  165H :  0.08   36H :  0.08  159H :  0.08  530H :  0.08  141H :  0.08  414H :  0.08
  289O :  0.08  225H :  0.08   14H :  0.08  116H :  0.07  395H :  0.07  501H :  0.07  323H :  0.07  357H :  0.07
   11 LP   *******   0.01 -10.12973 -11.21171  -9.74339  463O :  4.01  100O :  3.47  235O :  3.31  379O :  2.92  427O :  2.83  394O :  2.77   70O :  2.62   10O :  2.51   37O :  2.28    7O :  2.08   46O :  2.08  292O :  1.97
  142O :  1.97  148O :  1.95  313O :  1.89  508O :  1.79  154O :  1.72  262O :  1.71  517O :  1.70  448O :  1.69  421O :  1.60  160O :  1.53  334O :  1.45  511O :  1.45
  133O :  1.45  325O :  1.45  247O :  1.40  424O :  1.38  355O :  1.37  214O :  1.36   25O :  1.30  166O :  1.30    1O :  1.17   82O :  1.17  403O :  1.15  127O :  1.15
  493O :  1.12   97O :  1.10  115O :  1.10  382O :  1.10   22O :  1.09  496O :  1.08   73O :  1.06  442O :  1.05  238O :  1.05  271O :  1.05  490O :  1.03  283O :  1.00
  367O :  0.99  175O :  0.98  226O :  0.91  181O :  0.90  364O :  0.87  520O :  0.87  286O :  0.85   79O :  0.85  502O :  0.84  397O :  0.84  418O :  0.82   88O :  0.80
    4O :  0.78   19O :  0.76  529O :  0.75   64O :  0.70  340O :  0.69  229O :  0.69  481O :  0.68  445O :  0.67  370O :  0.65  430O :  0.64  337O :  0.64   31O :  0.64
  331O :  0.63   55O :  0.62  409O :  0.62  163O :  0.62  478O :  0.62  301O :  0.58  130O :  0.58  415O :  0.58  412O :  0.58  433O :  0.57   13O :  0.57  469O :  0.56
   49O :  0.56  361O :  0.56  526O :  0.55  298O :  0.55  223O :  0.53  328O :  0.53  277O :  0.49  439O :  0.49  388O :  0.48  208O :  0.47  151O :  0.47  232O :  0.47
  406O :  0.46  295O :  0.45  184O :  0.43  322O :  0.42   28O :  0.42  391O :  0.41  250O :  0.41  505O :  0.41  241O :  0.41  454O :  0.40   75H :  0.40  112O :  0.40
  145O :  0.40   16O :  0.39   40O :  0.39  484O :  0.39  400O :  0.39  304O :  0.38  499O :  0.37  211O :  0.37   76O :  0.37   58O :  0.36   48H :  0.36  265O :  0.36
  523O :  0.35  256O :  0.35  109O :  0.33  172O :  0.33  202O :  0.32  356H :  0.32  457O :  0.32  253O :  0.31  196O :  0.31  385O :  0.30  343O :  0.28  310O :  0.28
  187O :  0.27  294H :  0.27   27H :  0.27   85O :  0.26  268O :  0.26  103O :  0.26    9H :  0.26  475O :  0.26  118O :  0.26  139O :  0.25  472O :  0.25   43O :  0.24
  487O :  0.23   34O :  0.23  193O :  0.22  244O :  0.22  157O :  0.22  444H :  0.21  178O :  0.20  460O :  0.20  220O :  0.20  169O :  0.20  217O :  0.19  121O :  0.18
  319O :  0.18  335H :  0.18   30H :  0.18  278H :  0.17  259O :  0.17   91O :  0.16  423H :  0.16  429H :  0.16  316O :  0.16  396H :  0.15  349O :  0.15  401H :  0.15
  106O :  0.15  307O :  0.15  245H :  0.15  190O :  0.15  104H :  0.14  134H :  0.14  199O :  0.14   90H :  0.13  514O :  0.13   78H :  0.13  236H :  0.12  436O :  0.12
  405H :  0.12  205O :  0.12  117H :  0.11  315H :  0.11  404H :  0.11  432H :  0.11  384H :  0.11  280O :  0.11   15H :  0.11    5H :  0.10   80H :  0.10   18H :  0.10
  136O :  0.10  466O :  0.10  248H :  0.10   94O :  0.10  352O :  0.10  408H :  0.10  380H :  0.10   61O :  0.10  176H :  0.10  174H :  0.10  101H :  0.10  366H :  0.10
  513H :  0.09  381H :  0.09   38H :  0.09  373O :  0.09  293H :  0.08   67O :  0.08   36H :  0.08  165H :  0.08  159H :  0.08  530H :  0.08  141H :  0.08  414H :  0.08
  289O :  0.08  225H :  0.08   14H :  0.07  116H :  0.07  395H :  0.07  501H :  0.07  323H :  0.07  203H :  0.07  357H :  0.07
   12 LP   *******   0.01  -1.33742   9.54447  -5.09878   46O :  4.04  100O :  3.27  235O :  3.13  379O :  2.75  427O :  2.67  394O :  2.62   70O :  2.48   10O :  2.37   37O :  2.14    7O :  1.97  292O :  1.87  142O :  1.86
  148O :  1.85  313O :  1.79  463O :  1.77  508O :  1.69  154O :  1.63  262O :  1.61  517O :  1.61  448O :  1.59  421O :  1.51  160O :  1.44  133O :  1.37  334O :  1.37
  511O :  1.37  325O :  1.37  247O :  1.32  424O :  1.30  355O :  1.30  214O :  1.29   25O :  1.23  166O :  1.23    1O :  1.10   82O :  1.10  403O :  1.09  127O :  1.08
  493O :  1.06   97O :  1.04  115O :  1.04  382O :  1.04   22O :  1.03  496O :  1.02   73O :  1.00  238O :  0.99  271O :  0.99  442O :  0.98  490O :  0.97  283O :  0.94
  367O :  0.94  175O :  0.92  226O :  0.86  181O :  0.85  364O :  0.83  520O :  0.82  286O :  0.80   79O :  0.80  502O :  0.80  397O :  0.78  418O :  0.78   88O :  0.76
    4O :  0.74   19O :  0.71  529O :  0.71   64O :  0.66  340O :  0.65  229O :  0.65  481O :  0.64  445O :  0.63  370O :  0.61  430O :  0.60  337O :  0.60   31O :  0.60
  331O :  0.59   55O :  0.59  409O :  0.58  478O :  0.58  163O :  0.58  301O :  0.55  130O :  0.55  415O :  0.55  412O :  0.55  433O :  0.54   13O :  0.53  469O :  0.53
   49O :  0.53  361O :  0.53  298O :  0.52  526O :  0.52  223O :  0.51  328O :  0.50  277O :  0.47  439O :  0.46  388O :  0.45  208O :  0.44  151O :  0.44  232O :  0.44
  406O :  0.43  295O :  0.43  184O :  0.40  322O :  0.40   28O :  0.39  391O :  0.39  250O :  0.38  505O :  0.38  241O :  0.38  454O :  0.38   75H :  0.38  112O :  0.38
  145O :  0.38   16O :  0.37   40O :  0.37  484O :  0.37  400O :  0.36  304O :  0.35  499O :  0.35  211O :  0.35   76O :  0.35   58O :  0.34  265O :  0.34  523O :  0.33
  256O :  0.33  109O :  0.31  172O :  0.31  202O :  0.31  356H :  0.30  457O :  0.30   48H :  0.30  253O :  0.30  196O :  0.29  385O :  0.28  343O :  0.27  310O :  0.26
  187O :  0.26  294H :  0.26   27H :  0.25   85O :  0.25  268O :  0.25  103O :  0.25    9H :  0.25  475O :  0.25  118O :  0.24  139O :  0.24  472O :  0.23   43O :  0.23
  487O :  0.22   34O :  0.21  193O :  0.21  244O :  0.21  157O :  0.20  444H :  0.19  178O :  0.19  460O :  0.19  220O :  0.19  169O :  0.18  217O :  0.18  121O :  0.17
  319O :  0.17  335H :  0.17   30H :  0.17  278H :  0.17  259O :  0.16   91O :  0.15  423H :  0.15  429H :  0.15  316O :  0.15  401H :  0.15  396H :  0.15  349O :  0.14
  106O :  0.14  307O :  0.14  245H :  0.14  190O :  0.14  134H :  0.14  104H :  0.14  199O :  0.13   90H :  0.12  514O :  0.12   78H :  0.12  236H :  0.12  436O :  0.11
  405H :  0.11  205O :  0.11  466O :  0.10  117H :  0.10  404H :  0.10  315H :  0.10  432H :  0.10  384H :  0.10  280O :  0.10   15H :  0.10    5H :  0.10   80H :  0.10
   18H :  0.10  248H :  0.10   94O :  0.09  136O :  0.09  352O :  0.09  408H :  0.09  380H :  0.09  176H :  0.09  174H :  0.09   61O :  0.09  101H :  0.09  366H :  0.09
  513H :  0.09  381H :  0.09   38H :  0.08  373O :  0.08  293H :  0.08   67O :  0.08   36H :  0.08  165H :  0.08  159H :  0.08  530H :  0.08  141H :  0.07  414H :  0.07
  289O :  0.07  225H :  0.07   14H :  0.07
   13 LP   *******   0.01  10.23700  -9.19983  -2.38386  292O :  3.88  100O :  3.18  235O :  3.04  379O :  2.68  427O :  2.60  394O :  2.54   70O :  2.41   10O :  2.30   37O :  2.09    7O :  1.91   46O :  1.91  142O :  1.80
  148O :  1.79  313O :  1.74  463O :  1.72  508O :  1.64  154O :  1.58  262O :  1.57  517O :  1.56  448O :  1.55  421O :  1.47  160O :  1.40  334O :  1.34  511O :  1.33
  133O :  1.33  325O :  1.33  247O :  1.29  424O :  1.27  355O :  1.26  214O :  1.25   25O :  1.20  166O :  1.20    1O :  1.07   82O :  1.07  403O :  1.06  127O :  1.05
  493O :  1.03   97O :  1.01  115O :  1.01  382O :  1.01   22O :  1.00  496O :  1.00   73O :  0.97  442O :  0.97  238O :  0.96  271O :  0.96  490O :  0.95  283O :  0.92
  367O :  0.91  175O :  0.90  226O :  0.84  181O :  0.82  364O :  0.81  520O :  0.80  286O :  0.78   79O :  0.78  502O :  0.78  418O :  0.77  397O :  0.76   88O :  0.74
    4O :  0.72   19O :  0.69  529O :  0.69   64O :  0.64  340O :  0.63  481O :  0.62  229O :  0.62  445O :  0.61  370O :  0.60  430O :  0.59  337O :  0.59   31O :  0.58
  331O :  0.58   55O :  0.57  409O :  0.57  163O :  0.57  478O :  0.57  415O :  0.54  301O :  0.53  130O :  0.53  412O :  0.53  433O :  0.52   13O :  0.52  469O :  0.52
   49O :  0.52  361O :  0.51  526O :  0.51  298O :  0.51  223O :  0.49  328O :  0.48  277O :  0.45  439O :  0.45  388O :  0.44  208O :  0.43  151O :  0.43  232O :  0.43
  406O :  0.42  295O :  0.41  184O :  0.39  322O :  0.39   28O :  0.38  391O :  0.38  250O :  0.37  505O :  0.37  241O :  0.37  454O :  0.37   75H :  0.37  112O :  0.36
  145O :  0.36   16O :  0.36   40O :  0.36  484O :  0.36  400O :  0.35  304O :  0.34  499O :  0.34  211O :  0.34   76O :  0.34   58O :  0.33   48H :  0.33  265O :  0.33
  523O :  0.32  256O :  0.32  109O :  0.30  172O :  0.30  202O :  0.29  356H :  0.29  457O :  0.29  253O :  0.29  196O :  0.29  385O :  0.27  343O :  0.26  310O :  0.26
  187O :  0.25   27H :  0.25   85O :  0.24  103O :  0.24  268O :  0.24    9H :  0.24  475O :  0.24  118O :  0.24  139O :  0.23  472O :  0.23   43O :  0.22  294H :  0.22
  487O :  0.21   34O :  0.21  193O :  0.21  244O :  0.20  157O :  0.20  444H :  0.19  178O :  0.19  460O :  0.19  220O :  0.18  169O :  0.18  217O :  0.17  319O :  0.17
  121O :  0.16  335H :  0.16   30H :  0.16  278H :  0.16  259O :  0.16   91O :  0.15  423H :  0.15  429H :  0.15  316O :  0.14  401H :  0.14  396H :  0.14  349O :  0.14
  106O :  0.14  307O :  0.14  245H :  0.14  190O :  0.13  104H :  0.13  134H :  0.13  199O :  0.13   90H :  0.12  514O :  0.12   78H :  0.12  236H :  0.11  436O :  0.11
  405H :  0.11  205O :  0.11  466O :  0.10  117H :  0.10  315H :  0.10  404H :  0.10  432H :  0.10  384H :  0.10  280O :  0.10   15H :  0.10    5H :  0.10   80H :  0.10
  136O :  0.09  248H :  0.09   94O :  0.09  352O :  0.09  408H :  0.09  380H :  0.09   61O :  0.09  176H :  0.09  174H :  0.09  101H :  0.09  366H :  0.09  513H :  0.09
   18H :  0.09  293H :  0.08  381H :  0.08   38H :  0.08  373O :  0.08   67O :  0.08   36H :  0.08  165H :  0.08  159H :  0.07  530H :  0.07  141H :  0.07  414H :  0.07
  289O :  0.07  225H :  0.07
   14 LP   *******   0.01   3.48903   5.01005  12.25430  154O :  3.77  100O :  3.10  235O :  2.97  379O :  2.61  427O :  2.54  394O :  2.48   70O :  2.35   10O :  2.25   37O :  2.04    7O :  1.87   46O :  1.87  292O :  1.77
  142O :  1.76  148O :  1.75  313O :  1.69  463O :  1.68  508O :  1.60  262O :  1.53  517O :  1.52  448O :  1.51  421O :  1.44  160O :  1.37  334O :  1.30  511O :  1.30
  133O :  1.30  325O :  1.30  247O :  1.25  424O :  1.24  355O :  1.23  214O :  1.22   25O :  1.17  166O :  1.17    1O :  1.05   82O :  1.04  403O :  1.03  127O :  1.03
  493O :  1.00   97O :  0.99  115O :  0.99  382O :  0.98   22O :  0.98  496O :  0.97   73O :  0.95  442O :  0.94  238O :  0.94  271O :  0.94  490O :  0.92  283O :  0.89
  367O :  0.89  175O :  0.87  226O :  0.82  181O :  0.80  364O :  0.79  520O :  0.78  286O :  0.76   79O :  0.76  502O :  0.76  397O :  0.74  418O :  0.74   88O :  0.72
    4O :  0.70   19O :  0.68  529O :  0.68   64O :  0.62  340O :  0.62  229O :  0.62  481O :  0.61  445O :  0.60  370O :  0.58  430O :  0.57  337O :  0.57   31O :  0.57
  331O :  0.56   55O :  0.56  163O :  0.55  409O :  0.55  478O :  0.55  301O :  0.52  130O :  0.52  415O :  0.52  412O :  0.52  433O :  0.51   13O :  0.51  469O :  0.51
   49O :  0.50  361O :  0.50  298O :  0.49  526O :  0.49  223O :  0.48  328O :  0.47  277O :  0.44  439O :  0.44  388O :  0.43  208O :  0.42  151O :  0.42  232O :  0.42
  406O :  0.41  295O :  0.40  184O :  0.38  322O :  0.38   28O :  0.37  391O :  0.37  250O :  0.36  505O :  0.36  454O :  0.36   75H :  0.36  241O :  0.36  112O :  0.36
  145O :  0.36   16O :  0.35   40O :  0.35  484O :  0.35  400O :  0.34  304O :  0.34  499O :  0.33  211O :  0.33   76O :  0.33   58O :  0.32   48H :  0.32  265O :  0.32
  523O :  0.32  256O :  0.31  172O :  0.29  202O :  0.29  109O :  0.29  356H :  0.28  457O :  0.28  253O :  0.28  196O :  0.28  385O :  0.27  343O :  0.25  310O :  0.25
  187O :  0.24  294H :  0.24   27H :  0.24   85O :  0.24  103O :  0.23  268O :  0.23    9H :  0.23  475O :  0.23  118O :  0.23  139O :  0.22  472O :  0.22   43O :  0.21
  487O :  0.20   34O :  0.20  193O :  0.20  244O :  0.20  157O :  0.19  444H :  0.18  178O :  0.18  460O :  0.18  220O :  0.18  169O :  0.18  217O :  0.17  121O :  0.16
  319O :  0.16  335H :  0.16   30H :  0.16  278H :  0.16  259O :  0.15   91O :  0.15  423H :  0.15  429H :  0.14  316O :  0.14  401H :  0.14  396H :  0.14  349O :  0.14
  106O :  0.13  307O :  0.13  245H :  0.13  190O :  0.13  104H :  0.13  134H :  0.13  199O :  0.12   90H :  0.12  514O :  0.12   78H :  0.11  236H :  0.11  436O :  0.11
  405H :  0.10  205O :  0.10  466O :  0.10  117H :  0.10  315H :  0.10  404H :  0.10  432H :  0.10  384H :  0.10  280O :  0.10   15H :  0.09    5H :  0.09   80H :  0.09
   18H :  0.09  136O :  0.09  248H :  0.09   94O :  0.09  352O :  0.09  408H :  0.09  380H :  0.09   61O :  0.09  176H :  0.09  174H :  0.09  101H :  0.09  366H :  0.09
  513H :  0.08  381H :  0.08   38H :  0.08  373O :  0.08  293H :  0.08   67O :  0.08   36H :  0.07  165H :  0.07  159H :  0.07  530H :  0.07  141H :  0.07
   15 LP   *******   0.01 -36.37660  23.34753   8.80479  100O :  2.82  235O :  2.69   73O :  2.53  379O :  2.37  427O :  2.30  394O :  2.25   70O :  2.13   10O :  2.04   37O :  1.85    7O :  1.69   46O :  1.69  292O :  1.61
  142O :  1.60  148O :  1.59  313O :  1.54  463O :  1.53  508O :  1.46  154O :  1.40  262O :  1.39  517O :  1.38  448O :  1.37  421O :  1.30  160O :  1.24   75H :  1.20
  334O :  1.18  511O :  1.18  133O :  1.18  325O :  1.18  247O :  1.14  424O :  1.12  355O :  1.12  214O :  1.11   25O :  1.06  166O :  1.06    1O :  0.95   82O :  0.95
  403O :  0.94  127O :  0.93  493O :  0.91   97O :  0.90  115O :  0.90  382O :  0.89   22O :  0.89  496O :  0.88  442O :  0.86  238O :  0.85  271O :  0.85  490O :  0.84
  283O :  0.81  367O :  0.81  175O :  0.79  226O :  0.74  181O :  0.74  364O :  0.71  520O :  0.71  286O :  0.69   79O :  0.69  502O :  0.69  397O :  0.68  418O :  0.67
   88O :  0.65    4O :  0.64   19O :  0.61  529O :  0.61   64O :  0.57  340O :  0.56  229O :  0.56  481O :  0.55  445O :  0.54  370O :  0.53  430O :  0.52  337O :  0.52
   31O :  0.52  331O :  0.51   55O :  0.51  409O :  0.50  163O :  0.50  478O :  0.50  301O :  0.47  130O :  0.47  415O :  0.47  412O :  0.47  433O :  0.46   13O :  0.46
  469O :  0.46   49O :  0.46  361O :  0.45  298O :  0.45  526O :  0.45  223O :  0.43  328O :  0.43  277O :  0.40  439O :  0.40  388O :  0.39  208O :  0.39  151O :  0.38
  232O :  0.38  406O :  0.37  295O :  0.37  184O :  0.35  322O :  0.34   28O :  0.34  391O :  0.33  250O :  0.33  505O :  0.33  241O :  0.33  454O :  0.33  145O :  0.32
  112O :  0.32   16O :  0.32   40O :  0.32  484O :  0.32  400O :  0.31  304O :  0.31  499O :  0.30  211O :  0.30   76O :  0.30   58O :  0.29   48H :  0.29  265O :  0.29
  523O :  0.29  256O :  0.28  109O :  0.27  172O :  0.27  202O :  0.26  356H :  0.26  457O :  0.26  253O :  0.26  196O :  0.25  385O :  0.24  343O :  0.23  310O :  0.23
  294H :  0.22  187O :  0.22   27H :  0.22   85O :  0.22  268O :  0.21  103O :  0.21    9H :  0.21  475O :  0.21  118O :  0.21  139O :  0.20  472O :  0.20   43O :  0.20
  487O :  0.19   34O :  0.18  193O :  0.18  244O :  0.18  157O :  0.18  444H :  0.17  178O :  0.16  460O :  0.16  220O :  0.16  169O :  0.16  217O :  0.15  121O :  0.15
  319O :  0.15  335H :  0.14   30H :  0.14  278H :  0.14  259O :  0.14   91O :  0.13  423H :  0.13  429H :  0.13  316O :  0.13  401H :  0.13  349O :  0.12  106O :  0.12
  307O :  0.12  245H :  0.12  104H :  0.12  134H :  0.11  199O :  0.11  190O :  0.11   90H :  0.11  514O :  0.11   78H :  0.10  396H :  0.10  236H :  0.10  436O :  0.10
  405H :  0.09  205O :  0.09  466O :  0.09  117H :  0.09  315H :  0.09  404H :  0.09  432H :  0.09  384H :  0.09  280O :  0.09   15H :  0.09    5H :  0.08   80H :  0.08
   18H :  0.08  136O :  0.08  248H :  0.08   94O :  0.08  352O :  0.08  408H :  0.08  380H :  0.08   61O :  0.08  176H :  0.08  174H :  0.08  101H :  0.08  366H :  0.08
  513H :  0.08  381H :  0.07   38H :  0.07
   16 LP   *******   0.01  -0.63720  -2.22476 -13.61264  421O :  3.35  100O :  2.84  235O :  2.72  379O :  2.39  427O :  2.32  394O :  2.27   70O :  2.15   10O :  2.06   37O :  1.87    7O :  1.71   46O :  1.71  292O :  1.62
  142O :  1.61  148O :  1.60  313O :  1.55  463O :  1.54  508O :  1.47  154O :  1.41  262O :  1.40  517O :  1.39  448O :  1.38  160O :  1.25  334O :  1.19  511O :  1.19
  133O :  1.19  325O :  1.19  247O :  1.15  424O :  1.13  355O :  1.13  214O :  1.12   25O :  1.07  166O :  1.07    1O :  0.96   82O :  0.95  127O :  0.94  493O :  0.92
  403O :  0.91   97O :  0.90  115O :  0.90  382O :  0.90   22O :  0.89  496O :  0.89   73O :  0.87  442O :  0.86  238O :  0.86  271O :  0.86  490O :  0.85  283O :  0.82
  367O :  0.81  175O :  0.80  226O :  0.75  181O :  0.73  364O :  0.72  520O :  0.71  286O :  0.70   79O :  0.70  502O :  0.69  397O :  0.68  418O :  0.67   88O :  0.66
    4O :  0.64   19O :  0.62  529O :  0.62   64O :  0.57  340O :  0.57  229O :  0.57  481O :  0.56  445O :  0.55  370O :  0.53  430O :  0.52  337O :  0.52   31O :  0.52
  331O :  0.52   55O :  0.51  409O :  0.51  163O :  0.51  478O :  0.51  301O :  0.48  130O :  0.48  415O :  0.48  412O :  0.47  433O :  0.47   13O :  0.46  469O :  0.46
   49O :  0.46  361O :  0.46  298O :  0.45  526O :  0.45  223O :  0.44  328O :  0.43  277O :  0.40  439O :  0.40  388O :  0.39  208O :  0.39  151O :  0.38  232O :  0.38
  406O :  0.38  295O :  0.37  184O :  0.35  322O :  0.34   28O :  0.34  391O :  0.34  250O :  0.33  505O :  0.33  241O :  0.33  454O :  0.33   75H :  0.33  112O :  0.33
  145O :  0.33   16O :  0.32   40O :  0.32  484O :  0.32  400O :  0.32  304O :  0.31  499O :  0.30  211O :  0.30   76O :  0.30   58O :  0.30   48H :  0.29  265O :  0.29
  523O :  0.29  256O :  0.28  109O :  0.27  172O :  0.27  202O :  0.26  356H :  0.26  457O :  0.26  253O :  0.26  196O :  0.26  385O :  0.24  343O :  0.23  310O :  0.23
  187O :  0.22  294H :  0.22   27H :  0.22   85O :  0.22  268O :  0.21  103O :  0.21    9H :  0.21  475O :  0.21  118O :  0.21  139O :  0.21  472O :  0.20   43O :  0.20
  487O :  0.19   34O :  0.19  193O :  0.18  244O :  0.18  157O :  0.18  444H :  0.17  178O :  0.17  460O :  0.17  220O :  0.16  169O :  0.16  217O :  0.15  121O :  0.15
  319O :  0.15  335H :  0.15   30H :  0.15  278H :  0.14  259O :  0.14   91O :  0.13  429H :  0.13  316O :  0.13  401H :  0.13  396H :  0.13  349O :  0.13  106O :  0.12
  307O :  0.12  245H :  0.12  190O :  0.12  104H :  0.12  134H :  0.12  199O :  0.11  423H :  0.11   90H :  0.11  514O :  0.11   78H :  0.10  236H :  0.10  436O :  0.10
  405H :  0.10  205O :  0.09  466O :  0.09  117H :  0.09  315H :  0.09  432H :  0.09  384H :  0.09  280O :  0.09   15H :  0.09    5H :  0.09   80H :  0.08   18H :  0.08
  136O :  0.08  248H :  0.08   94O :  0.08  352O :  0.08  408H :  0.08  380H :  0.08   61O :  0.08  176H :  0.08  174H :  0.08  101H :  0.08  366H :  0.08  513H :  0.08
  381H :  0.07   38H :  0.07  373O :  0.07
   17 LP   *******   0.01 -11.38031   0.37058   7.22490  142O :  3.61  100O :  2.82  235O :  2.70  379O :  2.38  427O :  2.31  394O :  2.26   70O :  2.14   10O :  2.04   37O :  1.86    7O :  1.70   46O :  1.70  292O :  1.61
  148O :  1.59  313O :  1.54  463O :  1.53  508O :  1.46  154O :  1.40  262O :  1.39  517O :  1.39  448O :  1.37  421O :  1.31  160O :  1.26  334O :  1.18  511O :  1.18
  133O :  1.18  325O :  1.18  247O :  1.14  424O :  1.12  355O :  1.12  214O :  1.11   25O :  1.06  166O :  1.06    1O :  0.95   82O :  0.95  403O :  0.94  127O :  0.93
  493O :  0.91   97O :  0.90  115O :  0.90  382O :  0.90   22O :  0.89  496O :  0.88   73O :  0.86  442O :  0.86  238O :  0.86  271O :  0.85  490O :  0.84  283O :  0.81
  367O :  0.81  175O :  0.80  226O :  0.74  181O :  0.73  364O :  0.72   79O :  0.71  520O :  0.71  286O :  0.69  502O :  0.69  397O :  0.68  418O :  0.67   88O :  0.65
    4O :  0.64   19O :  0.62  529O :  0.61   64O :  0.57  340O :  0.56  229O :  0.56  481O :  0.55  445O :  0.54  370O :  0.53  430O :  0.52  337O :  0.52   31O :  0.52
  331O :  0.51   55O :  0.51  409O :  0.50  163O :  0.50  478O :  0.50  301O :  0.47  130O :  0.47  415O :  0.47  412O :  0.47  433O :  0.46  469O :  0.46   13O :  0.46
   49O :  0.46  361O :  0.45  298O :  0.45  526O :  0.45  223O :  0.44  328O :  0.43  277O :  0.40  439O :  0.40  151O :  0.40  388O :  0.39  208O :  0.38  232O :  0.38
  406O :  0.38  295O :  0.37  184O :  0.36  322O :  0.34   28O :  0.34  391O :  0.33  250O :  0.33  505O :  0.33  241O :  0.33  454O :  0.33  112O :  0.32   75H :  0.32
  145O :  0.32   16O :  0.32  484O :  0.32   40O :  0.32  400O :  0.31  304O :  0.31  499O :  0.30  211O :  0.30   76O :  0.30   58O :  0.29   48H :  0.29  265O :  0.29
  523O :  0.29  256O :  0.28  109O :  0.27  172O :  0.27  202O :  0.26  356H :  0.26  457O :  0.26  253O :  0.26  196O :  0.25  385O :  0.24  343O :  0.23  310O :  0.23
  187O :  0.22  294H :  0.22   27H :  0.22   85O :  0.22  268O :  0.21  103O :  0.21    9H :  0.21  475O :  0.21  118O :  0.21  139O :  0.20  472O :  0.20   43O :  0.20
  487O :  0.19   34O :  0.18  193O :  0.18  244O :  0.18  157O :  0.18  444H :  0.17  178O :  0.17  460O :  0.16  220O :  0.16  169O :  0.16  217O :  0.15  121O :  0.15
  319O :  0.15  335H :  0.15   30H :  0.14  278H :  0.14  259O :  0.14   91O :  0.13  423H :  0.13  429H :  0.13  316O :  0.13  401H :  0.13  396H :  0.13  349O :  0.12
  106O :  0.12  307O :  0.12  245H :  0.12  190O :  0.12  104H :  0.12  134H :  0.11  199O :  0.11   90H :  0.11  514O :  0.11   78H :  0.10  236H :  0.10  436O :  0.10
  405H :  0.09  205O :  0.09   15H :  0.09  466O :  0.09  117H :  0.09  404H :  0.09  315H :  0.09  432H :  0.09  384H :  0.09  280O :  0.09   80H :  0.09    5H :  0.08
   18H :  0.08   81H :  0.08  136O :  0.08  248H :  0.08   94O :  0.08  352O :  0.08  408H :  0.08  380H :  0.08   61O :  0.08  174H :  0.08  176H :  0.08  101H :  0.08
  366H :  0.08  513H :  0.08  381H :  0.07   38H :  0.07
   18 LP   *******   0.01 -13.72510  -7.80234  -2.28715  508O :  3.41  100O :  2.75  235O :  2.63  379O :  2.32  427O :  2.25  394O :  2.20   70O :  2.08   10O :  1.99   37O :  1.81    7O :  1.66   46O :  1.66  292O :  1.57
  142O :  1.56  148O :  1.55  313O :  1.50  463O :  1.49  154O :  1.37  262O :  1.36  517O :  1.35  448O :  1.34  421O :  1.27  160O :  1.21  334O :  1.16  511O :  1.15
  133O :  1.15  325O :  1.15  247O :  1.11  424O :  1.10  355O :  1.09  214O :  1.08   25O :  1.04  166O :  1.04    1O :  0.93   82O :  0.93  403O :  0.91  127O :  0.91
  493O :  0.89   97O :  0.88  115O :  0.87  382O :  0.87   22O :  0.87  496O :  0.86   73O :  0.84  442O :  0.84  238O :  0.83  271O :  0.83  490O :  0.82  283O :  0.79
  367O :  0.79  175O :  0.78  226O :  0.73  181O :  0.71  364O :  0.69  520O :  0.69   79O :  0.67  502O :  0.67  286O :  0.66  418O :  0.65  397O :  0.65   88O :  0.64
    4O :  0.62   19O :  0.60  529O :  0.60   64O :  0.55  340O :  0.55  229O :  0.55  481O :  0.54  445O :  0.53  370O :  0.52  430O :  0.51  337O :  0.51   31O :  0.51
  331O :  0.50   55O :  0.49  409O :  0.49  163O :  0.49  478O :  0.49  301O :  0.46  130O :  0.46  415O :  0.46  412O :  0.46  433O :  0.45   13O :  0.45  469O :  0.45
   49O :  0.45  361O :  0.44  526O :  0.44  298O :  0.44  223O :  0.42  328O :  0.42  277O :  0.39  439O :  0.39  388O :  0.38  208O :  0.37  151O :  0.37  232O :  0.37
  406O :  0.37  295O :  0.36  184O :  0.34  322O :  0.33   28O :  0.33  391O :  0.33  250O :  0.32  505O :  0.32  241O :  0.32  454O :  0.32   75H :  0.32  112O :  0.32
  145O :  0.32   16O :  0.31   40O :  0.31  484O :  0.31  400O :  0.30  304O :  0.30  499O :  0.29  211O :  0.29   76O :  0.29   58O :  0.29   48H :  0.29  265O :  0.28
  523O :  0.28  256O :  0.28  109O :  0.26  172O :  0.26  202O :  0.26  356H :  0.25  457O :  0.25  253O :  0.25  196O :  0.25  385O :  0.24  343O :  0.23  310O :  0.22
  187O :  0.22  294H :  0.22   27H :  0.21   85O :  0.21  268O :  0.21  103O :  0.21    9H :  0.21  475O :  0.21  118O :  0.21  139O :  0.20  472O :  0.20   43O :  0.19
  487O :  0.18   34O :  0.18  193O :  0.18  244O :  0.18  157O :  0.17  444H :  0.16  178O :  0.16  460O :  0.16  220O :  0.16  169O :  0.16  217O :  0.15  121O :  0.14
  319O :  0.14  335H :  0.14   30H :  0.14  278H :  0.14  259O :  0.14   91O :  0.13  423H :  0.13  429H :  0.13  316O :  0.13  401H :  0.12  396H :  0.12  349O :  0.12
  106O :  0.12  307O :  0.12  245H :  0.12  190O :  0.12  104H :  0.11  134H :  0.11  199O :  0.11   90H :  0.10  514O :  0.10   78H :  0.10  236H :  0.10  436O :  0.10
  405H :  0.09  205O :  0.09  466O :  0.09  117H :  0.09  315H :  0.09  404H :  0.09  432H :  0.09  384H :  0.09  280O :  0.08   15H :  0.08    5H :  0.08   80H :  0.08
   18H :  0.08  136O :  0.08  248H :  0.08   94O :  0.08  352O :  0.08  408H :  0.08  380H :  0.08   61O :  0.08  176H :  0.08  174H :  0.08  366H :  0.08  101H :  0.08
  513H :  0.07  381H :  0.07   38H :  0.07
   19 LP   *******   0.01  -3.78657   6.79373   2.73280  325O :  2.82  100O :  2.72  235O :  2.59  379O :  2.29  427O :  2.22  394O :  2.17   70O :  2.05   10O :  1.97   37O :  1.79   46O :  1.63    7O :  1.63  292O :  1.55
  142O :  1.54  148O :  1.53  313O :  1.48  463O :  1.47  508O :  1.40  154O :  1.35  262O :  1.34  517O :  1.33  448O :  1.33  421O :  1.26  160O :  1.17  334O :  1.14
  511O :  1.14  133O :  1.13  247O :  1.10  424O :  1.08  355O :  1.08  214O :  1.07   25O :  1.02  166O :  1.02    1O :  0.92   82O :  0.91  403O :  0.90  127O :  0.90
  493O :  0.88   97O :  0.86  115O :  0.86  382O :  0.86   22O :  0.85  496O :  0.85   73O :  0.83  442O :  0.83  490O :  0.83  238O :  0.82  271O :  0.82  283O :  0.78
  367O :  0.78  175O :  0.77  226O :  0.72  181O :  0.70  364O :  0.69  520O :  0.68  286O :  0.67   79O :  0.66  502O :  0.66  397O :  0.65  418O :  0.64   88O :  0.63
    4O :  0.61   19O :  0.59  529O :  0.59   64O :  0.55  340O :  0.54  229O :  0.54  481O :  0.53  445O :  0.52  370O :  0.51  430O :  0.50  337O :  0.50   31O :  0.50
  331O :  0.49   55O :  0.49  409O :  0.48  163O :  0.48  478O :  0.48  301O :  0.46  130O :  0.46  415O :  0.45  412O :  0.45  433O :  0.45   13O :  0.44  469O :  0.44
   49O :  0.44  361O :  0.44  298O :  0.43  526O :  0.43  223O :  0.42  328O :  0.41  277O :  0.39  439O :  0.38  388O :  0.38  208O :  0.37  151O :  0.37  232O :  0.36
  406O :  0.36  295O :  0.35  184O :  0.33  322O :  0.33   28O :  0.32  391O :  0.32  250O :  0.32  241O :  0.32  505O :  0.32  454O :  0.32   75H :  0.32  112O :  0.31
  145O :  0.31   16O :  0.31  484O :  0.30   40O :  0.30  400O :  0.30  304O :  0.29  499O :  0.29  211O :  0.29   76O :  0.29   58O :  0.28   48H :  0.28  265O :  0.28
  523O :  0.28  256O :  0.27  109O :  0.26  172O :  0.26  202O :  0.25  356H :  0.25  457O :  0.25  253O :  0.25  196O :  0.24  385O :  0.23  343O :  0.22  310O :  0.22
  294H :  0.21   27H :  0.21   85O :  0.21  103O :  0.21  268O :  0.21  187O :  0.20    9H :  0.20  118O :  0.20  475O :  0.20  139O :  0.20  472O :  0.19   43O :  0.19
  487O :  0.18   34O :  0.18  193O :  0.18  244O :  0.17  157O :  0.17  444H :  0.16  178O :  0.16  460O :  0.16  220O :  0.16  169O :  0.15  217O :  0.15  121O :  0.14
  319O :  0.14  335H :  0.14   30H :  0.14  278H :  0.14  259O :  0.13   91O :  0.13  423H :  0.13  429H :  0.13  316O :  0.12  401H :  0.12  396H :  0.12  349O :  0.12
  106O :  0.12  190O :  0.12  307O :  0.12  245H :  0.12  104H :  0.11  134H :  0.11  199O :  0.11   90H :  0.10  514O :  0.10   78H :  0.10  236H :  0.10  436O :  0.09
  405H :  0.09  205O :  0.09  466O :  0.09  117H :  0.09  315H :  0.09  404H :  0.09  432H :  0.09  204H :  0.08  384H :  0.08  280O :  0.08   15H :  0.08    5H :  0.08
   80H :  0.08   18H :  0.08  136O :  0.08  248H :  0.08   94O :  0.08  352O :  0.08  408H :  0.08  380H :  0.08   61O :  0.08  176H :  0.08  174H :  0.08  101H :  0.07
   38H :  0.07  366H :  0.07  513H :  0.07  381H :  0.07
   20 LP   *******   0.01   2.37276   5.87513  -7.38074  133O :  2.70  100O :  2.68  235O :  2.56  379O :  2.21  427O :  2.19  394O :  2.14   70O :  2.03   10O :  1.94   37O :  1.77   46O :  1.61    7O :  1.61  292O :  1.53
  142O :  1.52  148O :  1.51  313O :  1.46  463O :  1.45  508O :  1.38  154O :  1.33  262O :  1.32  517O :  1.31  448O :  1.30  421O :  1.24  160O :  1.18  334O :  1.12
  511O :  1.12  325O :  1.12  247O :  1.08  424O :  1.07  355O :  1.06  214O :  1.05   25O :  1.01  166O :  1.01    1O :  0.90   82O :  0.90  403O :  0.89  127O :  0.89
  493O :  0.87   97O :  0.85  115O :  0.85  382O :  0.85   22O :  0.84  496O :  0.84   73O :  0.82  442O :  0.82  238O :  0.81  271O :  0.81  490O :  0.80  283O :  0.77
  367O :  0.77  175O :  0.76  226O :  0.71  181O :  0.69  364O :  0.68  520O :  0.67  286O :  0.66   79O :  0.66  502O :  0.65  397O :  0.64  418O :  0.64   88O :  0.62
    4O :  0.60   19O :  0.58  529O :  0.58   64O :  0.54  340O :  0.53  229O :  0.53  481O :  0.53  445O :  0.52  370O :  0.50  430O :  0.49  337O :  0.49   31O :  0.49
  331O :  0.49   55O :  0.48  409O :  0.48  163O :  0.48  478O :  0.48  301O :  0.45  130O :  0.45  415O :  0.45  412O :  0.45  433O :  0.44   13O :  0.44  469O :  0.44
   49O :  0.43  361O :  0.43  298O :  0.43  526O :  0.43  223O :  0.41  328O :  0.41  277O :  0.38  439O :  0.38  388O :  0.37  208O :  0.36  151O :  0.36  232O :  0.36
  406O :  0.36  295O :  0.35  184O :  0.33  322O :  0.32   28O :  0.32  391O :  0.32  250O :  0.31  454O :  0.31  505O :  0.31  241O :  0.31   75H :  0.31  112O :  0.31
  145O :  0.31   16O :  0.30   40O :  0.30  484O :  0.30  400O :  0.30  304O :  0.29  499O :  0.29  211O :  0.29   76O :  0.28   48H :  0.28   58O :  0.28  265O :  0.28
  523O :  0.27  256O :  0.27  109O :  0.26  172O :  0.25  202O :  0.25  356H :  0.25  457O :  0.25  253O :  0.24  196O :  0.24  385O :  0.23  343O :  0.22  310O :  0.22
  187O :  0.21  294H :  0.21   27H :  0.21   85O :  0.20  103O :  0.20  268O :  0.20    9H :  0.20  475O :  0.20  118O :  0.20  139O :  0.19  472O :  0.19   43O :  0.19
  487O :  0.18   34O :  0.18  193O :  0.17  244O :  0.17  157O :  0.17  444H :  0.16  178O :  0.16  220O :  0.16  460O :  0.15  169O :  0.15  217O :  0.14  121O :  0.14
  319O :  0.14  335H :  0.14   30H :  0.14  278H :  0.14  259O :  0.13   91O :  0.13  423H :  0.13  429H :  0.12  316O :  0.12  401H :  0.12  396H :  0.12  106O :  0.12
  245H :  0.11  307O :  0.11  190O :  0.11  349O :  0.11  104H :  0.11  199O :  0.10   90H :  0.10  514O :  0.10   78H :  0.10  236H :  0.10  436O :  0.09  405H :  0.09
  205O :  0.09  174H :  0.09  117H :  0.09  404H :  0.09  466O :  0.09  315H :  0.09  432H :  0.08  384H :  0.08  280O :  0.08   15H :  0.08    5H :  0.08   80H :  0.08
   18H :  0.08  136O :  0.08  248H :  0.08   94O :  0.08  352O :  0.08  408H :  0.08   61O :  0.07  176H :  0.07  101H :  0.07  366H :  0.07  513H :  0.07  381H :  0.07
  134H :  0.07
   21 LP   *******   0.01  11.56290  11.03591  -1.10083  424O :  3.01  100O :  2.46  235O :  2.35  379O :  2.07  427O :  2.01  394O :  1.96   70O :  1.86   10O :  1.78   37O :  1.62    7O :  1.48   46O :  1.48  292O :  1.40
[...]
   145   8 o    1.861 --   147 h    0.918   146 h    0.796
   146   1 h    0.875 --   145 o    0.796
   147   1 h    0.922 --   145 o    0.918
   148   8 o    1.846 --   150 h    0.899   149 h    0.825
   149   1 h    0.877 --   148 o    0.825
   150   1 h    0.909 --   148 o    0.899
   151   8 o    1.888 --   152 h    0.839   153 h    0.784
   152   1 h    0.894 --   151 o    0.839
   153   1 h    0.872 --   151 o    0.784
   154   8 o    1.838 --   156 h    0.891   155 h    0.799
   155   1 h    0.877 --   154 o    0.799
   156   1 h    0.906 --   154 o    0.891
   157   8 o    1.859 --   158 h    0.819   159 h    0.798
   158   1 h    0.889 --   157 o    0.819
   159   1 h    0.875 --   157 o    0.798
   160   8 o    1.838 --   161 h    0.833   162 h    0.812
   161   1 h    0.892 --   160 o    0.833
   162   1 h    0.874 --   160 o    0.812
   163   8 o    1.807 --   164 h    0.878   165 h    0.809
   164   1 h    0.904 --   163 o    0.878
   165   1 h    0.887 --   163 o    0.809
   166   8 o    1.873 --   167 h    0.826   168 h    0.817
   167   1 h    0.882 --   166 o    0.826
   168   1 h    0.883 --   166 o    0.817
   169   8 o    1.838 --   171 h    0.879   170 h    0.836
   170   1 h    0.893 --   169 o    0.836
   171   1 h    0.906 --   169 o    0.879
   172   8 o    1.860 --   174 h    0.803   173 h    0.794
   173   1 h    0.877 --   172 o    0.794
   174   1 h    0.872 --   172 o    0.803
   175   8 o    1.841 --   176 h    0.867   177 h    0.808
   176   1 h    0.900 --   175 o    0.867
   177   1 h    0.885 --   175 o    0.808
   178   8 o    1.870 --   179 h    0.879   180 h    0.796
   179   1 h    0.903 --   178 o    0.879
   180   1 h    0.868 --   178 o    0.796
   181   8 o    1.869 --   182 h    0.813   183 h    0.802
   182   1 h    0.885 --   181 o    0.813
   183   1 h    0.878 --   181 o    0.802
   184   8 o    1.843 --   185 h    0.838   186 h    0.827
   185   1 h    0.888 --   184 o    0.838
   186   1 h    0.892 --   184 o    0.827
   187   8 o    1.861 --   189 h    0.847   188 h    0.818
   188   1 h    0.888 --   187 o    0.818
   189   1 h    0.884 --   187 o    0.847
   190   8 o    1.860 --   191 h    0.829   192 h    0.814
   191   1 h    0.885 --   190 o    0.829
   192   1 h    0.884 --   190 o    0.814
   193   8 o    1.862 --   194 h    0.843   195 h    0.811
   194   1 h    0.882 --   193 o    0.843
   195   1 h    0.884 --   193 o    0.811
   196   8 o    1.818 --   197 h    0.875   198 h    0.829
   197   1 h    0.904 --   196 o    0.875
   198   1 h    0.890 --   196 o    0.829
   199   8 o    1.861 --   201 h    0.854   200 h    0.839
   200   1 h    0.882 --   199 o    0.839
   201   1 h    0.894 --   199 o    0.854
   202   8 o    1.867 --   203 h    0.876   204 h    0.813
   203   1 h    0.904 --   202 o    0.876
   204   1 h    0.880 --   202 o    0.813
   205   8 o    1.828 --   207 h    0.853   206 h    0.819
   206   1 h    0.887 --   205 o    0.819
   207   1 h    0.900 --   205 o    0.853
   208   8 o    1.872 --   210 h    0.827   209 h    0.796
   209   1 h    0.869 --   208 o    0.796
   210   1 h    0.890 --   208 o    0.827
   211   8 o    1.847 --   213 h    0.820   212 h    0.802
   212   1 h    0.884 --   211 o    0.802
   213   1 h    0.880 --   211 o    0.820
   214   8 o    1.880 --   215 h    0.810   216 h    0.797
   215   1 h    0.879 --   214 o    0.810
   216   1 h    0.873 --   214 o    0.797
   217   8 o    1.865 --   218 h    0.812   219 h    0.752
   218   1 h    0.887 --   217 o    0.812
   219   1 h    0.865 --   217 o    0.752    64 o    0.102
   220   8 o    1.833 --   222 h    0.883   221 h    0.808
   221   1 h    0.878 --   220 o    0.808
   222   1 h    0.905 --   220 o    0.883
   223   8 o    1.837 --   225 h    0.833   224 h    0.808
   224   1 h    0.878 --   223 o    0.808
   225   1 h    0.890 --   223 o    0.833
   226   8 o    1.861 --   228 h    0.825   227 h    0.821
   227   1 h    0.881 --   226 o    0.821
   228   1 h    0.886 --   226 o    0.825
   229   8 o    1.878 --   231 h    0.865   230 h    0.808
   230   1 h    0.876 --   229 o    0.808
   231   1 h    0.901 --   229 o    0.865
   232   8 o    1.875 --   234 h    0.891   233 h    0.872
   233   1 h    0.894 --   232 o    0.872
   234   1 h    0.902 --   232 o    0.891
   235   8 o    1.856 --   236 h    0.837   237 h    0.809
   236   1 h    0.895 --   235 o    0.837
   237   1 h    0.872 --   235 o    0.809
   238   8 o    1.872 --   240 h    0.845   239 h    0.815
   239   1 h    0.874 --   238 o    0.815
   240   1 h    0.884 --   238 o    0.845
   241   8 o    1.837 --   243 h    0.836   242 h    0.830
   242   1 h    0.886 --   241 o    0.830
   243   1 h    0.896 --   241 o    0.836
   244   8 o    1.854 --   245 h    0.821   246 h    0.802
   245   1 h    0.889 --   244 o    0.821
   246   1 h    0.877 --   244 o    0.802
   247   8 o    1.856 --   248 h    0.827   249 h    0.789
   248   1 h    0.882 --   247 o    0.827
   249   1 h    0.873 --   247 o    0.789
   250   8 o    1.870 --   252 h    0.838   251 h    0.817
   251   1 h    0.890 --   250 o    0.817
   252   1 h    0.880 --   250 o    0.838
   253   8 o    1.889 --   254 h    0.890   255 h    0.809
   254   1 h    0.901 --   253 o    0.890
   255   1 h    0.886 --   253 o    0.809
   256   8 o    1.847 --   257 h    0.922   258 h    0.786
   257   1 h    0.927 --   256 o    0.922
   258   1 h    0.876 --   256 o    0.786
   259   8 o    1.860 --   260 h    0.830   261 h    0.824
   260   1 h    0.891 --   259 o    0.830
   261   1 h    0.891 --   259 o    0.824
   262   8 o    1.849 --   264 h    0.850   263 h    0.841
   263   1 h    0.893 --   262 o    0.841
   264   1 h    0.895 --   262 o    0.850
   265   8 o    1.813 --   266 h    0.863   267 h    0.855
   266   1 h    0.898 --   265 o    0.863
   267   1 h    0.897 --   265 o    0.855
   268   8 o    1.885 --   269 h    0.847   270 h    0.810
   269   1 h    0.897 --   268 o    0.847
   270   1 h    0.879 --   268 o    0.810
   271   8 o    1.879 --   273 h    0.837   272 h    0.812
   272   1 h    0.887 --   271 o    0.812
   273   1 h    0.891 --   271 o    0.837
   274   8 o    1.856 --   275 h    0.833   276 h    0.792
   275   1 h    0.892 --   274 o    0.833
   276   1 h    0.879 --   274 o    0.792
   277   8 o    1.849 --   279 h    0.884   278 h    0.866
   278   1 h    0.895 --   277 o    0.866
   279   1 h    0.897 --   277 o    0.884
   280   8 o    1.841 --   281 h    0.852   282 h    0.834
   281   1 h    0.893 --   280 o    0.852
   282   1 h    0.892 --   280 o    0.834
   283   8 o    1.849 --   285 h    0.874   284 h    0.839
   284   1 h    0.886 --   283 o    0.839
   285   1 h    0.904 --   283 o    0.874
   286   8 o    1.835 --   288 h    0.895   287 h    0.815
   287   1 h    0.884 --   286 o    0.815
   288   1 h    0.910 --   286 o    0.895
   289   8 o    1.851 --   291 h    0.909   290 h    0.830
   290   1 h    0.882 --   289 o    0.830
   291   1 h    0.918 --   289 o    0.909
   292   8 o    1.795 --   294 h    0.852   293 h    0.841
   293   1 h    0.897 --   292 o    0.841
   294   1 h    0.898 --   292 o    0.852
   295   8 o    1.871 --   297 h    0.887   296 h    0.801
   296   1 h    0.868 --   295 o    0.801
   297   1 h    0.905 --   295 o    0.887
   298   8 o    1.848 --   300 h    0.896   299 h    0.789
   299   1 h    0.877 --   298 o    0.789
   300   1 h    0.911 --   298 o    0.896
   301   8 o    1.874 --   303 h    0.874   302 h    0.838
   302   1 h    0.889 --   301 o    0.838
   303   1 h    0.895 --   301 o    0.874
   304   8 o    1.799 --   306 h    0.864   305 h    0.840
   305   1 h    0.892 --   304 o    0.840
   306   1 h    0.903 --   304 o    0.864
   307   8 o    1.855 --   308 h    0.893   309 h    0.829
   308   1 h    0.907 --   307 o    0.893
   309   1 h    0.882 --   307 o    0.829
   310   8 o    1.881 --   312 h    0.826   311 h    0.793
   311   1 h    0.875 --   310 o    0.793
   312   1 h    0.881 --   310 o    0.826
   313   8 o    1.811 --   315 h    0.903   314 h    0.842
   314   1 h    0.883 --   313 o    0.842
   315   1 h    0.917 --   313 o    0.903
   316   8 o    1.853 --   317 h    0.915   318 h    0.813
   317   1 h    0.922 --   316 o    0.915
   318   1 h    0.876 --   316 o    0.813
   319   8 o    1.884 --   321 h    0.866   320 h    0.796
   320   1 h    0.865 --   319 o    0.796
   321   1 h    0.893 --   319 o    0.866
   322   8 o    1.827 --   324 h    0.871   323 h    0.802
   323   1 h    0.885 --   322 o    0.802
   324   1 h    0.897 --   322 o    0.871
   325   8 o    1.867 --   326 h    0.826   327 h    0.797
   326   1 h    0.877 --   325 o    0.826
   327   1 h    0.875 --   325 o    0.797
   328   8 o    1.840 --   330 h    0.866   329 h    0.830
   329   1 h    0.889 --   328 o    0.830
   330   1 h    0.899 --   328 o    0.866
   331   8 o    1.860 --   333 h    0.913   332 h    0.816
   332   1 h    0.879 --   331 o    0.816
   333   1 h    0.917 --   331 o    0.913
   334   8 o    1.865 --   335 h    0.870   336 h    0.854
   335   1 h    0.896 --   334 o    0.870
   336   1 h    0.897 --   334 o    0.854
   337   8 o    1.822 --   339 h    0.839   338 h    0.768
   338   1 h    0.872 --   337 o    0.768
   339   1 h    0.897 --   337 o    0.839
   340   8 o    1.849 --   342 h    0.864   341 h    0.859
   341   1 h    0.887 --   340 o    0.859
   342   1 h    0.897 --   340 o    0.864
   343   8 o    1.864 --   344 h    0.818   345 h    0.815
   344   1 h    0.893 --   343 o    0.818
   345   1 h    0.885 --   343 o    0.815
   346   8 o    1.806 --   347 h    0.873   348 h    0.834
   347   1 h    0.902 --   346 o    0.873
   348   1 h    0.890 --   346 o    0.834
   349   8 o    1.881 --   351 h    0.829   350 h    0.826
   350   1 h    0.891 --   349 o    0.826
   351   1 h    0.875 --   349 o    0.829
   352   8 o    1.836 --   354 h    0.902   353 h    0.808
   353   1 h    0.886 --   352 o    0.808
   354   1 h    0.914 --   352 o    0.902
   355   8 o    1.855 --   356 h    0.857   357 h    0.811
   356   1 h    0.902 --   355 o    0.857
   357   1 h    0.883 --   355 o    0.811
   358   8 o    1.844 --   359 h    0.839   360 h    0.831
   359   1 h    0.895 --   358 o    0.839
   360   1 h    0.881 --   358 o    0.831
   361   8 o    1.876 --   362 h    0.861   363 h    0.796
   362   1 h    0.900 --   361 o    0.861
   363   1 h    0.878 --   361 o    0.796
   364   8 o    1.813 --   365 h    0.873   366 h    0.826
   365   1 h    0.901 --   364 o    0.873
   366   1 h    0.889 --   364 o    0.826
   367   8 o    1.871 --   368 h    0.842   369 h    0.830
   368   1 h    0.892 --   367 o    0.842
   369   1 h    0.884 --   367 o    0.830
   370   8 o    1.839 --   371 h    0.904   372 h    0.815
   371   1 h    0.914 --   370 o    0.904
   372   1 h    0.879 --   370 o    0.815
   373   8 o    1.857 --   375 h    0.876   374 h    0.833
   374   1 h    0.886 --   373 o    0.833
   375   1 h    0.904 --   373 o    0.876
   376   8 o    1.854 --   377 h    0.915   378 h    0.798
   377   1 h    0.922 --   376 o    0.915
   378   1 h    0.873 --   376 o    0.798
   379   8 o    1.828 --   381 h    0.863   380 h    0.804
   380   1 h    0.877 --   379 o    0.804
   381   1 h    0.906 --   379 o    0.863
   382   8 o    1.866 --   383 h    0.907   384 h    0.810
   383   1 h    0.915 --   382 o    0.907
   384   1 h    0.877 --   382 o    0.810
   385   8 o    1.834 --   386 h    0.844   387 h    0.821
   386   1 h    0.898 --   385 o    0.844
   387   1 h    0.882 --   385 o    0.821
   388   8 o    1.855 --   390 h    0.916   389 h    0.766
   389   1 h    0.872 --   388 o    0.766   451 o    0.101
   390   1 h    0.921 --   388 o    0.916
   391   8 o    1.847 --   393 h    0.858   392 h    0.850
   392   1 h    0.894 --   391 o    0.850
   393   1 h    0.896 --   391 o    0.858
   394   8 o    1.815 --   395 h    0.837   396 h    0.815
   395   1 h    0.891 --   394 o    0.837
   396   1 h    0.876 --   394 o    0.815
   397   8 o    1.871 --   398 h    0.891   399 h    0.779
   398   1 h    0.905 --   397 o    0.891
   399   1 h    0.868 --   397 o    0.779
   400   8 o    1.863 --   401 h    0.864   402 h    0.815
   401   1 h    0.897 --   400 o    0.864
   402   1 h    0.878 --   400 o    0.815
   403   8 o    1.849 --   404 h    0.850   405 h    0.825
   404   1 h    0.895 --   403 o    0.850
   405   1 h    0.886 --   403 o    0.825
   406   8 o    1.864 --   407 h    0.866   408 h    0.813
   407   1 h    0.903 --   406 o    0.866
   408   1 h    0.877 --   406 o    0.813
   409   8 o    1.842 --   411 h    0.880   410 h    0.841
   410   1 h    0.885 --   409 o    0.841
   411   1 h    0.901 --   409 o    0.880
   412   8 o    1.881 --   414 h    0.793   413 h    0.787
   413   1 h    0.878 --   412 o    0.787
   414   1 h    0.875 --   412 o    0.793
   415   8 o    1.859 --   417 h    0.884   416 h    0.807
   416   1 h    0.878 --   415 o    0.807
   417   1 h    0.905 --   415 o    0.884
   418   8 o    1.880 --   419 h    0.914   420 h    0.806
   419   1 h    0.918 --   418 o    0.914
   420   1 h    0.876 --   418 o    0.806
   421   8 o    1.827 --   423 h    0.875   422 h    0.863
   422   1 h    0.897 --   421 o    0.863
   423   1 h    0.901 --   421 o    0.875
   424   8 o    1.865 --   425 h    0.884   426 h    0.855
   425   1 h    0.900 --   424 o    0.884
   426   1 h    0.889 --   424 o    0.855
   427   8 o    1.869 --   428 h    0.830   429 h    0.799
   428   1 h    0.887 --   427 o    0.830
   429   1 h    0.878 --   427 o    0.799
   430   8 o    1.833 --   432 h    0.881   431 h    0.800
   431   1 h    0.878 --   430 o    0.800
   432   1 h    0.906 --   430 o    0.881
   433   8 o    1.856 --   434 h    0.912   435 h    0.825
   434   1 h    0.917 --   433 o    0.912
   435   1 h    0.879 --   433 o    0.825
   436   8 o    1.855 --   437 h    0.913   438 h    0.806
   437   1 h    0.922 --   436 o    0.913
   438   1 h    0.874 --   436 o    0.806
   439   8 o    1.850 --   440 h    0.884   441 h    0.869
   440   1 h    0.904 --   439 o    0.884
   441   1 h    0.892 --   439 o    0.869
   442   8 o    1.871 --   444 h    0.919   443 h    0.808
   443   1 h    0.876 --   442 o    0.808
   444   1 h    0.924 --   442 o    0.919
   445   8 o    1.854 --   446 h    0.853   447 h    0.850
   446   1 h    0.896 --   445 o    0.853
   447   1 h    0.887 --   445 o    0.850
   448   8 o    1.812 --   449 h    0.870   450 h    0.830
   449   1 h    0.901 --   448 o    0.870
   450   1 h    0.886 --   448 o    0.830
   451   8 o    1.885 --   453 h    0.828   452 h    0.776   389 h    0.101
   452   1 h    0.870 --   451 o    0.776
   453   1 h    0.881 --   451 o    0.828
   454   8 o    1.806 --   456 h    0.859   455 h    0.831
   455   1 h    0.882 --   454 o    0.831
   456   1 h    0.896 --   454 o    0.859
   457   8 o    1.850 --   459 h    0.844   458 h    0.831
   458   1 h    0.893 --   457 o    0.831
   459   1 h    0.891 --   457 o    0.844
   460   8 o    1.865 --   461 h    0.875   462 h    0.811
   461   1 h    0.898 --   460 o    0.875
   462   1 h    0.884 --   460 o    0.811
   463   8 o    1.845 --   465 h    0.847   464 h    0.842
   464   1 h    0.891 --   463 o    0.842
   465   1 h    0.899 --   463 o    0.847
   466   8 o    1.866 --   467 h    0.841   468 h    0.798
   467   1 h    0.889 --   466 o    0.841
   468   1 h    0.884 --   466 o    0.798
   469   8 o    1.874 --   470 h    0.862   471 h    0.839
   470   1 h    0.892 --   469 o    0.862
   471   1 h    0.890 --   469 o    0.839
   472   8 o    1.837 --   473 h    0.914   474 h    0.826
   473   1 h    0.920 --   472 o    0.914
   474   1 h    0.887 --   472 o    0.826
   475   8 o    1.854 --   477 h    0.867   476 h    0.795
   476   1 h    0.871 --   475 o    0.795
   477   1 h    0.896 --   475 o    0.867
   478   8 o    1.859 --   480 h    0.846   479 h    0.829
   479   1 h    0.886 --   478 o    0.829
   480   1 h    0.888 --   478 o    0.846
   481   8 o    1.846 --   482 h    0.883   483 h    0.832
   482   1 h    0.905 --   481 o    0.883
   483   1 h    0.890 --   481 o    0.832
   484   8 o    1.848 --   486 h    0.875   485 h    0.841
   485   1 h    0.895 --   484 o    0.841
   486   1 h    0.896 --   484 o    0.875
   487   8 o    1.843 --   489 h    0.883   488 h    0.862
   488   1 h    0.895 --   487 o    0.862
   489   1 h    0.903 --   487 o    0.883
   490   8 o    1.838 --   492 h    0.830   491 h    0.823
   491   1 h    0.887 --   490 o    0.823
   492   1 h    0.886 --   490 o    0.830
   493   8 o    1.849 --   494 h    0.876   495 h    0.847
   494   1 h    0.899 --   493 o    0.876
   495   1 h    0.893 --   493 o    0.847
   496   8 o    1.849 --   497 h    0.845   498 h    0.827
   497   1 h    0.893 --   496 o    0.845
   498   1 h    0.881 --   496 o    0.827
   499   8 o    1.869 --   501 h    0.833   500 h    0.819
   500   1 h    0.881 --   499 o    0.819
   501   1 h    0.892 --   499 o    0.833
   502   8 o    1.870 --   504 h    0.835   503 h    0.834
   503   1 h    0.892 --   502 o    0.834
   504   1 h    0.884 --   502 o    0.835
   505   8 o    1.839 --   507 h    0.811   506 h    0.804
   506   1 h    0.875 --   505 o    0.804
   507   1 h    0.879 --   505 o    0.811
   508   8 o    1.803 --   509 h    0.886   510 h    0.840
   509   1 h    0.902 --   508 o    0.886
   510   1 h    0.893 --   508 o    0.840
   511   8 o    1.882 --   513 h    0.854   512 h    0.795
   512   1 h    0.879 --   511 o    0.795
   513   1 h    0.893 --   511 o    0.854
   514   8 o    1.852 --   516 h    0.914   515 h    0.834
   515   1 h    0.888 --   514 o    0.834
   516   1 h    0.917 --   514 o    0.914
   517   8 o    1.845 --   518 h    0.890   519 h    0.811
   518   1 h    0.904 --   517 o    0.890
   519   1 h    0.884 --   517 o    0.811
   520   8 o    1.828 --   522 h    0.853   521 h    0.841
   521   1 h    0.881 --   520 o    0.841
   522   1 h    0.900 --   520 o    0.853
   523   8 o    1.848 --   525 h    0.876   524 h    0.808
   524   1 h    0.875 --   523 o    0.808
   525   1 h    0.902 --   523 o    0.876
   526   8 o    1.799 --   528 h    0.846   527 h    0.820
   527   1 h    0.880 --   526 o    0.820
   528   1 h    0.892 --   526 o    0.846
   529   8 o    1.820 --   530 h    0.862   531 h    0.854
   530   1 h    0.893 --   529 o    0.862
   531   1 h    0.890 --   529 o    0.854
 ---------------------------------------------------------------------------

Topologies differ in total number of bonds
Writing topology from bond orders to xtbtopo.mol

molecular dipole:
                 x           y           z       tot (Debye)
 q only:       -0.495      -0.543       0.310
   full:       -1.075      -1.233       0.251       4.205
molecular quadrupole (traceless):
                xx          xy          yy          xz          yz          zz
 q only:      138.820      -3.057     -48.792      -3.507       5.369     -90.028
  q+dip:      180.613     -12.532     -70.101     -20.073      11.262    -110.512
   full:      182.490     -12.800     -71.928     -21.744      12.328    -110.561


           -------------------------------------------------
          | TOTAL ENERGY             -901.187460357508 Eh   |
          | GRADIENT NORM               0.098097701115 Eh/α |
          | HOMO-LUMO GAP               6.387266774442 eV   |
           -------------------------------------------------

------------------------------------------------------------------------
 * finished run on 2022/11/17 at 06:55:18.499     
------------------------------------------------------------------------
 total:
 * wall-time:     0 d,  0 h,  0 min, 18.760 sec
 *  cpu-time:     0 d,  0 h,  0 min, 25.243 sec
 * ratio c/w:     1.346 speedup
 SCF:
 * wall-time:     0 d,  0 h,  0 min, 18.178 sec
 *  cpu-time:     0 d,  0 h,  0 min, 24.183 sec
 * ratio c/w:     1.330 speedup

