      -----------------------------------------------------------      
     |                   =====================                   |     
     |                           x T B                           |     
     |                   =====================                   |     
     |                         S. Grimme                         |     
     |          Mulliken Center for Theoretical Chemistry        |     
     |                    University of Bonn                     |     
      -----------------------------------------------------------      

   * xtb version 6.5.1 (579679a) compiled by 'ehlert@majestix' on 2022-07-11

   xtb is free software: you can redistribute it and/or modify it under
   the terms of the GNU Lesser General Public License as published by
   the Free Software Foundation, either version 3 of the License, or
   (at your option) any later version.
   
   xtb is distributed in the hope that it will be useful,
   but WITHOUT ANY WARRANTY; without even the implied warranty of
   MERCHANTABILITY or FITNESS FOR A PARTICULAR PURPOSE.  See the
   GNU Lesser General Public License for more details.
   
   Cite this work as:
   * C. Bannwarth, E. Caldeweyher, S. Ehlert, A. Hansen, P. Pracht,
     J. Seibert, S. Spicher, S. Grimme, WIREs Comput. Mol. Sci., 2020, 11,
     e01493. DOI: 10.1002/wcms.1493
   
   for GFN2-xTB:
   * C. Bannwarth, S. Ehlert and S. Grimme., J. Chem. Theory Comput., 2019,
     15, 1652-1671. DOI: 10.1021/acs.jctc.8b01176
   for GFN1-xTB:
   * S. Grimme, C. Bannwarth, P. Shushkov, J. Chem. Theory Comput., 2017,
     13, 1989-2009. DOI: 10.1021/acs.jctc.7b00118
   for GFN0-xTB:
   * P. Pracht, E. Caldeweyher, S. Ehlert, S. Grimme, ChemRxiv, 2019, preprint.
     DOI: 10.26434/chemrxiv.8326202.v1
   for GFN-FF:
   * S. Spicher and S. Grimme, Angew. Chem. Int. Ed., 2020, 59, 15665-15673.
     DOI: 10.1002/anie.202004239
   
   for ALPB and GBSA implicit solvation:
   * S. Ehlert, M. Stahn, S. Spicher, S. Grimme, J. Chem. Theory Comput.,
     2021, 17, 4250-4261. DOI: 10.1021/acs.jctc.1c00471
   
   for DFT-D4:
   * E. Caldeweyher, C. Bannwarth and S. Grimme, J. Chem. Phys., 2017,
     147, 034112. DOI: 10.1063/1.4993215
   * E. Caldeweyher, S. Ehlert, A. Hansen, H. Neugebauer, S. Spicher,
     C. Bannwarth and S. Grimme, J. Chem. Phys., 2019, 150, 154122.
     DOI: 10.1063/1.5090222
   * E. Caldeweyher, J.-M. Mewes, S. Ehlert and S. Grimme, Phys. Chem. Chem. Phys.
     2020, 22, 8499-8512. DOI: 10.1039/D0CP00502A
   
   for sTDA-xTB:
   * S. Grimme and C. Bannwarth, J. Chem. Phys., 2016, 145, 054103.
     DOI: 10.1063/1.4959605
   
   in the mass-spec context:
   * V. Asgeirsson, C. Bauer and S. Grimme, Chem. Sci., 2017, 8, 4879.
     DOI: 10.1039/c7sc00601b
   * J. Koopman and S. Grimme, ACS Omega 2019, 4, 12, 15120-15133.
     DOI: 10.1021/acsomega.9b02011
   
   for metadynamics refer to:
   * S. Grimme, J. Chem. Theory Comput., 2019, 155, 2847-2862
     DOI: 10.1021/acs.jctc.9b00143
   
   for SPH calculations refer to:
   * S. Spicher and S. Grimme, J. Chem. Theory Comput., 2021, 17, 1701-1714
     DOI: 10.1021/acs.jctc.0c01306
   
   with help from (in alphabetical order)
   P. Atkinson, C. Bannwarth, F. Bohle, G. Brandenburg, E. Caldeweyher
   M. Checinski, S. Dohm, S. Ehlert, S. Ehrlich, I. Gerasimov, C. Hölzer
   A. Katbashev, J. Koopman, C. Lavigne, S. Lehtola, F. März, M. Müller,
   F. Musil, H. Neugebauer, J. Pisarek, C. Plett, P. Pracht, F. Pultar,
   J. Seibert, P. Shushkov, S. Spicher, M. Stahn, M. Steiner, T. Strunk,
   J. Stückrath, T. Rose, and J. Unsleber
   
 * started run on 2022/11/17 at 06:54:49.177     

           -------------------------------------------------
          |                Calculation Setup                |
           -------------------------------------------------

          program call               : xtb xtbopt.coord --gfn2 --sp --gbsa water
          hostname                   : cn0363
          coordinate file            : xtbopt.coord
          omp threads                :                     2

   ID    Z sym.   atoms
    1    8 o      1, 4, 7, 10, 13, 16, 19, 22, 25, 28, 31, 34, 37, 40, 43,
                  46, 49, 52, 55, 58, 61, 64, 67, 70, 73, 76, 79, 82, 85, 88,
                  91, 94, 97, 100, 103, 106, 109, 112, 115, 118, 121, 124,
                  127, 130, 133, 136, 139, 142, 145, 148, 151, 154, 157, 160,
                  163, 166, 169, 172, 175, 178, 181, 184, 187, 190, 193, 196,
                  199, 202, 205, 208, 211, 214, 217, 220, 223, 226, 229, 232,
                  235, 238, 241, 244, 247, 250, 253, 256, 259, 262, 265, 268,
                  271, 274, 277, 280, 283, 286, 289, 292, 295, 298, 301, 304,
                  307, 310, 313, 316, 319, 322, 325, 328, 331, 334, 337, 340,
                  343, 346, 349, 352, 355, 358, 361, 364, 367, 370, 373, 376,
                  379, 382, 385, 388, 391, 394, 397, 400, 403, 406, 409, 412,
                  415, 418, 421, 424, 427, 430, 433, 436, 439, 442, 445, 448,
                  451, 454, 457, 460, 463, 466, 469, 472, 475, 478, 481, 484,
                  487, 490, 493, 496, 499, 502, 505, 508, 511, 514, 517, 520,
                  523, 526, 529
    2    1 h      2, 3, 5, 6, 8, 9, 11, 12, 14, 15, 17, 18, 20, 21, 23, 24,
                  26, 27, 29, 30, 32, 33, 35, 36, 38, 39, 41, 42, 44, 45, 47,
                  48, 50, 51, 53, 54, 56, 57, 59, 60, 62, 63, 65, 66, 68, 69,
                  71, 72, 74, 75, 77, 78, 80, 81, 83, 84, 86, 87, 89, 90, 92,
                  93, 95, 96, 98, 99, 101, 102, 104, 105, 107, 108, 110, 111,
                  113, 114, 116, 117, 119, 120, 122, 123, 125, 126, 128, 129,
                  131, 132, 134, 135, 137, 138, 140, 141, 143, 144, 146, 147,
                  149, 150, 152, 153, 155, 156, 158, 159, 161, 162, 164, 165,
                  167, 168, 170, 171, 173, 174, 176, 177, 179, 180, 182, 183,
                  185, 186, 188, 189, 191, 192, 194, 195, 197, 198, 200, 201,
                  203, 204, 206, 207, 209, 210, 212, 213, 215, 216, 218, 219,
                  221, 222, 224, 225, 227, 228, 230, 231, 233, 234, 236, 237,
                  239, 240, 242, 243, 245, 246, 248, 249, 251, 252, 254, 255,
                  257, 258, 260, 261, 263, 264, 266, 267, 269, 270, 272, 273,
                  275, 276, 278, 279, 281, 282, 284, 285, 287, 288, 290, 291,
                  293, 294, 296, 297, 299, 300, 302, 303, 305, 306, 308, 309,
                  311, 312, 314, 315, 317, 318, 320, 321, 323, 324, 326, 327,
                  329, 330, 332, 333, 335, 336, 338, 339, 341, 342, 344, 345,
                  347, 348, 350, 351, 353, 354, 356, 357, 359, 360, 362, 363,
                  365, 366, 368, 369, 371, 372, 374, 375, 377, 378, 380, 381,
                  383, 384, 386, 387, 389, 390, 392, 393, 395, 396, 398, 399,
                  401, 402, 404, 405, 407, 408, 410, 411, 413, 414, 416, 417,
                  419, 420, 422, 423, 425, 426, 428, 429, 431, 432, 434, 435,
                  437, 438, 440, 441, 443, 444, 446, 447, 449, 450, 452, 453,
                  455, 456, 458, 459, 461, 462, 464, 465, 467, 468, 470, 471,
                  473, 474, 476, 477, 479, 480, 482, 483, 485, 486, 488, 489,
                  491, 492, 494, 495, 497, 498, 500, 501, 503, 504, 506, 507,
                  509, 510, 512, 513, 515, 516, 518, 519, 521, 522, 524, 525,
                  527, 528, 530, 531

molecular fragmentation (1/2 indicates fragments):
111222222222222222222222222222222222222222222222222222222222222222222222
222222222222222222222222222222222222222222222222222222222222222222222222
222222222222222222222222222222222222222222222222222222222222222222222222
222222222222222222222222222222222222222222222222222222222222222222222222
222222222222222222222222222222222222222222222222222222222222222222222222
222222222222222222222222222222222222222222222222222222222222222222222222
222222222222222222222222222222222222222222222222222222222222222222222222
222222222222222222222222222
# atoms in fragment 1/2:     3   528
 fragment masses (1/2) :       18.02     3170.69
CMA distance (Bohr)    :   5.913
constraining FC (au)   :  0.0500

           -------------------------------------------------
          |                 G F N 2 - x T B                 |
           -------------------------------------------------

        Reference                      10.1021/acs.jctc.8b01176
      * Hamiltonian:
        H0-scaling (s, p, d)           1.850000    2.230000    2.230000
        zeta-weighting                 0.500000
      * Dispersion:
        s8                             2.700000
        a1                             0.520000
        a2                             5.000000
        s9                             5.000000
      * Repulsion:
        kExp                           1.500000    1.000000
        rExp                           1.000000
      * Coulomb:
        alpha                          2.000000
        third order                    shell-resolved
        anisotropic                    true
        a3                             3.000000
        a5                             4.000000
        cn-shift                       1.200000
        cn-exp                         4.000000
        max-rad                        5.000000

      * Solvation model:               GBSA
        Solvent                        water
        Parameter file                 internal GFN2-xTB/GBSA
        Dielectric constant                8.0200E+01
        Reference state                gsolv [1 M gas/solution]
        Free energy shift                  1.8574E-03 Eh       1.1656E+00 kcal/mol
        Temperature                        2.9815E+02 K
        Density                            1.0000E+00 kg/L
        Solvent mass                       1.8000E+01 g/mol
        Interaction kernel             Still
        Born radius scaling (c1)           1.5524E+00
        Born radii integrator          GBOBC
        Born offset                        2.4628E-02 a0       4.6540E-02 AA
        H-bond correction              true
        Ion screening                  false
        Surface tension                    1.0000E-05 Eh       1.5569E+01 dyn/cm
        Grid points                               230 per atom

          ...................................................
          :                      SETUP                      :
          :.................................................:
          :  # basis functions                1062          :
          :  # atomic orbitals                1062          :
          :  # shells                          708          :
          :  # electrons                      1416          :
          :  max. iterations                   250          :
          :  Hamiltonian                  GFN2-xTB          :
          :  restarted?                      false          :
          :  GBSA solvation                   true          :
          :  PC potential                    false          :
          :  electronic temp.          300.0000000     K    :
          :  accuracy                    1.0000000          :
          :  -> integral cutoff          0.2500000E+02      :
          :  -> integral neglect         0.1000000E-07      :
          :  -> SCF convergence          0.1000000E-05 Eh   :
          :  -> wf. convergence          0.1000000E-03 e    :
          :  Broyden damping             0.4000000          :
          ...................................................

 iter      E             dE          RMSdq      gap      omega  full diag
   1   -906.7822703 -0.906782E+03  0.408E+00    8.61       0.0  T
   2   -906.8445876 -0.623173E-01  0.242E+00    8.26       1.0  T
   3   -906.8704531 -0.258655E-01  0.230E-01    7.25       1.0  T
   4   -906.8744275 -0.397445E-02  0.498E-02    7.48       1.0  T
   5   -906.8745626 -0.135050E-03  0.314E-02    7.43       1.0  T
   6   -906.8745955 -0.329220E-04  0.338E-03    7.44       1.3  T
   7   -906.8745964 -0.916619E-06  0.845E-04    7.44       5.1  T
   8   -906.8745964 -0.379569E-07  0.459E-04    7.43       9.5  T

   *** convergence criteria satisfied after 8 iterations ***

         #    Occupation            Energy/Eh            Energy/eV
      -------------------------------------------------------------
         1        2.0000           -0.6642063             -18.0740
       ...           ...                  ...                  ...
       702        2.0000           -0.3452837              -9.3956
       703        2.0000           -0.3445515              -9.3757
       704        2.0000           -0.3410671              -9.2809
       705        2.0000           -0.3390683              -9.2265
       706        2.0000           -0.3361756              -9.1478
       707        2.0000           -0.3324454              -9.0463
       708        2.0000           -0.3249277              -8.8417 (HOMO)
       709                         -0.0517129              -1.4072 (LUMO)
       710                         -0.0438126              -1.1922
       711                         -0.0294840              -0.8023
       712                         -0.0255723              -0.6959
       713                         -0.0206597              -0.5622
       ...                                ...                  ...
      1062                          0.4855149              13.2115
      -------------------------------------------------------------
                  HL-Gap            0.2732148 Eh            7.4346 eV
             Fermi-level           -0.1883203 Eh           -5.1245 eV

 SCC (total)                   0 d,  0 h,  0 min,  7.568 sec
 SCC setup                      ...        0 min,  0.111 sec (  1.466%)
 Dispersion                     ...        0 min,  0.065 sec (  0.864%)
 classical contributions        ...        0 min,  0.016 sec (  0.206%)
 integral evaluation            ...        0 min,  0.324 sec (  4.278%)
 iterations                     ...        0 min,  2.227 sec ( 29.434%)
 molecular gradient             ...        0 min,  4.796 sec ( 63.371%)
 printout                       ...        0 min,  0.029 sec (  0.381%)

         :::::::::::::::::::::::::::::::::::::::::::::::::::::
         ::                     SUMMARY                     ::
         :::::::::::::::::::::::::::::::::::::::::::::::::::::
         :: total energy            -901.398943370038 Eh    ::
         :: total w/o Gsasa/hb      -901.203501002412 Eh    ::
         :: gradient norm              0.100515460586 Eh/a0 ::
         :: HOMO-LUMO gap              7.434554056189 eV    ::
         ::.................................................::
         :: SCC energy              -906.874596436073 Eh    ::
         :: -> isotropic ES            5.263662848460 Eh    ::
         :: -> anisotropic ES         -1.122410688671 Eh    ::
         :: -> anisotropic XC         -0.086183175550 Eh    ::
         :: -> dispersion             -0.533665847033 Eh    ::
         :: -> Gsolv                  -0.225866410337 Eh    ::
         ::    -> Gelec               -0.030424042711 Eh    ::
         ::    -> Gsasa                0.002924438865 Eh    ::
         ::    -> Ghb                 -0.200224249618 Eh    ::
         ::    -> Gshift               0.001857443127 Eh    ::
         :: repulsion energy           5.382165108270 Eh    ::
         :: add. restraining           0.000000000000 Eh    ::
         :: total charge              -0.000000000000 e     ::
         :::::::::::::::::::::::::::::::::::::::::::::::::::::

           -------------------------------------------------
          |                Property Printout                |
           -------------------------------------------------

    * Orbital Energies and Occupations

         #    Occupation            Energy/Eh            Energy/eV
      -------------------------------------------------------------
         1        2.0000           -0.6642063             -18.0740
       ...           ...                  ...                  ...
       696        2.0000           -0.3550889              -9.6625
       697        2.0000           -0.3536249              -9.6226
       698        2.0000           -0.3529596              -9.6045
       699        2.0000           -0.3516543              -9.5690
       700        2.0000           -0.3506245              -9.5410
       701        2.0000           -0.3505356              -9.5386
       702        2.0000           -0.3452837              -9.3956
       703        2.0000           -0.3445515              -9.3757
       704        2.0000           -0.3410671              -9.2809
       705        2.0000           -0.3390683              -9.2265
       706        2.0000           -0.3361756              -9.1478
       707        2.0000           -0.3324454              -9.0463
       708        2.0000           -0.3249277              -8.8417 (HOMO)
       709                         -0.0517129              -1.4072 (LUMO)
       710                         -0.0438126              -1.1922
       711                         -0.0294840              -0.8023
       712                         -0.0255723              -0.6959
       713                         -0.0206597              -0.5622
       714                         -0.0172453              -0.4693
       715                         -0.0082237              -0.2238
       716                          0.0005112               0.0139
       717                          0.0026663               0.0726
       718                          0.0068082               0.1853
       719                          0.0107958               0.2938
       ...                                ...                  ...
      1062                          0.4855149              13.2115
      -------------------------------------------------------------
                  HL-Gap            0.2732148 Eh            7.4346 eV
             Fermi-level           -0.1883203 Eh           -5.1245 eV

     #   Z          covCN         q      C6AA      α(0)
     1   8 o        1.607    -0.676    27.081     7.023
     2   1 h        0.803     0.352     0.583     1.200
     3   1 h        0.804     0.335     0.625     1.241
     4   8 o        1.608    -0.684    27.294     7.051
     5   1 h        0.804     0.356     0.575     1.191
     6   1 h        0.804     0.331     0.635     1.252
     7   8 o        1.607    -0.692    27.495     7.077
     8   1 h        0.803     0.358     0.570     1.186
     9   1 h        0.805     0.334     0.628     1.245
    10   8 o        1.607    -0.693    27.521     7.080
    11   1 h        0.804     0.339     0.615     1.232
    12   1 h        0.803     0.343     0.604     1.221
    13   8 o        1.606    -0.697    27.635     7.095
    14   1 h        0.803     0.333     0.630     1.247
    15   1 h        0.804     0.353     0.582     1.199
    16   8 o        1.607    -0.671    26.954     7.007
    17   1 h        0.803     0.351     0.586     1.202
    18   1 h        0.804     0.330     0.636     1.253
    19   8 o        1.608    -0.665    26.800     6.987
    20   1 h        0.803     0.337     0.621     1.237
    21   1 h        0.804     0.345     0.599     1.216
    22   8 o        1.607    -0.682    27.230     7.043
    23   1 h        0.802     0.367     0.550     1.165
    24   1 h        0.805     0.318     0.669     1.285
    25   8 o        1.607    -0.681    27.207     7.040
    26   1 h        0.803     0.335     0.625     1.242
    27   1 h        0.803     0.342     0.606     1.223
    28   8 o        1.606    -0.683    27.271     7.048
    29   1 h        0.803     0.348     0.594     1.211
    30   1 h        0.803     0.334     0.627     1.244
    31   8 o        1.607    -0.682    27.238     7.044
    32   1 h        0.803     0.344     0.603     1.220
    33   1 h        0.803     0.340     0.612     1.229
    34   8 o        1.607    -0.688    27.405     7.065
    35   1 h        0.803     0.357     0.573     1.189
    36   1 h        0.804     0.347     0.595     1.211
    37   8 o        1.609    -0.662    26.725     6.977
    38   1 h        0.805     0.329     0.639     1.256
    39   1 h        0.805     0.315     0.678     1.294
    40   8 o        1.608    -0.663    26.742     6.979
    41   1 h        0.805     0.328     0.643     1.259
    42   1 h        0.803     0.342     0.607     1.224
    43   8 o        1.605    -0.694    27.557     7.085
    44   1 h        0.803     0.361     0.564     1.179
    45   1 h        0.803     0.339     0.614     1.231
    46   8 o        1.608    -0.660    26.681     6.971
    47   1 h        0.804     0.337     0.620     1.237
    48   1 h        0.805     0.323     0.657     1.273
    49   8 o        1.608    -0.673    27.015     7.015
    50   1 h        0.805     0.351     0.586     1.202
    51   1 h        0.804     0.347     0.595     1.212
    52   8 o        1.607    -0.662    26.731     6.978
    53   1 h        0.804     0.323     0.657     1.273
    54   1 h        0.803     0.352     0.585     1.201
    55   8 o        1.609    -0.687    27.376     7.062
    56   1 h        0.804     0.332     0.632     1.249
    57   1 h        0.805     0.340     0.612     1.229
    58   8 o        1.607    -0.695    27.580     7.088
    59   1 h        0.804     0.357     0.573     1.189
    60   1 h        0.803     0.348     0.594     1.210
    61   8 o        1.607    -0.687    27.367     7.060
    62   1 h        0.804     0.338     0.617     1.234
    63   1 h        0.803     0.347     0.596     1.213
    64   8 o        1.610    -0.658    26.605     6.962
    65   1 h        0.804     0.329     0.639     1.255
    66   1 h        0.804     0.338     0.618     1.235
    67   8 o        1.607    -0.691    27.483     7.075
    68   1 h        0.803     0.342     0.606     1.223
    69   1 h        0.804     0.350     0.589     1.205
    70   8 o        1.606    -0.671    26.945     7.006
    71   1 h        0.803     0.334     0.628     1.245
    72   1 h        0.804     0.341     0.609     1.226
    73   8 o        1.607    -0.683    27.270     7.048
    74   1 h        0.803     0.352     0.583     1.199
    75   1 h        0.805     0.338     0.618     1.235
    76   8 o        1.607    -0.693    27.520     7.080
    77   1 h        0.803     0.345     0.600     1.217
    78   1 h        0.803     0.346     0.597     1.214
    79   8 o        1.608    -0.694    27.547     7.084
    80   1 h        0.804     0.350     0.589     1.205
    81   1 h        0.804     0.346     0.598     1.214
    82   8 o        1.606    -0.711    28.020     7.144
    83   1 h        0.803     0.329     0.640     1.257
    84   1 h        0.803     0.353     0.583     1.199
    85   8 o        1.609    -0.668    26.872     6.996
    86   1 h        0.804     0.328     0.642     1.258
    87   1 h        0.805     0.318     0.668     1.284
    88   8 o        1.609    -0.675    27.046     7.019
    89   1 h        0.804     0.338     0.618     1.235
    90   1 h        0.804     0.334     0.628     1.245
    91   8 o        1.608    -0.671    26.947     7.006
    92   1 h        0.803     0.351     0.586     1.203
    93   1 h        0.806     0.317     0.671     1.286
    94   8 o        1.609    -0.666    26.824     6.990
    95   1 h        0.804     0.334     0.628     1.244
    96   1 h        0.804     0.322     0.658     1.274
    97   8 o        1.607    -0.694    27.545     7.083
    98   1 h        0.803     0.342     0.606     1.223
    99   1 h        0.804     0.338     0.616     1.233
   100   8 o        1.607    -0.675    27.058     7.020
   101   1 h        0.803     0.350     0.589     1.205
   102   1 h        0.804     0.331     0.634     1.250
   103   8 o        1.607    -0.688    27.387     7.063
   104   1 h        0.803     0.336     0.622     1.239
   105   1 h        0.803     0.343     0.606     1.222
   106   8 o        1.609    -0.669    26.892     6.999
   107   1 h        0.804     0.340     0.613     1.230
   108   1 h        0.805     0.323     0.655     1.271
   109   8 o        1.608    -0.680    27.188     7.037
   110   1 h        0.804     0.356     0.574     1.190
   111   1 h        0.803     0.357     0.573     1.189
   112   8 o        1.609    -0.681    27.200     7.039
   113   1 h        0.805     0.333     0.629     1.246
   114   1 h        0.803     0.357     0.573     1.189
   115   8 o        1.607    -0.695    27.580     7.088
   116   1 h        0.803     0.353     0.582     1.198
   117   1 h        0.803     0.344     0.602     1.219
   118   8 o        1.608    -0.685    27.323     7.055
   119   1 h        0.804     0.346     0.597     1.213
   120   1 h        0.804     0.350     0.587     1.204
   121   8 o        1.607    -0.680    27.195     7.038
   122   1 h        0.804     0.340     0.611     1.228
   123   1 h        0.803     0.350     0.589     1.205
   124   8 o        1.608    -0.685    27.316     7.054
   125   1 h        0.803     0.354     0.579     1.196
   126   1 h        0.805     0.315     0.676     1.292
   127   8 o        1.608    -0.664    26.769     6.983
   128   1 h        0.802     0.347     0.596     1.213
   129   1 h        0.806     0.320     0.663     1.279
   130   8 o        1.608    -0.681    27.211     7.040
   131   1 h        0.803     0.332     0.632     1.248
   132   1 h        0.804     0.359     0.567     1.183
   133   8 o        1.606    -0.691    27.475     7.074
   134   1 h        0.803     0.331     0.634     1.251
   135   1 h        0.804     0.328     0.642     1.258
   136   8 o        1.606    -0.651    26.450     6.941
   137   1 h        0.806     0.307     0.701     1.315
   138   1 h        0.802     0.346     0.598     1.215
   139   8 o        1.607    -0.680    27.182     7.036
   140   1 h        0.804     0.321     0.661     1.277
   141   1 h        0.803     0.352     0.584     1.201
   142   8 o        1.607    -0.680    27.180     7.036
   143   1 h        0.803     0.344     0.602     1.219
   144   1 h        0.804     0.324     0.652     1.269
   145   8 o        1.607    -0.664    26.778     6.984
   146   1 h        0.802     0.354     0.579     1.196
   147   1 h        0.806     0.310     0.691     1.305
   148   8 o        1.609    -0.664    26.764     6.982
   149   1 h        0.804     0.357     0.572     1.188
   150   1 h        0.806     0.314     0.679     1.294
   151   8 o        1.607    -0.674    27.027     7.016
   152   1 h        0.804     0.327     0.644     1.261
   153   1 h        0.803     0.358     0.570     1.186
   154   8 o        1.607    -0.683    27.273     7.048
   155   1 h        0.802     0.359     0.569     1.185
   156   1 h        0.805     0.317     0.673     1.289
   157   8 o        1.607    -0.690    27.440     7.070
   158   1 h        0.804     0.337     0.620     1.237
   159   1 h        0.803     0.356     0.575     1.191
   160   8 o        1.608    -0.688    27.381     7.062
   161   1 h        0.804     0.333     0.629     1.246
   162   1 h        0.804     0.353     0.581     1.197
   163   8 o        1.607    -0.684    27.278     7.049
   164   1 h        0.805     0.320     0.663     1.279
   165   1 h        0.802     0.339     0.616     1.233
   166   8 o        1.608    -0.670    26.917     7.002
   167   1 h        0.804     0.349     0.591     1.208
   168   1 h        0.804     0.336     0.621     1.238
   169   8 o        1.609    -0.685    27.306     7.053
   170   1 h        0.804     0.343     0.605     1.222
   171   1 h        0.805     0.324     0.653     1.269
   172   8 o        1.605    -0.691    27.479     7.075
   173   1 h        0.802     0.342     0.609     1.226
   174   1 h        0.803     0.353     0.581     1.197
   175   8 o        1.607    -0.679    27.161     7.034
   176   1 h        0.805     0.328     0.642     1.259
   177   1 h        0.802     0.342     0.607     1.224
   178   8 o        1.608    -0.674    27.023     7.016
   179   1 h        0.805     0.322     0.658     1.274
   180   1 h        0.803     0.366     0.552     1.168
   181   8 o        1.606    -0.685    27.327     7.055
   182   1 h        0.803     0.333     0.629     1.246
   183   1 h        0.803     0.355     0.576     1.192
   184   8 o        1.607    -0.679    27.156     7.033
   185   1 h        0.804     0.338     0.618     1.235
   186   1 h        0.803     0.332     0.632     1.248
   187   8 o        1.607    -0.666    26.834     6.991
   188   1 h        0.803     0.338     0.618     1.235
   189   1 h        0.805     0.340     0.613     1.230
   190   8 o        1.608    -0.675    27.054     7.020
   191   1 h        0.804     0.343     0.605     1.222
   192   1 h        0.803     0.334     0.628     1.245
   193   8 o        1.608    -0.673    27.013     7.015
   194   1 h        0.804     0.343     0.604     1.220
   195   1 h        0.803     0.345     0.600     1.217
   196   8 o        1.609    -0.686    27.343     7.057
   197   1 h        0.805     0.320     0.664     1.280
   198   1 h        0.803     0.343     0.605     1.221
   199   8 o        1.609    -0.649    26.392     6.934
   200   1 h        0.805     0.341     0.608     1.225
   201   1 h        0.805     0.324     0.652     1.268
   202   8 o        1.608    -0.658    26.627     6.964
   203   1 h        0.805     0.315     0.678     1.293
   204   1 h        0.803     0.349     0.592     1.208
   205   8 o        1.607    -0.689    27.413     7.066
   206   1 h        0.803     0.338     0.617     1.234
   207   1 h        0.804     0.323     0.656     1.273
   208   8 o        1.608    -0.680    27.185     7.037
   209   1 h        0.803     0.351     0.586     1.203
   210   1 h        0.804     0.338     0.617     1.234
   211   8 o        1.606    -0.696    27.611     7.092
   212   1 h        0.802     0.338     0.617     1.234
   213   1 h        0.803     0.351     0.587     1.204
   214   8 o        1.606    -0.681    27.204     7.039
   215   1 h        0.803     0.348     0.593     1.209
   216   1 h        0.803     0.351     0.586     1.203
   217   8 o        1.603    -0.704    27.811     7.117
   218   1 h        0.803     0.338     0.619     1.236
   219   1 h        0.802     0.360     0.565     1.181
   220   8 o        1.608    -0.682    27.235     7.043
   221   1 h        0.803     0.354     0.580     1.196
   222   1 h        0.805     0.318     0.670     1.286
   223   8 o        1.606    -0.707    27.900     7.129
   224   1 h        0.803     0.360     0.565     1.181
   225   1 h        0.804     0.333     0.629     1.246
   226   8 o        1.610    -0.682    27.225     7.042
   227   1 h        0.804     0.347     0.595     1.212
   228   1 h        0.804     0.339     0.615     1.231
   229   8 o        1.607    -0.668    26.866     6.996
   230   1 h        0.803     0.357     0.572     1.188
   231   1 h        0.804     0.320     0.664     1.280
   232   8 o        1.610    -0.647    26.336     6.926
   233   1 h        0.805     0.339     0.613     1.230
   234   1 h        0.805     0.332     0.631     1.248
   235   8 o        1.607    -0.677    27.115     7.028
   236   1 h        0.804     0.328     0.643     1.260
   237   1 h        0.803     0.352     0.584     1.201
   238   8 o        1.608    -0.665    26.797     6.987
   239   1 h        0.803     0.356     0.574     1.190
   240   1 h        0.805     0.334     0.628     1.245
   241   8 o        1.607    -0.684    27.277     7.049
   242   1 h        0.803     0.340     0.612     1.229
   243   1 h        0.803     0.328     0.642     1.258
   244   8 o        1.606    -0.693    27.518     7.080
   245   1 h        0.803     0.328     0.642     1.258
   246   1 h        0.803     0.356     0.574     1.190
   247   8 o        1.607    -0.690    27.440     7.070
   248   1 h        0.804     0.340     0.612     1.229
   249   1 h        0.804     0.351     0.586     1.202
   250   8 o        1.609    -0.661    26.697     6.974
   251   1 h        0.804     0.329     0.640     1.256
   252   1 h        0.805     0.347     0.595     1.211
   253   8 o        1.607    -0.648    26.371     6.931
   254   1 h        0.805     0.323     0.655     1.271
   255   1 h        0.802     0.344     0.603     1.220
   256   8 o        1.606    -0.669    26.895     6.999
   257   1 h        0.806     0.309     0.694     1.308
   258   1 h        0.801     0.349     0.591     1.208
   259   8 o        1.607    -0.666    26.828     6.991
   260   1 h        0.803     0.328     0.644     1.260
   261   1 h        0.803     0.330     0.637     1.254
   262   8 o        1.608    -0.674    27.024     7.016
   263   1 h        0.803     0.332     0.634     1.250
   264   1 h        0.804     0.333     0.631     1.248
   265   8 o        1.609    -0.673    26.992     7.012
   266   1 h        0.805     0.328     0.642     1.258
   267   1 h        0.804     0.331     0.635     1.252
   268   8 o        1.607    -0.663    26.744     6.980
   269   1 h        0.804     0.322     0.659     1.275
   270   1 h        0.803     0.349     0.590     1.207
   271   8 o        1.607    -0.669    26.899     7.000
   272   1 h        0.803     0.338     0.617     1.234
   273   1 h        0.803     0.336     0.623     1.240
   274   8 o        1.606    -0.680    27.184     7.037
   275   1 h        0.804     0.331     0.636     1.252
   276   1 h        0.802     0.346     0.599     1.215
   277   8 o        1.610    -0.663    26.733     6.978
   278   1 h        0.805     0.336     0.622     1.239
   279   1 h        0.805     0.336     0.621     1.238
   280   8 o        1.609    -0.663    26.758     6.981
   281   1 h        0.804     0.330     0.638     1.255
   282   1 h        0.804     0.330     0.638     1.254
   283   8 o        1.610    -0.656    26.555     6.955
   284   1 h        0.804     0.338     0.618     1.235
   285   1 h        0.805     0.321     0.660     1.276
   286   8 o        1.608    -0.680    27.186     7.037
   287   1 h        0.803     0.349     0.590     1.207
   288   1 h        0.805     0.316     0.674     1.289
   289   8 o        1.609    -0.659    26.642     6.966
   290   1 h        0.803     0.346     0.597     1.213
   291   1 h        0.806     0.321     0.660     1.276
   292   8 o        1.608    -0.691    27.483     7.075
   293   1 h        0.804     0.327     0.644     1.261
   294   1 h        0.804     0.325     0.650     1.267
   295   8 o        1.608    -0.673    26.998     7.013
   296   1 h        0.803     0.372     0.540     1.155
   297   1 h        0.805     0.318     0.668     1.284
   298   8 o        1.607    -0.678    27.125     7.029
   299   1 h        0.802     0.354     0.579     1.195
   300   1 h        0.805     0.314     0.681     1.296
   301   8 o        1.609    -0.646    26.307     6.922
   302   1 h        0.804     0.339     0.614     1.231
   303   1 h        0.805     0.327     0.646     1.262
   304   8 o        1.609    -0.680    27.187     7.037
   305   1 h        0.804     0.332     0.631     1.248
   306   1 h        0.804     0.319     0.667     1.283
   307   8 o        1.609    -0.664    26.772     6.983
   308   1 h        0.805     0.322     0.659     1.275
   309   1 h        0.803     0.351     0.585     1.202
   310   8 o        1.607    -0.674    27.020     7.016
   311   1 h        0.803     0.350     0.587     1.204
   312   1 h        0.804     0.340     0.611     1.228
   313   8 o        1.610    -0.675    27.062     7.021
   314   1 h        0.804     0.349     0.590     1.206
   315   1 h        0.806     0.311     0.690     1.305
   316   8 o        1.608    -0.666    26.816     6.989
   317   1 h        0.806     0.317     0.672     1.288
   318   1 h        0.803     0.353     0.582     1.198
   319   8 o        1.607    -0.664    26.784     6.985
   320   1 h        0.802     0.370     0.545     1.159
   321   1 h        0.805     0.331     0.635     1.252
   322   8 o        1.606    -0.678    27.136     7.031
   323   1 h        0.802     0.338     0.617     1.234
   324   1 h        0.805     0.328     0.643     1.260
   325   8 o        1.607    -0.684    27.279     7.049
   326   1 h        0.804     0.346     0.597     1.214
   327   1 h        0.803     0.354     0.578     1.195
   328   8 o        1.608    -0.674    27.035     7.017
   329   1 h        0.803     0.337     0.619     1.236
   330   1 h        0.805     0.330     0.638     1.254
   331   8 o        1.608    -0.660    26.672     6.970
   332   1 h        0.803     0.352     0.584     1.200
   333   1 h        0.806     0.320     0.663     1.279
   334   8 o        1.609    -0.668    26.883     6.998
   335   1 h        0.805     0.336     0.622     1.239
   336   1 h        0.804     0.338     0.617     1.234
   337   8 o        1.604    -0.713    28.063     7.150
   338   1 h        0.802     0.359     0.568     1.184
   339   1 h        0.804     0.325     0.650     1.267
   340   8 o        1.609    -0.669    26.888     6.998
   341   1 h        0.805     0.349     0.591     1.208
   342   1 h        0.805     0.333     0.630     1.247
   343   8 o        1.606    -0.670    26.930     7.004
   344   1 h        0.803     0.329     0.640     1.257
   345   1 h        0.803     0.333     0.630     1.247
   346   8 o        1.609    -0.670    26.934     7.004
   347   1 h        0.805     0.318     0.670     1.285
   348   1 h        0.804     0.331     0.634     1.251
   349   8 o        1.608    -0.664    26.783     6.985
   350   1 h        0.804     0.339     0.615     1.231
   351   1 h        0.804     0.344     0.601     1.218
   352   8 o        1.608    -0.651    26.435     6.939
   353   1 h        0.803     0.332     0.634     1.250
   354   1 h        0.806     0.306     0.704     1.318
   355   8 o        1.609    -0.673    26.994     7.012
   356   1 h        0.804     0.318     0.669     1.285
   357   1 h        0.803     0.345     0.599     1.216
   358   8 o        1.607    -0.684    27.279     7.049
   359   1 h        0.804     0.327     0.645     1.261
   360   1 h        0.803     0.350     0.587     1.204
   361   8 o        1.606    -0.670    26.925     7.003
   362   1 h        0.805     0.327     0.644     1.261
   363   1 h        0.802     0.346     0.598     1.215
   364   8 o        1.608    -0.687    27.375     7.062
   365   1 h        0.805     0.319     0.667     1.283
   366   1 h        0.803     0.344     0.603     1.220
   367   8 o        1.608    -0.665    26.787     6.985
   368   1 h        0.804     0.331     0.635     1.252
   369   1 h        0.804     0.345     0.600     1.217
   370   8 o        1.608    -0.663    26.752     6.981
   371   1 h        0.805     0.311     0.689     1.303
   372   1 h        0.803     0.351     0.586     1.203
   373   8 o        1.609    -0.676    27.089     7.025
   374   1 h        0.804     0.351     0.587     1.203
   375   1 h        0.805     0.323     0.656     1.273
   376   8 o        1.607    -0.672    26.968     7.009
   377   1 h        0.806     0.315     0.678     1.293
   378   1 h        0.802     0.358     0.569     1.185
   379   8 o        1.608    -0.691    27.471     7.074
   380   1 h        0.804     0.351     0.587     1.204
   381   1 h        0.804     0.315     0.678     1.294
   382   8 o        1.608    -0.660    26.664     6.969
   383   1 h        0.806     0.317     0.672     1.287
   384   1 h        0.803     0.354     0.579     1.195
   385   8 o        1.608    -0.675    27.055     7.020
   386   1 h        0.804     0.319     0.666     1.282
   387   1 h        0.804     0.344     0.603     1.220
   388   8 o        1.605    -0.675    27.046     7.019
   389   1 h        0.802     0.356     0.574     1.190
   390   1 h        0.806     0.308     0.698     1.312
   391   8 o        1.608    -0.675    27.059     7.021
   392   1 h        0.804     0.334     0.627     1.244
   393   1 h        0.804     0.336     0.622     1.239
   394   8 o        1.609    -0.690    27.439     7.070
   395   1 h        0.805     0.333     0.629     1.246
   396   1 h        0.804     0.354     0.580     1.196
   397   8 o        1.606    -0.669    26.900     7.000
   398   1 h        0.805     0.315     0.678     1.293
   399   1 h        0.801     0.368     0.549     1.164
   400   8 o        1.608    -0.656    26.562     6.956
   401   1 h        0.805     0.322     0.658     1.274
   402   1 h        0.803     0.345     0.600     1.217
   403   8 o        1.608    -0.683    27.267     7.048
   404   1 h        0.804     0.330     0.636     1.253
   405   1 h        0.803     0.344     0.601     1.218
   406   8 o        1.608    -0.664    26.775     6.984
   407   1 h        0.805     0.321     0.661     1.278
   408   1 h        0.803     0.349     0.590     1.207
   409   8 o        1.609    -0.656    26.556     6.955
   410   1 h        0.804     0.341     0.610     1.227
   411   1 h        0.805     0.323     0.655     1.271
   412   8 o        1.603    -0.704    27.823     7.119
   413   1 h        0.802     0.350     0.588     1.205
   414   1 h        0.802     0.358     0.571     1.187
   415   8 o        1.609    -0.663    26.753     6.981
   416   1 h        0.803     0.352     0.584     1.201
   417   1 h        0.805     0.313     0.684     1.299
   418   8 o        1.608    -0.644    26.266     6.917
   419   1 h        0.806     0.315     0.678     1.293
   420   1 h        0.803     0.347     0.595     1.212
   421   8 o        1.609    -0.671    26.941     7.005
   422   1 h        0.805     0.335     0.625     1.242
   423   1 h        0.805     0.328     0.642     1.258
   424   8 o        1.609    -0.653    26.501     6.948
   425   1 h        0.805     0.330     0.638     1.254
   426   1 h        0.804     0.347     0.595     1.212
   427   8 o        1.607    -0.684    27.277     7.049
   428   1 h        0.804     0.333     0.629     1.246
   429   1 h        0.802     0.352     0.585     1.202
   430   8 o        1.607    -0.678    27.143     7.031
   431   1 h        0.802     0.347     0.596     1.213
   432   1 h        0.805     0.319     0.667     1.283
   433   8 o        1.609    -0.656    26.572     6.957
   434   1 h        0.806     0.316     0.674     1.289
   435   1 h        0.803     0.352     0.584     1.201
   436   8 o        1.608    -0.663    26.747     6.980
   437   1 h        0.806     0.313     0.682     1.297
   438   1 h        0.802     0.354     0.578     1.195
   439   8 o        1.610    -0.667    26.836     6.992
   440   1 h        0.805     0.333     0.628     1.245
   441   1 h        0.805     0.340     0.612     1.229
   442   8 o        1.608    -0.652    26.457     6.942
   443   1 h        0.802     0.350     0.587     1.204
   444   1 h        0.806     0.312     0.687     1.301
   445   8 o        1.610    -0.671    26.957     7.007
   446   1 h        0.804     0.332     0.632     1.249
   447   1 h        0.805     0.343     0.606     1.223
   448   8 o        1.608    -0.676    27.072     7.022
   449   1 h        0.805     0.325     0.651     1.267
   450   1 h        0.803     0.337     0.620     1.237
   451   8 o        1.608    -0.689    27.417     7.067
   452   1 h        0.802     0.362     0.561     1.177
   453   1 h        0.804     0.346     0.597     1.213
   454   8 o        1.609    -0.684    27.276     7.049
   455   1 h        0.804     0.346     0.598     1.215
   456   1 h        0.805     0.326     0.647     1.264
   457   8 o        1.608    -0.681    27.218     7.041
   458   1 h        0.804     0.339     0.616     1.233
   459   1 h        0.804     0.333     0.631     1.247
   460   8 o        1.608    -0.662    26.716     6.976
   461   1 h        0.805     0.324     0.652     1.268
   462   1 h        0.803     0.349     0.590     1.207
   463   8 o        1.608    -0.689    27.419     7.067
   464   1 h        0.804     0.335     0.624     1.241
   465   1 h        0.804     0.336     0.621     1.238
   466   8 o        1.606    -0.688    27.401     7.065
   467   1 h        0.804     0.342     0.606     1.223
   468   1 h        0.802     0.343     0.605     1.222
   469   8 o        1.610    -0.671    26.947     7.006
   470   1 h        0.805     0.340     0.613     1.229
   471   1 h        0.803     0.343     0.604     1.221
   472   8 o        1.609    -0.675    27.061     7.021
   473   1 h        0.806     0.318     0.669     1.285
   474   1 h        0.803     0.345     0.600     1.217
   475   8 o        1.607    -0.677    27.111     7.027
   476   1 h        0.802     0.364     0.558     1.173
   477   1 h        0.805     0.325     0.652     1.268
   478   8 o        1.608    -0.685    27.325     7.055
   479   1 h        0.803     0.343     0.605     1.222
   480   1 h        0.804     0.344     0.604     1.220
   481   8 o        1.609    -0.681    27.219     7.041
   482   1 h        0.805     0.325     0.651     1.267
   483   1 h        0.804     0.347     0.594     1.211
   484   8 o        1.610    -0.645    26.292     6.920
   485   1 h        0.804     0.325     0.650     1.266
   486   1 h        0.805     0.324     0.654     1.270
   487   8 o        1.609    -0.664    26.761     6.982
   488   1 h        0.804     0.338     0.616     1.233
   489   1 h        0.805     0.328     0.642     1.258
   490   8 o        1.608    -0.677    27.096     7.026
   491   1 h        0.804     0.330     0.637     1.254
   492   1 h        0.804     0.344     0.603     1.220
   493   8 o        1.609    -0.670    26.936     7.005
   494   1 h        0.805     0.328     0.642     1.258
   495   1 h        0.804     0.342     0.608     1.225
   496   8 o        1.607    -0.678    27.127     7.029
   497   1 h        0.804     0.329     0.640     1.256
   498   1 h        0.803     0.350     0.588     1.204
   499   8 o        1.607    -0.668    26.885     6.998
   500   1 h        0.804     0.345     0.600     1.217
   501   1 h        0.804     0.328     0.644     1.260
   502   8 o        1.608    -0.666    26.814     6.989
   503   1 h        0.804     0.335     0.624     1.241
   504   1 h        0.804     0.341     0.609     1.225
   505   8 o        1.606    -0.697    27.620     7.093
   506   1 h        0.803     0.349     0.590     1.206
   507   1 h        0.803     0.347     0.596     1.213
   508   8 o        1.609    -0.665    26.789     6.986
   509   1 h        0.805     0.315     0.678     1.294
   510   1 h        0.803     0.332     0.632     1.248
   511   8 o        1.607    -0.661    26.701     6.974
   512   1 h        0.803     0.345     0.601     1.218
   513   1 h        0.805     0.327     0.646     1.262
   514   8 o        1.609    -0.641    26.180     6.906
   515   1 h        0.803     0.339     0.615     1.232
   516   1 h        0.806     0.307     0.701     1.315
   517   8 o        1.607    -0.686    27.333     7.056
   518   1 h        0.805     0.324     0.654     1.270
   519   1 h        0.803     0.350     0.589     1.206
   520   8 o        1.609    -0.667    26.840     6.992
   521   1 h        0.805     0.342     0.607     1.224
   522   1 h        0.805     0.321     0.660     1.276
   523   8 o        1.608    -0.679    27.170     7.035
   524   1 h        0.803     0.360     0.566     1.182
   525   1 h        0.805     0.323     0.656     1.273
   526   8 o        1.608    -0.681    27.211     7.040
   527   1 h        0.803     0.331     0.635     1.252
   528   1 h        0.804     0.330     0.638     1.255
   529   8 o        1.610    -0.663    26.741     6.979
   530   1 h        0.805     0.326     0.647     1.263
   531   1 h        0.805     0.326     0.647     1.263

 Mol. C6AA /au·bohr⁶  :    1428585.684154
 Mol. C8AA /au·bohr⁸  :   25905962.924685
 Mol. α(0) /au        :       1680.130289


Wiberg/Mayer (AO) data.
largest (>0.10) Wiberg bond orders for each atom

 ---------------------------------------------------------------------------
     #   Z sym  total        # sym  WBO       # sym  WBO       # sym  WBO
 ---------------------------------------------------------------------------
     1   8 o    1.879 --     3 h    0.835     2 h    0.801
     2   1 h    0.876 --     1 o    0.801
     3   1 h    0.888 --     1 o    0.835
     4   8 o    1.863 --     6 h    0.819     5 h    0.806
     5   1 h    0.873 --     4 o    0.806
     6   1 h    0.890 --     4 o    0.819
     7   8 o    1.849 --     9 h    0.849     8 h    0.769
     8   1 h    0.872 --     7 o    0.769
     9   1 h    0.889 --     7 o    0.849
    10   8 o    1.839 --    12 h    0.817    11 h    0.815
    11   1 h    0.885 --    10 o    0.815
    12   1 h    0.882 --    10 o    0.817
    13   8 o    1.843 --    14 h    0.826    15 h    0.820
    14   1 h    0.889 --    13 o    0.826
    15   1 h    0.876 --    13 o    0.820
    16   8 o    1.890 --    18 h    0.838    17 h    0.801
    17   1 h    0.877 --    16 o    0.801
    18   1 h    0.891 --    16 o    0.838
    19   8 o    1.864 --    21 h    0.836    20 h    0.828
    20   1 h    0.887 --    19 o    0.828
    21   1 h    0.881 --    19 o    0.836
    22   8 o    1.837 --    24 h    0.874    23 h    0.795
    23   1 h    0.865 --    22 o    0.795
    24   1 h    0.899 --    22 o    0.874
    25   8 o    1.874 --    26 h    0.823    27 h    0.805
    26   1 h    0.888 --    25 o    0.823
    27   1 h    0.883 --    25 o    0.805
    28   8 o    1.849 --    30 h    0.822    29 h    0.811
    29   1 h    0.879 --    28 o    0.811
    30   1 h    0.888 --    28 o    0.822
    31   8 o    1.866 --    32 h    0.820    33 h    0.819
    32   1 h    0.882 --    31 o    0.820
    33   1 h    0.884 --    31 o    0.819
    34   8 o    1.865 --    36 h    0.826    35 h    0.805
    35   1 h    0.873 --    34 o    0.805
    36   1 h    0.879 --    34 o    0.826
    37   8 o    1.813 --    39 h    0.866    38 h    0.839
    38   1 h    0.892 --    37 o    0.839
    39   1 h    0.901 --    37 o    0.866
    40   8 o    1.858 --    41 h    0.860    42 h    0.811
    41   1 h    0.892 --    40 o    0.860
    42   1 h    0.883 --    40 o    0.811
    43   8 o    1.890 --    45 h    0.813    44 h    0.782
    44   1 h    0.870 --    43 o    0.782
    45   1 h    0.885 --    43 o    0.813
    46   8 o    1.834 --    48 h    0.854    47 h    0.846
    47   1 h    0.886 --    46 o    0.846
    48   1 h    0.896 --    46 o    0.854
    49   8 o    1.861 --    50 h    0.835    51 h    0.824
    50   1 h    0.877 --    49 o    0.835
    51   1 h    0.879 --    49 o    0.824
    52   8 o    1.873 --    53 h    0.847    54 h    0.810
    53   1 h    0.896 --    52 o    0.847
    54   1 h    0.876 --    52 o    0.810
    55   8 o    1.802 --    57 h    0.839    56 h    0.828
    56   1 h    0.890 --    55 o    0.828
    57   1 h    0.884 --    55 o    0.839
    58   8 o    1.857 --    60 h    0.809    59 h    0.809
    59   1 h    0.873 --    58 o    0.809
    60   1 h    0.879 --    58 o    0.809
    61   8 o    1.827 --    62 h    0.835    63 h    0.823
    62   1 h    0.886 --    61 o    0.835
    63   1 h    0.880 --    61 o    0.823
    64   8 o    1.876 --    65 h    0.842    66 h    0.838
    65   1 h    0.891 --    64 o    0.842
    66   1 h    0.886 --    64 o    0.838
    67   8 o    1.863 --    69 h    0.817    68 h    0.802
    68   1 h    0.883 --    67 o    0.802
    69   1 h    0.878 --    67 o    0.817
    70   8 o    1.879 --    72 h    0.836    71 h    0.809
    71   1 h    0.889 --    70 o    0.809
    72   1 h    0.883 --    70 o    0.836
    73   8 o    1.863 --    75 h    0.849    74 h    0.785
    74   1 h    0.876 --    73 o    0.785
    75   1 h    0.886 --    73 o    0.849
    76   8 o    1.865 --    77 h    0.808    78 h    0.807
    77   1 h    0.881 --    76 o    0.808
    78   1 h    0.880 --    76 o    0.807
    79   8 o    1.829 --    80 h    0.828    81 h    0.817
    80   1 h    0.878 --    79 o    0.828
    81   1 h    0.880 --    79 o    0.817
    82   8 o    1.819 --    83 h    0.822    84 h    0.792
    83   1 h    0.892 --    82 o    0.822
    84   1 h    0.876 --    82 o    0.792
    85   8 o    1.796 --    87 h    0.870    86 h    0.853
    86   1 h    0.892 --    85 o    0.853
    87   1 h    0.898 --    85 o    0.870
    88   8 o    1.831 --    90 h    0.852    89 h    0.840
    89   1 h    0.886 --    88 o    0.840
    90   1 h    0.889 --    88 o    0.852
    91   8 o    1.820 --    93 h    0.891    92 h    0.811
    92   1 h    0.877 --    91 o    0.811
    93   1 h    0.899 --    91 o    0.891
    94   8 o    1.813 --    95 h    0.856    96 h    0.856
    95   1 h    0.889 --    94 o    0.856
    96   1 h    0.896 --    94 o    0.856
    97   8 o    1.841 --    99 h    0.833    98 h    0.802
    98   1 h    0.883 --    97 o    0.802
    99   1 h    0.885 --    97 o    0.833
   100   8 o    1.872 --   102 h    0.853   101 h    0.799
   101   1 h    0.878 --   100 o    0.799
   102   1 h    0.890 --   100 o    0.853
   103   8 o    1.850 --   104 h    0.820   105 h    0.811
   104   1 h    0.887 --   103 o    0.820
   105   1 h    0.882 --   103 o    0.811
   106   8 o    1.823 --   108 h    0.860   107 h    0.845
   107   1 h    0.885 --   106 o    0.845
   108   1 h    0.895 --   106 o    0.860
   109   8 o    1.889 --   110 h    0.821   111 h    0.804
   110   1 h    0.873 --   109 o    0.821
   111   1 h    0.873 --   109 o    0.804
   112   8 o    1.846 --   113 h    0.845   114 h    0.799
   113   1 h    0.889 --   112 o    0.845
   114   1 h    0.873 --   112 o    0.799
   115   8 o    1.854 --   117 h    0.808   116 h    0.801
   116   1 h    0.875 --   115 o    0.801
   117   1 h    0.881 --   115 o    0.808
   118   8 o    1.862 --   120 h    0.831   119 h    0.810
   119   1 h    0.880 --   118 o    0.810
   120   1 h    0.877 --   118 o    0.831
   121   8 o    1.875 --   122 h    0.822   123 h    0.806
   122   1 h    0.884 --   121 o    0.822
   123   1 h    0.877 --   121 o    0.806
   124   8 o    1.809 --   126 h    0.884   125 h    0.799
   125   1 h    0.875 --   124 o    0.799
   126   1 h    0.900 --   124 o    0.884
   127   8 o    1.838 --   129 h    0.892   128 h    0.811
   128   1 h    0.880 --   127 o    0.811
   129   1 h    0.897 --   127 o    0.892
   130   8 o    1.865 --   131 h    0.828   132 h    0.807
   131   1 h    0.889 --   130 o    0.828
   132   1 h    0.871 --   130 o    0.807
   133   8 o    1.823 --   135 h    0.837   134 h    0.818
   134   1 h    0.890 --   133 o    0.818
   135   1 h    0.892 --   133 o    0.837
   136   8 o    1.867 --   137 h    0.902   138 h    0.788
   137   1 h    0.906 --   136 o    0.902
   138   1 h    0.880 --   136 o    0.788
   139   8 o    1.847 --   140 h    0.842   141 h    0.803
   140   1 h    0.897 --   139 o    0.842
   141   1 h    0.876 --   139 o    0.803
   142   8 o    1.854 --   144 h    0.833   143 h    0.807
   143   1 h    0.881 --   142 o    0.807
   144   1 h    0.895 --   142 o    0.833
   145   8 o    1.844 --   147 h    0.900   146 h    0.797
   146   1 h    0.875 --   145 o    0.797
   147   1 h    0.904 --   145 o    0.900
   148   8 o    1.832 --   150 h    0.892   149 h    0.818
   149   1 h    0.872 --   148 o    0.818
   150   1 h    0.901 --   148 o    0.892
   151   8 o    1.892 --   152 h    0.839   153 h    0.785
   152   1 h    0.893 --   151 o    0.839
   153   1 h    0.872 --   151 o    0.785
   154   8 o    1.824 --   156 h    0.885   155 h    0.793
   155   1 h    0.871 --   154 o    0.793
   156   1 h    0.900 --   154 o    0.885
   157   8 o    1.861 --   158 h    0.817   159 h    0.797
   158   1 h    0.886 --   157 o    0.817
   159   1 h    0.873 --   157 o    0.797
   160   8 o    1.839 --   161 h    0.828   162 h    0.813
   161   1 h    0.889 --   160 o    0.828
   162   1 h    0.875 --   160 o    0.813
   163   8 o    1.796 --   164 h    0.871   165 h    0.809
   164   1 h    0.897 --   163 o    0.871
   165   1 h    0.885 --   163 o    0.809
   166   8 o    1.875 --   168 h    0.822   167 h    0.822
   167   1 h    0.878 --   166 o    0.822
   168   1 h    0.887 --   166 o    0.822
   169   8 o    1.811 --   171 h    0.867   170 h    0.823
   170   1 h    0.882 --   169 o    0.823
   171   1 h    0.895 --   169 o    0.867
   172   8 o    1.868 --   174 h    0.805   173 h    0.800
   173   1 h    0.883 --   172 o    0.800
   174   1 h    0.875 --   172 o    0.805
   175   8 o    1.826 --   176 h    0.859   177 h    0.807
   176   1 h    0.892 --   175 o    0.859
   177   1 h    0.883 --   175 o    0.807
   178   8 o    1.861 --   179 h    0.872   180 h    0.793
   179   1 h    0.896 --   178 o    0.872
   180   1 h    0.866 --   178 o    0.793
   181   8 o    1.872 --   182 h    0.820   183 h    0.795
   182   1 h    0.889 --   181 o    0.820
   183   1 h    0.874 --   181 o    0.795
   184   8 o    1.835 --   185 h    0.836   186 h    0.825
   185   1 h    0.886 --   184 o    0.836
   186   1 h    0.889 --   184 o    0.825
   187   8 o    1.856 --   189 h    0.848   188 h    0.819
   188   1 h    0.886 --   187 o    0.819
   189   1 h    0.884 --   187 o    0.848
   190   8 o    1.861 --   191 h    0.827   192 h    0.822
   191   1 h    0.882 --   190 o    0.827
   192   1 h    0.889 --   190 o    0.822
   193   8 o    1.863 --   194 h    0.843   195 h    0.808
   194   1 h    0.882 --   193 o    0.843
   195   1 h    0.881 --   193 o    0.808
   196   8 o    1.800 --   197 h    0.868   198 h    0.819
   197   1 h    0.898 --   196 o    0.868
   198   1 h    0.882 --   196 o    0.819
   199   8 o    1.865 --   201 h    0.855   200 h    0.841
   200   1 h    0.883 --   199 o    0.841
   201   1 h    0.895 --   199 o    0.855
   202   8 o    1.863 --   203 h    0.874   204 h    0.809
   203   1 h    0.901 --   202 o    0.874
   204   1 h    0.878 --   202 o    0.809
   205   8 o    1.819 --   207 h    0.848   206 h    0.818
   206   1 h    0.886 --   205 o    0.818
   207   1 h    0.896 --   205 o    0.848
   208   8 o    1.876 --   210 h    0.821   209 h    0.806
   209   1 h    0.877 --   208 o    0.806
   210   1 h    0.886 --   208 o    0.821
   211   8 o    1.845 --   213 h    0.817   212 h    0.807
   212   1 h    0.885 --   211 o    0.807
   213   1 h    0.877 --   211 o    0.817
   214   8 o    1.888 --   215 h    0.810   216 h    0.803
   215   1 h    0.879 --   214 o    0.810
   216   1 h    0.877 --   214 o    0.803
   217   8 o    1.873 --   218 h    0.811   219 h    0.764
   218   1 h    0.886 --   217 o    0.811
   219   1 h    0.870 --   217 o    0.764
   220   8 o    1.820 --   222 h    0.878   221 h    0.805
   221   1 h    0.875 --   220 o    0.805
   222   1 h    0.899 --   220 o    0.878
   223   8 o    1.825 --   225 h    0.833   224 h    0.798
   224   1 h    0.870 --   223 o    0.798
   225   1 h    0.889 --   223 o    0.833
   226   8 o    1.860 --   228 h    0.823   227 h    0.821
   227   1 h    0.880 --   226 o    0.821
   228   1 h    0.885 --   226 o    0.823
   229   8 o    1.871 --   231 h    0.862   230 h    0.803
   230   1 h    0.872 --   229 o    0.803
   231   1 h    0.898 --   229 o    0.862
   232   8 o    1.850 --   234 h    0.879   233 h    0.863
   233   1 h    0.885 --   232 o    0.863
   234   1 h    0.889 --   232 o    0.879
   235   8 o    1.857 --   236 h    0.835   237 h    0.813
   236   1 h    0.892 --   235 o    0.835
   237   1 h    0.876 --   235 o    0.813
   238   8 o    1.878 --   240 h    0.851   239 h    0.813
   239   1 h    0.873 --   238 o    0.813
   240   1 h    0.889 --   238 o    0.851
   241   8 o    1.832 --   243 h    0.833   242 h    0.827
   242   1 h    0.884 --   241 o    0.827
   243   1 h    0.892 --   241 o    0.833
   244   8 o    1.853 --   245 h    0.828   246 h    0.796
   245   1 h    0.892 --   244 o    0.828
   246   1 h    0.873 --   244 o    0.796
   247   8 o    1.860 --   248 h    0.828   249 h    0.792
   248   1 h    0.884 --   247 o    0.828
   249   1 h    0.877 --   247 o    0.792
   250   8 o    1.874 --   252 h    0.837   251 h    0.821
   251   1 h    0.892 --   250 o    0.821
   252   1 h    0.879 --   250 o    0.837
   253   8 o    1.878 --   254 h    0.885   255 h    0.806
   254   1 h    0.895 --   253 o    0.885
   255   1 h    0.882 --   253 o    0.806
   256   8 o    1.830 --   257 h    0.900   258 h    0.789
   257   1 h    0.904 --   256 o    0.900
   258   1 h    0.878 --   256 o    0.789
   259   8 o    1.865 --   260 h    0.834   261 h    0.826
   260   1 h    0.893 --   259 o    0.834
   261   1 h    0.891 --   259 o    0.826
   262   8 o    1.833 --   264 h    0.844   263 h    0.839
   263   1 h    0.890 --   262 o    0.839
   264   1 h    0.889 --   262 o    0.844
   265   8 o    1.799 --   266 h    0.858   267 h    0.847
   266   1 h    0.892 --   265 o    0.858
   267   1 h    0.890 --   265 o    0.847
   268   8 o    1.885 --   269 h    0.847   270 h    0.809
   269   1 h    0.896 --   268 o    0.847
   270   1 h    0.878 --   268 o    0.809
   271   8 o    1.870 --   273 h    0.836   272 h    0.812
   272   1 h    0.886 --   271 o    0.812
   273   1 h    0.887 --   271 o    0.836
   274   8 o    1.860 --   275 h    0.833   276 h    0.796
   275   1 h    0.891 --   274 o    0.833
   276   1 h    0.880 --   274 o    0.796
   277   8 o    1.826 --   279 h    0.874   278 h    0.857
   278   1 h    0.887 --   277 o    0.857
   279   1 h    0.887 --   277 o    0.874
   280   8 o    1.839 --   281 h    0.851   282 h    0.835
   281   1 h    0.891 --   280 o    0.851
   282   1 h    0.891 --   280 o    0.835
   283   8 o    1.841 --   285 h    0.865   284 h    0.841
   284   1 h    0.886 --   283 o    0.841
   285   1 h    0.897 --   283 o    0.865
   286   8 o    1.817 --   288 h    0.885   287 h    0.808
   287   1 h    0.878 --   286 o    0.808
   288   1 h    0.900 --   286 o    0.885
   289   8 o    1.830 --   291 h    0.888   290 h    0.830
   290   1 h    0.880 --   289 o    0.830
   291   1 h    0.897 --   289 o    0.888
   292   8 o    1.784 --   294 h    0.848   293 h    0.835
   293   1 h    0.893 --   292 o    0.835
   294   1 h    0.894 --   292 o    0.848
   295   8 o    1.857 --   297 h    0.880   296 h    0.792
   296   1 h    0.862 --   295 o    0.792
   297   1 h    0.899 --   295 o    0.880
   298   8 o    1.831 --   300 h    0.887   299 h    0.784
   299   1 h    0.874 --   298 o    0.784
   300   1 h    0.901 --   298 o    0.887
   301   8 o    1.868 --   303 h    0.873   302 h    0.835
   302   1 h    0.885 --   301 o    0.835
   303   1 h    0.893 --   301 o    0.873
   304   8 o    1.791 --   306 h    0.859   305 h    0.836
   305   1 h    0.889 --   304 o    0.836
   306   1 h    0.898 --   304 o    0.859
   307   8 o    1.837 --   308 h    0.883   309 h    0.823
   308   1 h    0.896 --   307 o    0.883
   309   1 h    0.877 --   307 o    0.823
   310   8 o    1.887 --   312 h    0.830   311 h    0.796
   311   1 h    0.877 --   310 o    0.796
   312   1 h    0.884 --   310 o    0.830
   313   8 o    1.789 --   315 h    0.889   314 h    0.835
   314   1 h    0.878 --   313 o    0.835
   315   1 h    0.903 --   313 o    0.889
   316   8 o    1.831 --   317 h    0.893   318 h    0.813
   317   1 h    0.899 --   316 o    0.893
   318   1 h    0.875 --   316 o    0.813
   319   8 o    1.880 --   321 h    0.865   320 h    0.794
   320   1 h    0.863 --   319 o    0.794
   321   1 h    0.891 --   319 o    0.865
   322   8 o    1.818 --   324 h    0.866   323 h    0.806
   323   1 h    0.886 --   322 o    0.806
   324   1 h    0.892 --   322 o    0.866
   325   8 o    1.871 --   326 h    0.829   327 h    0.795
   326   1 h    0.880 --   325 o    0.829
   327   1 h    0.874 --   325 o    0.795
   328   8 o    1.826 --   330 h    0.858   329 h    0.829
   329   1 h    0.886 --   328 o    0.829
   330   1 h    0.891 --   328 o    0.858
   331   8 o    1.841 --   333 h    0.894   332 h    0.815
   332   1 h    0.876 --   331 o    0.815
   333   1 h    0.897 --   331 o    0.894
   334   8 o    1.840 --   335 h    0.860   336 h    0.840
   335   1 h    0.887 --   334 o    0.860
   336   1 h    0.886 --   334 o    0.840
   337   8 o    1.817 --   339 h    0.837   338 h    0.767
   338   1 h    0.871 --   337 o    0.767
   339   1 h    0.894 --   337 o    0.837
   340   8 o    1.832 --   342 h    0.856   341 h    0.851
   341   1 h    0.878 --   340 o    0.851
   342   1 h    0.889 --   340 o    0.856
   343   8 o    1.867 --   345 h    0.821   344 h    0.819
   344   1 h    0.892 --   343 o    0.819
   345   1 h    0.889 --   343 o    0.821
   346   8 o    1.800 --   347 h    0.869   348 h    0.834
   347   1 h    0.899 --   346 o    0.869
   348   1 h    0.890 --   346 o    0.834
   349   8 o    1.881 --   351 h    0.836   350 h    0.818
   350   1 h    0.885 --   349 o    0.818
   351   1 h    0.881 --   349 o    0.836
   352   8 o    1.833 --   354 h    0.894   353 h    0.816
   353   1 h    0.890 --   352 o    0.816
   354   1 h    0.906 --   352 o    0.894
   355   8 o    1.851 --   356 h    0.854   357 h    0.808
   356   1 h    0.899 --   355 o    0.854
   357   1 h    0.881 --   355 o    0.808
   358   8 o    1.832 --   359 h    0.838   360 h    0.826
   359   1 h    0.893 --   358 o    0.838
   360   1 h    0.877 --   358 o    0.826
   361   8 o    1.868 --   362 h    0.853   363 h    0.802
   362   1 h    0.893 --   361 o    0.853
   363   1 h    0.880 --   361 o    0.802
   364   8 o    1.800 --   365 h    0.870   366 h    0.816
   365   1 h    0.898 --   364 o    0.870
   366   1 h    0.882 --   364 o    0.816
   367   8 o    1.864 --   368 h    0.842   369 h    0.827
   368   1 h    0.890 --   367 o    0.842
   369   1 h    0.881 --   367 o    0.827
   370   8 o    1.824 --   371 h    0.894   372 h    0.812
   371   1 h    0.903 --   370 o    0.894
   372   1 h    0.877 --   370 o    0.812
   373   8 o    1.835 --   375 h    0.868   374 h    0.821
   374   1 h    0.877 --   373 o    0.821
   375   1 h    0.896 --   373 o    0.868
   376   8 o    1.832 --   377 h    0.894   378 h    0.796
   377   1 h    0.901 --   376 o    0.894
   378   1 h    0.871 --   376 o    0.796
   379   8 o    1.818 --   381 h    0.856   380 h    0.805
   380   1 h    0.877 --   379 o    0.805
   381   1 h    0.901 --   379 o    0.856
   382   8 o    1.848 --   383 h    0.892   384 h    0.807
   383   1 h    0.899 --   382 o    0.892
   384   1 h    0.874 --   382 o    0.807
   385   8 o    1.834 --   386 h    0.843   387 h    0.819
   386   1 h    0.898 --   385 o    0.843
   387   1 h    0.882 --   385 o    0.819
   388   8 o    1.842 --   390 h    0.900   389 h    0.767
   389   1 h    0.873 --   388 o    0.767   451 o    0.101
   390   1 h    0.905 --   388 o    0.900
   391   8 o    1.829 --   393 h    0.849   392 h    0.845
   392   1 h    0.888 --   391 o    0.845
   393   1 h    0.887 --   391 o    0.849
   394   8 o    1.815 --   395 h    0.834   396 h    0.814
   395   1 h    0.889 --   394 o    0.834
   396   1 h    0.875 --   394 o    0.814
   397   8 o    1.866 --   398 h    0.887   399 h    0.775
   398   1 h    0.901 --   397 o    0.887
   399   1 h    0.865 --   397 o    0.775
   400   8 o    1.865 --   401 h    0.864   402 h    0.819
   401   1 h    0.896 --   400 o    0.864
   402   1 h    0.881 --   400 o    0.819
   403   8 o    1.834 --   404 h    0.846   405 h    0.821
   404   1 h    0.891 --   403 o    0.846
   405   1 h    0.881 --   403 o    0.821
   406   8 o    1.858 --   407 h    0.860   408 h    0.815
   407   1 h    0.897 --   406 o    0.860
   408   1 h    0.878 --   406 o    0.815
   409   8 o    1.835 --   411 h    0.874   410 h    0.840
   410   1 h    0.884 --   409 o    0.840
   411   1 h    0.895 --   409 o    0.874
   412   8 o    1.881 --   413 h    0.789   414 h    0.789
   413   1 h    0.877 --   412 o    0.789
   414   1 h    0.872 --   412 o    0.789
   415   8 o    1.851 --   417 h    0.881   416 h    0.805
   416   1 h    0.876 --   415 o    0.805
   417   1 h    0.902 --   415 o    0.881
   418   8 o    1.870 --   419 h    0.897   420 h    0.812
   419   1 h    0.901 --   418 o    0.897
   420   1 h    0.879 --   418 o    0.812
   421   8 o    1.806 --   423 h    0.865   422 h    0.853
   422   1 h    0.888 --   421 o    0.853
   423   1 h    0.892 --   421 o    0.865
   424   8 o    1.847 --   425 h    0.876   426 h    0.846
   425   1 h    0.891 --   424 o    0.876
   426   1 h    0.879 --   424 o    0.846
   427   8 o    1.866 --   428 h    0.831   429 h    0.794
   428   1 h    0.889 --   427 o    0.831
   429   1 h    0.876 --   427 o    0.794
   430   8 o    1.822 --   432 h    0.874   431 h    0.803
   431   1 h    0.880 --   430 o    0.803
   432   1 h    0.898 --   430 o    0.874
   433   8 o    1.839 --   434 h    0.895   435 h    0.822
   434   1 h    0.900 --   433 o    0.895
   435   1 h    0.876 --   433 o    0.822
   436   8 o    1.835 --   437 h    0.893   438 h    0.807
   437   1 h    0.902 --   436 o    0.893
   438   1 h    0.874 --   436 o    0.807
   439   8 o    1.823 --   440 h    0.867   441 h    0.861
   440   1 h    0.889 --   439 o    0.867
   441   1 h    0.884 --   439 o    0.861
   442   8 o    1.853 --   444 h    0.898   443 h    0.810
   443   1 h    0.877 --   442 o    0.810
   444   1 h    0.903 --   442 o    0.898
   445   8 o    1.837 --   446 h    0.845   447 h    0.844
   446   1 h    0.890 --   445 o    0.845
   447   1 h    0.883 --   445 o    0.844
   448   8 o    1.805 --   449 h    0.863   450 h    0.831
   449   1 h    0.894 --   448 o    0.863
   450   1 h    0.886 --   448 o    0.831
   451   8 o    1.887 --   453 h    0.827   452 h    0.776   389 h    0.101
   452   1 h    0.869 --   451 o    0.776
   453   1 h    0.880 --   451 o    0.827
   454   8 o    1.800 --   456 h    0.856   455 h    0.830
   455   1 h    0.880 --   454 o    0.830
   456   1 h    0.893 --   454 o    0.856
   457   8 o    1.837 --   459 h    0.843   458 h    0.822
   458   1 h    0.885 --   457 o    0.822
   459   1 h    0.889 --   457 o    0.843
   460   8 o    1.860 --   461 h    0.873   462 h    0.805
   461   1 h    0.895 --   460 o    0.873
   462   1 h    0.878 --   460 o    0.805
   463   8 o    1.821 --   464 h    0.838   465 h    0.832
   464   1 h    0.887 --   463 o    0.838
   465   1 h    0.887 --   463 o    0.832
   466   8 o    1.853 --   467 h    0.834   468 h    0.799
   467   1 h    0.883 --   466 o    0.834
   468   1 h    0.882 --   466 o    0.799
   469   8 o    1.853 --   470 h    0.854   471 h    0.830
   470   1 h    0.884 --   469 o    0.854
   471   1 h    0.882 --   469 o    0.830
   472   8 o    1.806 --   473 h    0.893   474 h    0.819
   473   1 h    0.899 --   472 o    0.893
   474   1 h    0.881 --   472 o    0.819
   475   8 o    1.848 --   477 h    0.866   476 h    0.792
   476   1 h    0.868 --   475 o    0.792
   477   1 h    0.895 --   475 o    0.866
   478   8 o    1.846 --   480 h    0.839   479 h    0.826
   479   1 h    0.882 --   478 o    0.826
   480   1 h    0.882 --   478 o    0.839
   481   8 o    1.821 --   482 h    0.872   483 h    0.819
   482   1 h    0.895 --   481 o    0.872
   483   1 h    0.879 --   481 o    0.819
   484   8 o    1.846 --   486 h    0.875   485 h    0.840
   485   1 h    0.894 --   484 o    0.840
   486   1 h    0.895 --   484 o    0.875
   487   8 o    1.820 --   489 h    0.873   488 h    0.853
   488   1 h    0.886 --   487 o    0.853
   489   1 h    0.892 --   487 o    0.873
   490   8 o    1.840 --   491 h    0.830   492 h    0.824
   491   1 h    0.891 --   490 o    0.830
   492   1 h    0.882 --   490 o    0.824
   493   8 o    1.826 --   494 h    0.869   495 h    0.836
   494   1 h    0.892 --   493 o    0.869
   495   1 h    0.883 --   493 o    0.836
   496   8 o    1.841 --   497 h    0.844   498 h    0.822
   497   1 h    0.892 --   496 o    0.844
   498   1 h    0.877 --   496 o    0.822
   499   8 o    1.871 --   501 h    0.835   500 h    0.819
   500   1 h    0.881 --   499 o    0.819
   501   1 h    0.893 --   499 o    0.835
   502   8 o    1.862 --   504 h    0.837   503 h    0.829
   503   1 h    0.888 --   502 o    0.829
   504   1 h    0.883 --   502 o    0.837
   505   8 o    1.843 --   507 h    0.812   506 h    0.807
   506   1 h    0.878 --   505 o    0.807
   507   1 h    0.880 --   505 o    0.812
   508   8 o    1.795 --   509 h    0.885   510 h    0.836
   509   1 h    0.901 --   508 o    0.885
   510   1 h    0.890 --   508 o    0.836
   511   8 o    1.884 --   513 h    0.855   512 h    0.799
   512   1 h    0.881 --   511 o    0.799
   513   1 h    0.893 --   511 o    0.855
   514   8 o    1.836 --   516 h    0.902   515 h    0.833
   515   1 h    0.885 --   514 o    0.833
   516   1 h    0.906 --   514 o    0.902
   517   8 o    1.823 --   518 h    0.881   519 h    0.802
   518   1 h    0.895 --   517 o    0.881
   519   1 h    0.878 --   517 o    0.802
   520   8 o    1.827 --   522 h    0.850   521 h    0.843
   521   1 h    0.883 --   520 o    0.843
   522   1 h    0.897 --   520 o    0.850
   523   8 o    1.833 --   525 h    0.870   524 h    0.803
   524   1 h    0.871 --   523 o    0.803
   525   1 h    0.896 --   523 o    0.870
   526   8 o    1.804 --   528 h    0.842   527 h    0.834
   527   1 h    0.890 --   526 o    0.834
   528   1 h    0.891 --   526 o    0.842
   529   8 o    1.816 --   530 h    0.859   531 h    0.855
   530   1 h    0.893 --   529 o    0.859
   531   1 h    0.893 --   529 o    0.855
 ---------------------------------------------------------------------------

Topologies differ in total number of bonds
Writing topology from bond orders to xtbtopo.mol

molecular dipole:
                 x           y           z       tot (Debye)
 q only:       -0.704      -0.950       0.575
   full:       -1.201      -1.505       0.439       5.019
molecular quadrupole (traceless):
                xx          xy          yy          xz          yz          zz
 q only:      163.602      -7.048     -61.489      -8.289       6.304    -102.113
  q+dip:      197.891     -15.239     -78.635     -23.180      11.899    -119.257
   full:      199.768     -15.521     -80.464     -24.799      12.959    -119.303


           -------------------------------------------------
          | TOTAL ENERGY             -901.398943370038 Eh   |
          | GRADIENT NORM               0.100515460586 Eh/α |
          | HOMO-LUMO GAP               7.434554056189 eV   |
           -------------------------------------------------

------------------------------------------------------------------------
 * finished run on 2022/11/17 at 06:54:57.521     
------------------------------------------------------------------------
 total:
 * wall-time:     0 d,  0 h,  0 min,  8.344 sec
 *  cpu-time:     0 d,  0 h,  0 min, 13.490 sec
 * ratio c/w:     1.617 speedup
 SCF:
 * wall-time:     0 d,  0 h,  0 min,  7.577 sec
 *  cpu-time:     0 d,  0 h,  0 min, 12.275 sec
 * ratio c/w:     1.620 speedup

