531
 energy: -901.176908551216 gnorm: 0.030374767551 xtb: 6.5.1 (579679a)
o           -0.57816049676005       -2.72853764385442       -1.32469902609819
h            0.22680419095761       -2.60870662307172       -0.77351815573518
h           -0.41309480947447       -3.53250796166444       -1.84636778749926
o            0.83968824869620       -4.96192617204694        0.87139278005470
h            1.29074163094872       -4.15399977590387        0.57129020409761
h            1.42386106349852       -5.71656120803419        0.67299981436116
o            2.52266882115444        4.32914523265437        0.99087617126958
h            2.83094129235341        3.45023253509742        0.66148661142898
h            2.00635622015626        4.18592096504238        1.79062143837147
o            3.18125361115250       -0.67785156911099       -0.54771775718447
h            3.59823318056670       -0.66336484745470       -1.42963428726299
h            3.93608643862135       -0.60285668116898        0.06937214396363
o           -6.44801030057274       -0.22170368473111        6.56371339663800
h           -6.28666546314174        0.74588258579910        6.59808292114942
h           -5.89679621021231       -0.56190407256833        5.83551927759740
o            2.89147464853749       -4.55263799711982       -0.99741850706254
h            3.18073195010112       -3.80639562265392       -1.56389018600703
h            3.32031101155108       -5.33966134520192       -1.38076148189679
o           -3.33063080839409       -3.85757244200568        3.81641708202428
h           -3.30145161290084       -3.60884377158186        4.76039074584517
h           -2.43313151486146       -3.75086749650544        3.46961437429930
o            4.59942805877849       -3.35277824403924        4.84401436478664
h            4.36368676765014       -2.67787868785452        4.16798598520672
h            4.14515386582505       -3.06605041724062        5.64395544997041
o           -2.25217706604963       -2.92158961674349        0.71682535119531
h           -1.70367354473794       -3.26912939619958        1.44574805036775
h           -1.68562334921299       -2.89985754035954       -0.08183984350699
o            1.37813765084032        2.68956885446977        3.03556765176921
h            0.60597569757946        2.92684659515564        2.48435510180871
h            1.07400397445722        2.85290024881613        3.94986396894323
o           -1.13692261291965       -0.31994108391682       -2.31007691637793
h           -1.08021859178033       -1.25737395764439       -2.03893387133381
h           -1.82919661409258        0.11078336292199       -1.77297265420879
o            4.03221066960349        2.98446864790991        3.57642658888968
h            4.56470776589998        2.58267457948716        2.86025565823388
h            3.10208836759741        2.80832886165128        3.36328609086439
o           -1.04082927443470        4.00040103335471       -1.15732257782713
h           -0.69202813929540        4.18839964621262       -0.27488810099682
h           -0.90583773145901        4.78494068946746       -1.70200262209319
o           -4.30668692653844        3.17730869651864        4.48801993711468
h           -3.60567073237640        3.80149063350907        4.71014960770613
h           -4.93147412127236        3.64269351534134        3.89357101866592
o           -1.23059821402855       -0.31283566527596       -4.91610545519815
h           -1.31830392439189       -0.21546904740960       -3.93972705948348
h           -0.69833184591077       -1.13273107750836       -5.00815351185818
o           -0.73997440654733        5.52701398601971       -3.51244621452549
h           -0.84220392536282        4.87972516807331       -4.23174087119169
h            0.12058820231200        5.95077601690439       -3.63817153116138
o           -3.64514894211379        0.78136308430756       -3.67235936618904
h           -3.65717794039764       -0.12897165613454       -3.34822800506124
h           -4.44761908276319        1.22208877351836       -3.33844984546855
o            0.02866850034043       -2.61625819747135       -4.66042347671936
h            0.12169658970936       -3.13471754687035       -5.47420268291935
h           -0.56121197923218       -3.15358924771915       -4.09103542524597
o            2.68224944894863        0.52625888667531        2.08498047086182
h            2.11181996157171        1.20582649132698        2.47965225944536
h            2.92216592599001        0.86098340782043        1.21307531555422
o            3.65073699529537       -1.82917049039489        2.90591227109800
h            3.49089880722478       -0.91993790925083        2.59650839290351
h            3.90129202074971       -2.35448760105736        2.11777128231945
o           -3.34848377143749        5.86609760036076       -2.79841347477120
h           -2.40741613284716        5.91675983516064       -3.04250004982590
h           -3.74065301845303        5.31007116424741       -3.49999695558078
o            1.61512303795347       -1.04895449348097       -3.10834321641704
h            1.97309166214226       -0.33010985767332       -3.65371845741869
h            1.07142246489642       -1.60273865800280       -3.69464615522175
o            5.44016326597743        2.06903136784137        1.48119045847937
h            6.24044493892977        2.50008758634902        1.11411012373598
h            5.56281638729814        1.11089123113470        1.34526976218980
o            8.09194021975347       -1.39999060301311        0.08938110900749
h            8.96710805215785       -1.47974749961329       -0.35506504315792
h            8.23028689961826       -0.88904626651677        0.90265793285395
o           -5.31402752007992        0.14243623178521       -0.47675924396767
h           -4.97718700363109       -0.46754417632262        0.21968444281807
h           -5.70031266584178        0.90234907828270       -0.02159364689642
o            3.30295687696156        2.08174902936167       -0.07857336531018
h            3.44176927518286        2.37037835488341       -1.00319640312628
h            4.18449482857484        2.09973743769245        0.34826394768934
o           -5.00218622301188       -1.14412232755170        4.42286324405963
h           -4.07755277359658       -1.17271064919956        4.13120089541919
h           -5.43109159991923       -0.42931913796924        3.91588896959516
o           -3.29271444941144       -1.64128870992614       -5.95107447267671
h           -4.13979051062243       -1.15499775514264       -5.99691661142388
h           -2.63288530122868       -1.04272907025867       -5.53637270665154
o           -6.21063529489561        2.23117737969774       -5.39439468162377
h           -5.77939305330481        1.41527748239454       -5.69166951404364
h           -7.12453244660688        1.96822020559411       -5.22855776590989
o            7.40367519130855       -3.27325644391692        5.18357049248365
h            6.43739080925781       -3.31733288452745        5.10081579766119
h            7.77597400016812       -3.73195338266041        4.41595552990046
o            4.77421687166234       -5.37575433135340       -5.13741520176579
h            5.12281859991982       -4.46082445253761       -5.05043522243571
h            5.33810687824625       -5.83500477304548       -5.75798314569128
o           -9.65175429843857       -3.44347212052487       -0.46308163963641
h           -8.91104317125968       -4.00189551581606       -0.74748043935082
h           -9.68397921674901       -3.55335789792963        0.49840462675943
o           -2.85994989526248        1.05679032675389       -0.79186954753275
h           -3.76707019500237        0.68056317605934       -0.75972845691455
h           -2.97993883452983        2.00997461922050       -0.93190705984060
o            0.70730407147833       -4.83157706504051       -2.46670615954641
h            1.42235384113815       -4.67623189185306       -1.81051265332599
h            1.08728900762468       -4.63441875953217       -3.33543025734853
o            0.98665598726085       -1.98167761784590        2.96921907452435
h            1.94449945389523       -2.09345466627530        3.12507591906481
h            0.73740169708607       -1.14903353159608        3.41738190474511
o            4.12514462468139       -6.39120900994256       -2.55918683636623
h            4.91877118535098       -6.22434919702320       -2.02295120641666
h            4.34178118608217       -6.08993590839386       -3.45268212307035
o            3.12922551727951        0.35392484136363        4.89232172570453
h            2.33215829062912        0.37870642856448        4.33561355865450
h            3.91438813563460        0.44633087639057        4.31726603655684
o           -6.99618057401491       -2.24663171696413        0.35717458766231
h           -6.56744010699208       -2.65858822394388        1.11650966211349
h           -6.32976046124330       -2.30466034098023       -0.35856412483322
o            5.77569840984773        1.98910177245710       -1.62090923441683
h            5.59886461235387        2.83797575150112       -1.17131585722856
h            6.67879843666076        1.70589834243176       -1.37145507276064
o           -1.84467737285643        2.67108629718438       -3.36136992774222
h           -2.36388536628568        1.84767518217821       -3.32903699864157
h           -1.88044202783816        3.08506330027689       -2.48497137485158
o            4.39071742744232       -3.35546537428994        0.87400508641258
h            3.73727207556678       -3.89885423507591        0.39865962681355
h            4.97070012063292       -2.98571927539355        0.17707685877138
o            2.77742608531869       -1.84108213698998        6.35762436145825
h            2.94925159747708       -1.08926536904095        5.74760880015381
h            2.05208514101369       -1.53635563166125        6.91093352412383
o            5.85646127215491        0.33456773705978        6.57723475228372
h            5.52964957377558        1.26223033999389        6.55005890240478
h            5.16507959669894       -0.19250378334007        6.98085575673652
o           -2.33095466244069       -0.93726699834334        3.63088644383701
h           -1.67878761174676       -1.40600442885482        4.18632184130542
h           -1.87889322008191       -0.55273786471878        2.86137811292949
o            0.77062696270366        2.84876037780039       -3.08311039495801
h           -0.17689300608846        2.73548494251000       -3.31064147214856
h            0.81117194274164        3.62140400871663       -2.48908366617028
o           -0.18176616543627        6.78523537218569       -0.81177287118636
h           -0.16922903859957        7.56786097427608       -1.36144388718908
h            0.24083624155612        7.04199908876418        0.05310218917313
o           -4.22939955770856       -4.66734631357734        0.20645555614540
h           -4.34869878004073       -5.23699687412680        0.98335464186708
h           -3.40642185996235       -4.16037959981217        0.37093752128542
o           -6.27368960664564        0.88909238061281        3.18014402505551
h           -6.87477279847861        0.49031830950959        2.51838846525122
h           -6.79218929224045        1.59411926460246        3.60697881305528
o            8.85934260425629        2.30827522704494       -3.90514585849218
h            7.92808230735561        2.04131706311241       -4.09565492881702
h            9.25643996211481        2.54683305671221       -4.74186161236397
o           -2.79044123601093        1.79354307810014       -6.10007847735255
h           -3.13965418511198        1.38428960636951       -5.28796320639854
h           -2.29568732611312        1.10649868374232       -6.54959484514771
o           -8.03864832059786       -0.14642196651516        1.49806840471373
h           -8.79522964860440       -0.51393886191845        1.98565437637672
h           -7.65828548128675       -0.88739000927069        0.96910966448899
o            2.35097680408336        1.91364727485754        6.89099899047358
h            2.67631488409931        1.35114809594424        6.15040849418296
h            1.72038262468800        1.35812944459689        7.35641243799347
o           -7.89485437503838        0.97187033213285       -1.97712845806767
h           -8.28328557310123        1.40882173529391       -1.20275979001164
h           -7.99771531199560        0.00624016192101       -1.84458334436485
o           -3.78805205735556        1.32274652837964        2.36915128389688
h           -4.69521264699196        1.39690492349901        2.71471360243665
h           -3.73544026853670        0.41650483055797        2.01806562476982
o            8.25990593117038       -0.75826174945050        5.43443296230912
h            7.62639755374535       -0.34177153239162        6.02989536476388
h            7.97593937371551       -1.69933542424091        5.39239949600884
o            8.16630567595429        0.96584030139214       -1.30513268981365
h            8.08818465350208        0.22839433331044       -0.67714278647654
h            8.96902593718033        1.46917198659443       -1.07712021196819
o          -10.08519936312461        2.82496587860807        2.52227245229112
h           -9.55655890997077        2.75806002051533        1.70514594020136
h          -10.77263809704639        2.15683602859523        2.41921651985218
o            2.73078719694553        1.14716836536904       -4.32451205918446
h            1.88548091647071        1.38766264925649       -4.77029626322577
h            2.94000463543515        1.91142013616417       -3.74580414977528
o           -3.20429968711430       -3.20889583058813        6.47803914858657
h           -4.03704955325434       -3.68923738682360        6.56276180622626
h           -3.39451273636724       -2.32131907593492        6.86668166152929
o            3.44985236463269        6.74176762901868        0.37416200368613
h            4.27110023963982        6.89543721596177        0.85093093985298
h            3.18642715897281        5.82386361737921        0.60089358635081
o           -5.66450395666410        2.27257827795685       -2.51820605656802
h           -6.06503164660437        2.99866697649225       -3.04351674873162
h           -6.38464159345172        1.61979999781969       -2.39481165121638
o           -7.94036648451629        2.79648773145020        4.13743318354103
h           -7.40153872680695        3.53801351975323        3.80570062151810
h           -8.78849208722971        2.86394234059183        3.65185651899166
o           -5.31656796764449        5.24870457924065        0.63420870516024
h           -5.72845814883058        5.62360996005783       -0.17416425814143
h           -4.40321296688285        5.56573479252742        0.60655898552507
o           -6.10479710591509        2.72913167459907        0.17496390406753
h           -5.96970444414841        2.69784002570213       -0.78868155332845
h           -5.74597850900481        3.59392134986656        0.45441252904120
o            5.52117972356106       -0.48808028091756        0.69838391080616
h            5.94424677291012       -0.88469277142093       -0.07698675625719
h            5.89193169796408       -0.98630557029335        1.45402930259954
o            3.76795721251997        5.67044990821211        3.41747462763692
h            4.48607532469486        6.03512807837839        2.89095754698543
h            3.96779000948035        4.72082676421581        3.52529538373348
o            5.71529674385133       -2.41393545364212       -1.24392378729227
h            4.98335799275860       -2.45746565160375       -1.87422358791509
h            6.44822634695252       -2.91308559483226       -1.62703785174826
o           -0.34527722856615        4.06657837911486        1.50126333621694
h           -0.17394648626188        4.81879465312627        2.08033066349316
h           -1.28996500442074        3.82350601916627        1.58775905479248
o            0.32379337355930       -0.25909255716213        6.85986579766194
h           -0.19432988047078       -1.02468413223262        6.52934046682679
h           -0.32112754460697        0.44536477518034        7.03570352834830
o           -4.11898027135302       -1.18830068985316        1.39337631532658
h           -3.35336899708406       -1.73014980878179        1.11221924141158
h           -4.69170427701727       -1.80591824235242        1.88208617148549
o            5.54102607751965       -2.86532811336329       -4.68722833253262
h            5.79490126056627       -2.01679885798716       -5.11587366996410
h            4.83985934607218       -2.63887777117259       -4.04654929777293
o           -5.58524607671703       -3.11619076638885        2.57122062894957
h           -6.21362309761815       -2.77173494764647        3.24178002443738
h           -4.77861000905450       -3.37658444543048        3.06341074488598
o            3.50503852611307       -2.81273834744260       -2.88899276666800
h            3.10205578590041       -3.46086023771175       -3.50567280365382
h            2.85146503544967       -2.06303787649760       -2.89314940708200
o            3.93790649495237        0.83379240574317       -6.73096531562096
h            3.53182375052763        0.93352882459003       -5.84364570324391
h            3.23163883407793        0.50400393844018       -7.29585082011247
o           -8.62232946954559        0.77805142031484       -4.50394516993700
h           -8.21386387844199        0.87119102717367       -3.61697244932773
h           -8.38185623045583       -0.11774959937578       -4.80569446264180
o            7.22273612189568       -0.65958016080629       -3.19416929565462
h            6.27765243167803       -0.57577094598168       -2.98512518064862
h            7.69250064311238       -0.02387210948521       -2.63021918807590
o            8.00789270955148       -4.05210132415776        0.39610002365096
h            7.85214049920136       -3.08365487870759        0.33941056271042
h            8.73818925249640       -4.22019340736310       -0.21710854575734
o          -10.39061327248934       -2.58861954513569       -3.19961195964915
h          -10.86173033338081       -1.74455457584530       -3.16894069689480
h          -10.63904186574081       -3.08920297629295       -2.41545643990121
o            0.51248449725302        0.32067258204874        4.19933509949803
h            0.41277573830370        0.16108602955475        5.15504116443045
h           -0.16343685453681        0.97462168557728        3.93639452139293
o            4.57967761771101       -0.12631753018070       -2.72064053298710
h            4.89535918852319        0.66354967273782       -2.23782251198141
h            4.04693733703716        0.20282634998232       -3.45474289637885
o            0.64493164126510        3.47665910524553        5.51729188002211
h           -0.11973646009125        2.96325479537768        5.84316373408863
h            1.38659178585590        3.12030823110695        6.04476722368399
o            6.27616277751580        1.80274212704672       -4.25402956102364
h            5.68726067905245        2.37815635736139       -4.77869100534703
h            6.03445318224112        1.93256489240234       -3.31279285204855
o            1.46624410126601       -2.44968802352500        0.32977800100434
h            1.26594238024968       -2.19980802840833        1.25034183799707
h            2.16060413084572       -1.84125937687339        0.00377731054940
o           -8.15021832984687       -1.63820304551211       -2.07016181053630
h           -8.89095153012379       -2.04188937195966       -2.55859031852149
h           -8.05588963949826       -2.10400415169664       -1.22995415358871
o           -6.99450715487030        4.31496320887017       -3.58992552643711
h           -6.66590148145732        4.37923683940718       -4.48985532924416
h           -7.94029581702259        4.04556930456393       -3.65352946143650
o            1.81055892642179        6.67043968883630       -3.84763317192771
h            1.94434220300944        7.43387145350737       -4.40757634587813
h            2.57600057310619        6.65953604864763       -3.21342975466759
o            8.61818683012974        0.82169238256569        1.54649358932104
h            9.54060278435068        0.62928390361691        1.29007140551103
h            8.67717617975700        0.99274355579638        2.50613992028778
o           10.16353790085675       -0.12729744208956       -3.39434612198228
h            9.76048625915075       -0.62819839421781       -4.12851096716886
h            9.73260362603766        0.74191896466669       -3.40389895379627
o            5.94985322939022        6.23389949023705        1.62763006239319
h            6.35216440646500        6.49567703305022        0.78772894491681
h            6.65616629206066        5.78313754995743        2.11447615562523
o            7.67241923437564        3.12044270659453        0.50674673018575
h            7.90420159087133        3.79488725282156        1.16525908049045
h            8.14977045048807        2.30443913630112        0.77058914090712
o            2.12236720829298       -7.25522819668104        0.32196844222874
h            1.73160616634659       -7.51858065274816       -0.53654126582107
h            1.61844726454544       -7.63538168311193        1.06661355764283
o            6.72652064853319       -1.73313710970463        2.70690383666122
h            7.69134908241919       -1.64582768160476        2.78401438600723
h            6.53239289114365       -2.69838450065202        2.70567679717502
o            0.97309894431890       -7.42676047836715        2.71883027295501
h            0.01637802678058       -7.28543420617856        2.72887490862295
h            1.37332759448688       -6.63034284195632        3.08687623210885
o          -10.18961601773726       -0.63364699821224       -0.34852302026479
h          -10.02265853162727       -1.58721284274325       -0.35146737909198
h          -10.35991283413791       -0.37561442475140       -1.27223327226578
o           -7.67794204626305       -2.39837873678564        4.02925044757813
h           -7.94093127076393       -1.50767038242288        4.30732343727898
h           -8.40613165030389       -2.77863056750705        3.52947049124626
o           -7.21873928626665       -5.11471417797187        1.77368479534262
h           -6.54062668157988       -4.45761765503556        2.03112366685830
h           -8.06418429202848       -4.72965309419649        2.01944217394227
o           -0.37124270275721       -4.32104288140648       -6.76393169196214
h           -1.30821392782753       -4.46339934139881       -6.52085772401387
h            0.02993584192279       -5.18553508860138       -6.84480491335908
o            5.89971847374142       -5.44299415981506       -0.72698021965269
h            6.66702408635301       -4.97772465398146       -0.35479667628274
h            5.35416257445677       -5.67044860171220        0.04277767463115
o           -5.65400159633822       -0.45170423449242       -5.66821587601983
h           -5.66238874596032       -0.47514478351742       -4.68548385439473
h           -6.43321193584535       -0.95158545841461       -5.92946819748157
o           -1.72761225321724       -6.64698406171208       -2.40264452918962
h           -1.65081831584171       -6.32499648318547       -1.46840572596537
h           -0.98585607803522       -7.23743143373225       -2.54439563383861
o            9.47133259917753       -1.66692602974767        2.97060009739640
h            9.46715989806478       -2.63996366137184        3.01034440480924
h            9.42825206197463       -1.35296488907594        3.88075802075445
o            2.75904446942396       -4.94139556665205        3.34376654827490
h            3.23547906282190       -5.28784187670954        2.57166203860895
h            3.42988920568521       -4.52686360741095        3.90504523720134
o           -4.42904910168561       -6.03652925764850        2.60816582792226
h           -5.37219452438383       -6.16865863189004        2.72561170442597
h           -4.15435311017136       -5.30518504810036        3.19479607559620
o           -5.21928100957065       -2.84383378575740       -1.49442718115157
h           -4.47617443161346       -2.46354532013948       -2.00830353177568
h           -4.86889707787790       -3.56439076900622       -0.94333722488017
o           -5.73361955785167       -3.58437180895273        5.62854042730047
h           -5.48703677702908       -2.72053664409683        5.26005579588762
h           -6.69093970133403       -3.57598680583055        5.65524284472307
o            9.77920001721455       -4.12547683615046       -1.74320873647003
h           10.22066144905699       -4.81834987626784       -2.23249311867579
h            9.01350775565330       -3.83659776225151       -2.28674101114306
o            6.89820146950515        2.77682626107419        4.23602313039400
h            6.39615864218299        2.00155745200152        3.89439818518895
h            6.43858862614646        3.04520729617464        5.03861622483176
o           -8.58903948823433        0.06074137526466        5.00745435892284
h           -7.93338160966431       -0.09689900301017        5.72927966995408
h           -8.48435707604631        0.99173758858968        4.77838150157589
o           -2.98125062320846        3.62970018344732        1.37800255075271
h           -3.20565938898831        3.69106870475370        0.43476624676341
h           -3.34301779184477        2.78089077509711        1.70855429488519
o          -10.79871667112702        0.18801607665627       -2.89386833071559
h          -10.10363903431400        0.36348806897664       -3.55942294786712
h          -11.01609253105937        1.05231786406902       -2.51908533768677
o           -9.75995422780033       -3.53574033636436        2.35287901830698
h          -10.02861341657456       -2.60753470608060        2.52334680879154
h          -10.44498655804501       -4.09326339863912        2.72293348817439
o           -9.45715884399257        3.36162180421882       -3.80632168586055
h           -9.33762514058231        2.52794028356490       -4.27854561474931
h           -9.88924163460541        3.14256895124144       -2.96506854750945
o            7.69626711646281       -3.18642137107325       -3.09540229931779
h            7.66178897306196       -2.19186336494551       -3.04036481412406
h            6.96309722778422       -3.39164305603349       -3.69974802204805
o           -1.72713157966187       -6.62219256901236        2.60189837340349
h           -1.53079018267794       -5.73823049882374        2.94166647088108
h           -2.68202702076947       -6.73819034935051        2.68855645906386
o           -1.79653930772211       -4.17436269181462       -3.49220025260406
h           -2.21390500420018       -4.34037323631298       -4.36467552595837
h           -1.71416833246438       -5.05235329205742       -3.06932440273693
o           -2.81294542432316        6.45182265891882       -0.08728619040187
h           -3.21486262793463        6.51805337887414       -0.96008113822653
h           -1.85511117618810        6.46603859010006       -0.26334966056733
o            3.42877863268807        3.06750261160638       -2.56637268639925
h            4.25904822805821        3.53343413257842       -2.78155437163561
h            2.80641979232848        3.77296858585530       -2.33109074472831
o            2.79886249852969       -1.92925707910942       -5.72653090930918
h            2.22214265253619       -1.38132151054497       -6.30434681300121
h            3.68854508098787       -1.83920743916375       -6.07062992828454
o           -1.54884460400254       -5.68736630564267        0.01723030550130
h           -1.74710944370848       -6.21953592636959        0.80223121097111
h           -0.64233177550625       -5.35498922587978        0.17008418702025
o            6.11126623861465       -0.50228265349967       -5.77945611869902
h            5.41645568337733       -0.06990613491441       -6.30710538174516
h            6.32041974341016        0.14763349830285       -5.08229039048028
o           10.41439180208343       -1.49474547812178       -1.15119194489569
h           10.44887829868361       -2.42489190712564       -1.41661992397004
h           10.34991546786517       -0.96405168235789       -1.98440952439243
o           -4.46772794659743       -6.12901901066766       -2.07358702921888
h           -3.61321929427601       -6.53971888856392       -2.25695681570611
h           -4.32536408010538       -5.62734400951138       -1.24764256894716
o           -6.13804957442960        4.61160219244912        3.15320168225532
h           -5.87425290360402        5.40448486898773        3.65444021495182
h           -5.94947099612552        4.83621672521018        2.22474742039428
o           -8.07589073394235       -1.84864773728768       -5.09144812003036
h           -8.96198354333362       -2.21594817701062       -5.10616139536521
h           -7.56132579358238       -2.45393360633114       -4.51555545815980
o           -3.80067161028510       -0.78394671326754        7.41400402575059
h           -3.57022010186535       -0.16362410131950        6.69886225939942
h           -4.76058758042673       -0.72154819475699        7.50738982618632
o          -11.59624421453477        0.65580144685671        1.48635698730003
h          -12.51481076811282        0.58692767004678        1.22912808246514
h          -11.06599831532900        0.24343245071526        0.75997976689107
o            2.15519825824709        4.18661472937835       -5.03519660634906
h            1.65063057025923        3.63198880403453       -4.41144242951947
h            2.07727603207658        5.09034835253235       -4.69524921198839
o            7.96400194872303        4.67535284363472        2.70236930968222
h            8.84507329028022        4.81487388249000        3.04974497145376