 Entering Gaussian System
 *********************************************
 Gaussian 98:
 frequency output generated by the xtb code
 *********************************************
                         Standard orientation:
 --------------------------------------------------------------------
  Center     Atomic     Atomic              Coordinates (Angstroms)
  Number     Number      Type              X           Y           Z
 --------------------------------------------------------------------
    1          1             0        1.566944    2.295077   -0.188634
    2          6             0        0.524500    2.041305   -0.351497
    3          1             0       -0.094325    2.832961    0.056960
    4          1             0        0.346271    1.987059   -1.420528
    5          6             0        0.198722    0.702836    0.304497
    6          1             0        0.283940    0.805982    1.390746
    7          6             0       -1.243301    0.295836   -0.016730
    8          1             0       -1.328448    0.063321   -1.079661
    9          1             0       -1.904318    1.135315    0.207214
   10          6             0        1.179190   -0.362607   -0.168673
   11          1             0        0.948195   -1.331763    0.262827
   12          1             0        2.185211   -0.090906    0.126844
   13          1             0        1.144079   -0.443704   -1.250399
   14          7             0       -1.728111   -0.866186    0.734886
   15          1             0       -1.167876   -1.678871    0.493439
   16          1             0       -1.563193   -0.706997    1.729906
   17          8             0       -2.611375    3.607449   -0.343487
   18          1             0       -2.716467    4.539786   -0.535749
   19          1             0       -2.156876    3.542860    0.526678
   20          8             0       -4.249521    0.220281   -2.263977
   21          1             0       -4.133489   -0.516638   -1.618728
   22          1             0       -4.803472   -0.113920   -2.969419
   23          8             0       -2.233736   -3.410076   -1.627522
   24          1             0       -1.687893   -3.639399   -0.852146
   25          1             0       -2.994447   -2.920714   -1.283247
   26          8             0       -2.538339    1.623829    3.473997
   27          1             0       -1.947291    0.866612    3.610554
   28          1             0       -3.326342    1.257274    3.022309
   29          8             0       -3.996863   -1.657573   -0.380515
   30          1             0       -3.146331   -1.368483    0.074941
   31          1             0       -4.694040   -1.543350    0.270600
   32          8             0       -0.574737   -2.007185   -3.105031
   33          1             0       -1.221138   -2.492147   -2.528982
   34          1             0       -0.639255   -2.425533   -3.965073
   35          8             0        2.082379   -2.535231   -2.561319
   36          1             0        1.126698   -2.349570   -2.596472
   37          1             0        2.430452   -2.119583   -3.373317
   38          8             0        4.116000   -1.724544   -0.808727
   39          1             0        3.451665   -1.977880   -1.470984
   40          1             0        4.264792   -0.760701   -0.929618
   41          8             0        2.513441   -0.872898   -4.667076
   42          1             0        1.618424   -0.600731   -4.892530
   43          1             0        2.889744   -0.111268   -4.199226
   44          8             0        4.247020    0.938435   -1.136592
   45          1             0        3.935358    1.429684   -0.359073
   46          1             0        3.632736    1.148022   -1.857354
   47          8             0        1.310819    3.164944    2.787917
   48          1             0        0.432921    3.222253    2.376045
   49          1             0        1.942083    2.912653    2.091607
   50          8             0       -1.401725    3.485372    2.070688
   51          1             0       -1.560471    4.265943    2.604154
   52          1             0       -1.820807    2.732570    2.589085
   53          8             0       -4.883519    2.026142   -0.236699
   54          1             0       -4.785222    1.465670   -1.022041
   55          1             0       -4.141521    2.651865   -0.271634
   56          8             0        0.003286    0.650463   -3.683338
   57          1             0       -0.744778    1.217082   -3.412995
   58          1             0       -0.230888   -0.246437   -3.394296
   59          8             0        1.419442    1.048863    4.337401
   60          1             0        1.547330    1.321311    5.245732
   61          1             0        1.358094    1.882869    3.797102
   62          8             0        3.444528    2.181064    1.253279
   63          1             0        4.212914    2.676892    1.539412
   64          1             0        3.454850    1.343134    1.788682
   65          8             0       -0.708349   -0.466826    3.502707
   66          1             0       -0.313232   -1.346206    3.357216
   67          1             0        0.023053    0.066541    3.857465
   68          8             0        2.493595    1.515619   -3.231017
   69          1             0        2.544933    2.392493   -3.611573
   70          1             0        1.551299    1.235751   -3.301805
   71          8             0       -0.594782   -3.955369    0.505502
   72          1             0       -0.850033   -4.825842    0.814548
   73          1             0        0.318970   -4.066087    0.109618
   74          8             0        0.613093   -2.731260    2.722123
   75          1             0        0.102177   -3.155319    2.014743
   76          1             0        1.504759   -2.605959    2.371211
   77          8             0        3.424237    0.017370    2.757006
   78          1             0        3.218230   -0.830521    2.331338
   79          1             0        2.701872    0.211213    3.378832
   80          8             0        3.195983   -2.474063    1.468537
   81          1             0        3.921083   -2.930175    1.898282
   82          1             0        3.577025   -2.117040    0.601562
   83          8             0        1.851375   -4.176586   -0.341796
   84          1             0        2.361373   -3.664659    0.308235
   85          1             0        2.014669   -3.749809   -1.198370
   86          8             0       -2.147594    2.029671   -2.727255
   87          1             0       -2.881438    1.402951   -2.638692
   88          1             0       -2.172111    2.576143   -1.930319
   89          8             0       -4.306190    0.406353    1.828174
   90          1             0       -3.509736    0.017076    1.450638
   91          1             0       -4.642898    1.037777    1.155213
 --------------------------------------------------------------------
     1 basis functions        1 primitive gaussians
     1 alpha electrons        1 beta electrons
 
 Harmonic frequencies (cm**-1), IR intensities (km*mol⁻¹),
 Raman scattering activities (A**4/amu), Raman depolarization ratios,
 reduced masses (AMU), force constants (mDyne/A) and normal coordinates:
                      1                      2                      3
                        a                      a                      a 
 Frequencies --    24.9954                32.9056                34.3889
 Red. masses --    13.9196                13.8824                14.0770
 Frc consts  --     0.0000                 0.0000                 0.0000
 IR Inten    --     3.6591                 0.6085                 0.2978
 Raman Activ --     0.0000                 0.0000                 0.0000
 Depolar     --     0.0000                 0.0000                 0.0000
 Atom AN      X      Y      Z        X      Y      Z        X      Y      Z
   1   1     0.00   0.01   0.01    -0.00  -0.04  -0.00    -0.02  -0.01  -0.02
   2   6     0.01   0.02   0.04    -0.03  -0.10   0.05    -0.06  -0.03  -0.02
   3   1     0.00   0.01   0.01     0.01  -0.03   0.03    -0.01  -0.01   0.00
   4   1     0.00   0.01   0.01    -0.03  -0.02   0.02    -0.03  -0.01  -0.00
   5   6     0.01   0.02   0.04    -0.03  -0.11   0.03    -0.05  -0.03  -0.00
   6   1    -0.00   0.01   0.01     0.01  -0.04   0.01     0.00  -0.01  -0.00
   7   6     0.02   0.01   0.01    -0.05  -0.07   0.07    -0.07  -0.00   0.08
   8   1     0.01   0.00   0.00    -0.03  -0.02   0.02    -0.04  -0.00   0.02
   9   1     0.00  -0.00   0.00    -0.00  -0.01   0.03    -0.02   0.00   0.03
  10   6     0.03   0.03   0.06    -0.07  -0.12  -0.04    -0.09  -0.04  -0.06
  11   1     0.01   0.01   0.02    -0.02  -0.04  -0.02    -0.02  -0.01  -0.01
  12   1     0.01   0.01   0.02    -0.01  -0.04  -0.02    -0.02  -0.01  -0.04
  13   1     0.02   0.01   0.02    -0.04  -0.03  -0.01    -0.05  -0.01  -0.02
  14   7     0.03  -0.01  -0.01    -0.07  -0.05   0.10    -0.05   0.00   0.12
  15   1     0.01  -0.00  -0.01    -0.02  -0.02   0.03    -0.02  -0.00   0.02
  16   1     0.01  -0.01  -0.00    -0.02  -0.01   0.03     0.01   0.00   0.03
  17   8     0.07   0.01  -0.08     0.02  -0.01  -0.20    -0.09  -0.03   0.02
  18   1     0.00   0.00  -0.02     0.02  -0.01  -0.07    -0.06  -0.01   0.01
  19   1     0.01   0.01  -0.02     0.01   0.01  -0.05    -0.01   0.00   0.00
  20   8     0.26  -0.10  -0.15    -0.14  -0.13   0.17     0.26  -0.19  -0.16
  21   1     0.05  -0.02  -0.03    -0.03  -0.02   0.05     0.04  -0.04  -0.03
  22   1     0.07  -0.02  -0.04    -0.04  -0.04   0.05     0.07  -0.05  -0.04
  23   8    -0.13  -0.24   0.16    -0.02   0.09  -0.02     0.01   0.15  -0.10
  24   1    -0.02  -0.05   0.04    -0.00   0.01  -0.01    -0.00   0.03  -0.02
  25   1    -0.03  -0.05   0.04    -0.00   0.01   0.01    -0.00   0.02  -0.02
  26   8     0.02   0.02  -0.06     0.16   0.19  -0.12     0.05   0.10   0.06
  27   1     0.00   0.00  -0.01     0.03   0.04  -0.02     0.02   0.03   0.02
  28   1     0.00   0.01  -0.01     0.03   0.05  -0.02     0.01   0.01   0.03
  29   8     0.02  -0.00  -0.02    -0.09  -0.09   0.20    -0.04  -0.01   0.05
  30   1     0.01  -0.00  -0.01    -0.02  -0.02   0.05    -0.02  -0.00   0.02
  31   1     0.00   0.02  -0.01    -0.02  -0.03   0.05    -0.02   0.02  -0.00
  32   8    -0.26  -0.08   0.16     0.10  -0.09  -0.07     0.03   0.15  -0.09
  33   1    -0.05  -0.04   0.04     0.02  -0.00  -0.01     0.01   0.04  -0.02
  34   1    -0.07  -0.00   0.03     0.02  -0.03  -0.01     0.00   0.04  -0.02
  35   8    -0.19   0.10  -0.03     0.14   0.01  -0.12    -0.02  -0.05  -0.05
  36   1    -0.05   0.00   0.01     0.03  -0.01  -0.03    -0.00   0.00  -0.02
  37   1    -0.07   0.04  -0.01     0.04   0.03  -0.01     0.01  -0.00  -0.00
  38   8    -0.08   0.02  -0.10     0.04  -0.01  -0.01    -0.07  -0.10   0.02
  39   1    -0.03   0.02  -0.02     0.02  -0.01  -0.01    -0.01  -0.02   0.00
  40   1    -0.01   0.01  -0.02     0.00  -0.00  -0.00    -0.01  -0.03   0.00
  41   8    -0.36   0.21   0.02     0.15   0.29   0.09     0.15   0.05   0.06
  42   1    -0.10   0.12   0.13     0.03   0.07   0.04     0.04   0.01  -0.00
  43   1     0.02   0.02  -0.03     0.05   0.07   0.03     0.03   0.01   0.02
  44   8     0.02   0.03   0.02    -0.03  -0.00   0.03    -0.00  -0.11  -0.01
  45   1     0.01   0.00   0.01     0.00  -0.01   0.02     0.00  -0.02  -0.01
  46   1     0.01   0.03   0.01    -0.01   0.02   0.01     0.01  -0.01  -0.01
  47   8     0.01  -0.00   0.03     0.02  -0.01   0.00     0.02   0.06  -0.08
  48   1     0.00   0.00   0.00     0.01   0.01  -0.01     0.00   0.01  -0.01
  49   1     0.01   0.00   0.01     0.01  -0.01   0.01    -0.00   0.01  -0.02
  50   8     0.02   0.04  -0.05     0.09   0.16  -0.20     0.00   0.07  -0.02
  51   1     0.00   0.01  -0.01     0.02   0.05  -0.06     0.01   0.02  -0.01
  52   1     0.00   0.01  -0.01     0.03   0.04  -0.04     0.00   0.02   0.00
  53   8     0.15  -0.11  -0.18    -0.06   0.11  -0.02     0.19  -0.43   0.05
  54   1     0.05  -0.03  -0.04    -0.02   0.01   0.01     0.06  -0.09  -0.00
  55   1     0.03  -0.02  -0.04    -0.01   0.02  -0.02     0.02  -0.08   0.01
  56   8     0.10  -0.17   0.14     0.05  -0.08   0.01     0.08   0.15  -0.08
  57   1     0.03  -0.02   0.00     0.00  -0.03  -0.00     0.02   0.04  -0.02
  58   1    -0.01  -0.03   0.05     0.02  -0.02  -0.01     0.02   0.04  -0.02
  59   8    -0.00  -0.03   0.00    -0.02  -0.01   0.01     0.08   0.11  -0.01
  60   1     0.00  -0.01   0.00     0.00  -0.00   0.00     0.03   0.04  -0.01
  61   1     0.00  -0.00   0.00    -0.00  -0.01  -0.00     0.01   0.02  -0.01
  62   8     0.03  -0.00   0.06     0.01  -0.07   0.05    -0.02  -0.01  -0.09
  63   1     0.01  -0.00   0.02     0.00  -0.02   0.02    -0.01  -0.00  -0.02
  64   1     0.01  -0.00   0.01    -0.00  -0.02   0.01    -0.01  -0.00  -0.02
  65   8    -0.00  -0.01  -0.00    -0.03  -0.02   0.08     0.05   0.10   0.09
  66   1     0.00  -0.00  -0.00    -0.01  -0.00   0.01     0.00   0.02   0.02
  67   1    -0.00  -0.00   0.00    -0.01  -0.01   0.02     0.02   0.02   0.02
  68   8     0.03   0.28   0.12    -0.07   0.28   0.16     0.08   0.09  -0.00
  69   1    -0.05   0.09   0.08    -0.05   0.08   0.07     0.03   0.03   0.01
  70   1     0.02   0.02   0.04    -0.00   0.03   0.03     0.02   0.03  -0.01
  71   8     0.00  -0.09   0.09     0.02  -0.01  -0.07    -0.12   0.09  -0.01
  72   1     0.02  -0.03   0.03     0.01  -0.01  -0.03    -0.04   0.03  -0.00
  73   1    -0.01  -0.01   0.01     0.00   0.00  -0.02    -0.03   0.01  -0.00
  74   8     0.04   0.00   0.00    -0.01   0.01  -0.06    -0.10   0.03   0.03
  75   1     0.01  -0.01   0.01    -0.00  -0.00  -0.01    -0.03   0.01   0.01
  76   1     0.01  -0.00  -0.00    -0.00  -0.00  -0.01    -0.03   0.00   0.01
  77   8     0.01  -0.04   0.01    -0.04  -0.09   0.02    -0.03   0.00  -0.07
  78   1     0.00  -0.01  -0.00    -0.01  -0.02   0.00    -0.02   0.00  -0.01
  79   1    -0.00  -0.01   0.00    -0.01  -0.02   0.00     0.00   0.01  -0.01
  80   8     0.02  -0.00  -0.07    -0.00  -0.06  -0.05    -0.13  -0.03   0.01
  81   1     0.01  -0.00  -0.03    -0.00  -0.02  -0.01    -0.04  -0.01   0.01
  82   1    -0.00   0.00  -0.02     0.00  -0.01  -0.01    -0.03  -0.01   0.00
  83   8    -0.04   0.02  -0.06     0.02   0.00  -0.11    -0.14  -0.01  -0.01
  84   1    -0.00   0.00  -0.02     0.00  -0.00  -0.02    -0.03  -0.00  -0.00
  85   1    -0.02   0.01  -0.01     0.01  -0.00  -0.03    -0.03  -0.01  -0.00
  86   8     0.15   0.04  -0.10    -0.07  -0.24  -0.02     0.07   0.09  -0.03
  87   1     0.05   0.00  -0.03    -0.02  -0.06   0.01     0.03   0.00  -0.02
  88   1     0.03   0.01  -0.02    -0.02  -0.04  -0.02     0.00   0.01   0.00
  89   8     0.03  -0.01  -0.06    -0.02   0.23   0.06     0.02  -0.19   0.29
  90   1     0.01  -0.01   0.00    -0.03   0.03   0.00     0.01  -0.08   0.10
  91   1     0.02  -0.01  -0.03    -0.01   0.05   0.01     0.03  -0.07   0.04
                      4                      5                      6
                        a                      a                      a 
 Frequencies --    40.4113                41.4972                43.6662
 Red. masses --    13.7253                14.0681                14.2991
 Frc consts  --     0.0000                 0.0000                 0.0000
 IR Inten    --     1.4097                 0.5217                 1.0527
 Raman Activ --     0.0000                 0.0000                 0.0000
 Depolar     --     0.0000                 0.0000                 0.0000
 Atom AN      X      Y      Z        X      Y      Z        X      Y      Z
   1   1     0.01   0.04  -0.01    -0.01  -0.03   0.01     0.00   0.01   0.01
   2   6     0.03   0.10  -0.05    -0.02  -0.09   0.02     0.02   0.01   0.02
   3   1    -0.00   0.03  -0.03    -0.01  -0.03   0.01     0.00   0.01  -0.00
   4   1     0.02   0.01  -0.01    -0.01  -0.03   0.01     0.01  -0.00   0.00
   5   6     0.05   0.11  -0.00    -0.02  -0.09   0.03     0.01   0.03   0.04
   6   1    -0.00   0.05  -0.00     0.01  -0.03   0.01    -0.00   0.01   0.01
   7   6     0.08   0.04  -0.06    -0.04  -0.05   0.09     0.01   0.02   0.03
   8   1     0.04  -0.00  -0.01    -0.02  -0.03   0.03     0.01   0.00   0.01
   9   1     0.01   0.00  -0.03    -0.00  -0.01   0.02     0.00   0.01   0.00
  10   6     0.12   0.13   0.09    -0.06  -0.10  -0.04     0.01   0.02   0.07
  11   1     0.04   0.04   0.03    -0.02  -0.03  -0.01    -0.00   0.01   0.02
  12   1     0.03   0.05   0.04    -0.01  -0.04  -0.02     0.00   0.01   0.02
  13   1     0.05   0.02   0.03    -0.03  -0.02  -0.01     0.01  -0.00   0.02
  14   7     0.12   0.04  -0.04    -0.06  -0.01   0.16     0.00   0.04   0.05
  15   1     0.04   0.01  -0.01    -0.01  -0.01   0.06    -0.01   0.01   0.01
  16   1     0.03   0.02  -0.01    -0.02   0.01   0.04     0.01   0.01   0.01
  17   8    -0.20  -0.08  -0.02     0.11   0.09   0.06     0.05  -0.07  -0.07
  18   1    -0.05  -0.02  -0.01     0.04   0.03   0.02     0.01  -0.02  -0.03
  19   1    -0.03  -0.01  -0.01     0.01   0.00   0.02     0.00  -0.01  -0.01
  20   8     0.05  -0.28   0.13     0.34  -0.14   0.10    -0.02  -0.05  -0.04
  21   1     0.01  -0.05   0.05     0.05  -0.03   0.04    -0.00  -0.00  -0.00
  22   1     0.03  -0.09   0.03     0.10  -0.04   0.01    -0.00  -0.02  -0.01
  23   8     0.03   0.07  -0.00     0.08   0.10   0.10    -0.14   0.03  -0.02
  24   1     0.01   0.00  -0.01     0.02   0.02   0.02    -0.02   0.02  -0.01
  25   1     0.00  -0.00   0.02     0.01   0.01   0.03    -0.03   0.02  -0.00
  26   8     0.05   0.07  -0.04    -0.18  -0.03   0.11     0.03   0.04   0.08
  27   1     0.01   0.01  -0.01    -0.06  -0.02   0.04     0.01   0.01   0.02
  28   1     0.01   0.02  -0.01    -0.04   0.01   0.01     0.01   0.01   0.02
  29   8     0.05  -0.13   0.27    -0.05  -0.09   0.22    -0.03   0.07   0.07
  30   1     0.02  -0.02   0.04    -0.01  -0.02   0.06    -0.00   0.02   0.01
  31   1     0.03  -0.01   0.08    -0.02   0.00   0.04    -0.01   0.03   0.02
  32   8    -0.10   0.27   0.05     0.02   0.08   0.02    -0.15  -0.21  -0.27
  33   1    -0.01   0.05   0.01     0.01   0.03   0.02    -0.04  -0.03  -0.05
  34   1    -0.03   0.08   0.01    -0.01   0.01   0.01    -0.05  -0.07  -0.06
  35   8    -0.13   0.12   0.04     0.03  -0.04  -0.09    -0.09   0.22  -0.11
  36   1    -0.03   0.04   0.01     0.01   0.00  -0.02    -0.03   0.02  -0.06
  37   1    -0.03   0.01   0.00     0.01  -0.01  -0.03    -0.01   0.03  -0.04
  38   8    -0.04  -0.03   0.03     0.02   0.01  -0.12    -0.01   0.10  -0.05
  39   1    -0.02   0.01   0.01     0.01  -0.00  -0.03    -0.01   0.05  -0.02
  40   1     0.01  -0.01   0.01    -0.00   0.00  -0.03     0.01   0.03   0.00
  41   8    -0.07  -0.05  -0.08     0.03  -0.07  -0.12     0.11  -0.09  -0.31
  42   1    -0.01  -0.01  -0.05     0.01  -0.02  -0.05     0.03  -0.04  -0.10
  43   1    -0.03  -0.01  -0.01    -0.01  -0.01  -0.03    -0.00  -0.02  -0.05
  44   8     0.16  -0.03   0.07    -0.08   0.02  -0.06     0.08   0.11   0.14
  45   1     0.03  -0.01   0.02    -0.03   0.00  -0.02    -0.00   0.02   0.03
  46   1     0.04  -0.02   0.01    -0.01   0.00  -0.02     0.01  -0.00   0.03
  47   8     0.02  -0.03  -0.04    -0.05  -0.04   0.03    -0.08  -0.02   0.13
  48   1     0.01  -0.00  -0.02    -0.02  -0.01   0.01    -0.02  -0.00   0.03
  49   1     0.01  -0.01  -0.00    -0.02  -0.00   0.00    -0.02  -0.00   0.04
  50   8     0.02   0.03  -0.12    -0.06  -0.08   0.14    -0.04   0.02  -0.01
  51   1     0.01   0.01  -0.04    -0.01  -0.02   0.04    -0.02   0.01  -0.01
  52   1     0.01   0.01  -0.02    -0.02  -0.02   0.03    -0.01   0.01   0.01
  53   8    -0.23  -0.07  -0.15     0.05   0.14  -0.24     0.08  -0.08   0.03
  54   1    -0.03  -0.04  -0.02     0.05   0.01  -0.04     0.01  -0.02   0.00
  55   1    -0.06  -0.01  -0.03     0.02   0.03  -0.04     0.02  -0.02  -0.00
  56   8     0.02   0.26   0.08     0.01   0.05  -0.12     0.05  -0.21  -0.03
  57   1    -0.01   0.05   0.01     0.01   0.02  -0.01     0.02  -0.05  -0.00
  58   1     0.01   0.06   0.01     0.00   0.02  -0.02    -0.00  -0.06  -0.04
  59   8    -0.02  -0.01  -0.01    -0.10  -0.08  -0.04     0.01  -0.01   0.15
  60   1    -0.02  -0.00  -0.00    -0.00  -0.03  -0.01     0.00   0.00   0.04
  61   1    -0.00  -0.00  -0.00    -0.02  -0.02  -0.00    -0.01  -0.00   0.04
  62   8     0.07  -0.09   0.07    -0.09   0.02  -0.06    -0.06   0.02   0.15
  63   1     0.02  -0.02   0.03    -0.02   0.00  -0.02    -0.02   0.01   0.04
  64   1     0.01  -0.02   0.02    -0.02   0.00  -0.02    -0.01   0.00   0.03
  65   8    -0.02  -0.00  -0.02    -0.19  -0.07   0.19     0.03   0.03   0.05
  66   1    -0.01  -0.00  -0.00    -0.03  -0.01   0.03     0.01   0.01   0.01
  67   1    -0.00  -0.01  -0.01    -0.05  -0.01   0.03     0.01   0.00   0.03
  68   8     0.16  -0.15   0.01     0.02  -0.06  -0.15     0.06  -0.34   0.03
  69   1     0.08  -0.05  -0.03     0.02  -0.02  -0.05     0.02  -0.09   0.00
  70   1     0.03   0.01   0.01     0.00  -0.00  -0.04     0.01  -0.08   0.01
  71   8     0.02  -0.09  -0.05     0.09   0.04   0.07    -0.03   0.18  -0.07
  72   1     0.00  -0.03  -0.02     0.02   0.01   0.02    -0.00   0.04  -0.02
  73   1     0.00  -0.02  -0.01     0.02   0.01   0.01    -0.01   0.05  -0.03
  74   8    -0.08  -0.04  -0.04     0.09   0.11   0.03     0.04   0.05  -0.02
  75   1    -0.02  -0.02  -0.01     0.02   0.02   0.01     0.01   0.02  -0.01
  76   1    -0.02  -0.02  -0.00     0.02   0.03   0.00     0.01   0.01  -0.01
  77   8    -0.00  -0.10   0.07    -0.07   0.01  -0.08    -0.01  -0.01   0.11
  78   1    -0.01  -0.02   0.01    -0.00   0.00  -0.02    -0.00   0.00   0.02
  79   1    -0.00  -0.02   0.01    -0.03  -0.01  -0.02    -0.00  -0.01   0.03
  80   8    -0.06  -0.07   0.01     0.08   0.02  -0.09     0.03   0.06  -0.04
  81   1    -0.01  -0.02   0.00     0.03   0.01  -0.03     0.01   0.01  -0.02
  82   1    -0.01  -0.01   0.01     0.02   0.00  -0.03     0.00   0.02  -0.01
  83   8     0.00  -0.04  -0.09     0.04   0.01  -0.04    -0.06   0.21  -0.15
  84   1    -0.00  -0.01  -0.02     0.02   0.00  -0.02    -0.01   0.04  -0.03
  85   1    -0.01   0.01  -0.02     0.01  -0.00  -0.01    -0.02   0.07  -0.03
  86   8    -0.19  -0.01  -0.02     0.14   0.10   0.07     0.08  -0.16  -0.03
  87   1    -0.02  -0.03   0.01     0.05   0.00   0.03     0.01  -0.03  -0.01
  88   1    -0.05  -0.01  -0.00     0.03   0.02   0.02     0.02  -0.03  -0.01
  89   8     0.07   0.12  -0.10    -0.11   0.22  -0.14     0.03  -0.00   0.11
  90   1     0.02   0.05  -0.04    -0.02   0.05  -0.03     0.01  -0.01   0.04
  91   1    -0.01   0.01  -0.02    -0.02   0.05  -0.04     0.01  -0.01   0.02
                      7                      8                      9
                        a                      a                      a 
 Frequencies --    44.7658                47.0267                49.6416
 Red. masses --    14.2262                13.9855                13.6867
 Frc consts  --     0.0000                 0.0000                 0.0000
 IR Inten    --     0.5572                 1.6760                 1.7424
 Raman Activ --     0.0000                 0.0000                 0.0000
 Depolar     --     0.0000                 0.0000                 0.0000
 Atom AN      X      Y      Z        X      Y      Z        X      Y      Z
   1   1    -0.01   0.02   0.00     0.02   0.02  -0.03    -0.01  -0.01  -0.00
   2   6    -0.02   0.05  -0.00     0.06   0.05  -0.08    -0.02  -0.07  -0.07
   3   1    -0.01   0.01  -0.00     0.02   0.02  -0.02    -0.02  -0.01  -0.06
   4   1    -0.00   0.01  -0.00     0.01   0.01  -0.02     0.02  -0.06  -0.02
   5   6     0.01   0.05   0.01     0.08   0.06  -0.05    -0.05   0.01   0.05
   6   1     0.01   0.02   0.00     0.03   0.02  -0.02    -0.04   0.04   0.01
   7   6     0.00   0.04   0.05     0.07   0.05  -0.02    -0.02  -0.06  -0.03
   8   1    -0.01   0.03   0.01     0.02   0.01  -0.00     0.02  -0.03  -0.01
   9   1    -0.00   0.00   0.04     0.02   0.02  -0.01    -0.02  -0.02  -0.03
  10   6     0.00   0.06  -0.00     0.07   0.05  -0.05     0.01  -0.03   0.26
  11   1     0.02   0.02   0.02     0.03   0.02  -0.00     0.01   0.01   0.12
  12   1     0.00   0.03  -0.03     0.02   0.02  -0.03    -0.01   0.02   0.08
  13   1    -0.02  -0.00   0.00     0.01   0.00  -0.01     0.02  -0.06   0.08
  14   7     0.06  -0.02  -0.02     0.09   0.07   0.00    -0.03  -0.05  -0.02
  15   1     0.02   0.00  -0.03     0.02   0.02   0.00    -0.01  -0.02  -0.00
  16   1     0.02  -0.02  -0.00     0.03   0.02   0.00    -0.00  -0.01  -0.01
  17   8     0.08   0.17  -0.06     0.05  -0.16   0.03     0.08   0.03  -0.10
  18   1     0.01   0.04  -0.01     0.03  -0.04   0.01     0.03   0.01  -0.02
  19   1     0.01   0.04  -0.01    -0.01  -0.05   0.02     0.01  -0.00  -0.02
  20   8     0.07   0.04   0.12    -0.11   0.01   0.09     0.01   0.00   0.02
  21   1     0.01   0.00   0.03    -0.02   0.01   0.03    -0.00  -0.00   0.01
  22   1     0.01   0.02   0.03    -0.03  -0.01   0.03    -0.00   0.01   0.01
  23   8    -0.03  -0.03   0.00    -0.11   0.08   0.03    -0.00   0.05   0.04
  24   1    -0.01  -0.03  -0.01    -0.03   0.02   0.01    -0.00   0.02   0.01
  25   1     0.00  -0.00   0.01    -0.02   0.03   0.01    -0.01   0.00   0.01
  26   8     0.16   0.06   0.01    -0.19  -0.14   0.26     0.16  -0.13  -0.01
  27   1     0.03   0.01   0.00    -0.05  -0.04   0.06     0.03  -0.04  -0.01
  28   1     0.03   0.02   0.02    -0.04  -0.03   0.05     0.03  -0.02   0.00
  29   8     0.04  -0.00   0.08     0.00   0.10   0.15    -0.07  -0.00   0.03
  30   1     0.02  -0.00   0.01     0.01   0.02   0.02    -0.01  -0.01   0.00
  31   1     0.01  -0.00   0.03     0.02   0.04   0.05    -0.01   0.00   0.01
  32   8     0.06  -0.05   0.09    -0.00  -0.08  -0.01    -0.14   0.10  -0.07
  33   1     0.01  -0.01   0.02    -0.01  -0.01   0.00    -0.02   0.02  -0.00
  34   1     0.02  -0.01   0.02    -0.01  -0.02  -0.00    -0.05   0.03  -0.02
  35   8     0.08   0.01   0.02     0.02   0.01  -0.05    -0.16   0.13   0.06
  36   1     0.02   0.00   0.01     0.00  -0.01  -0.02    -0.04   0.02  -0.01
  37   1     0.01  -0.01  -0.01     0.01   0.02  -0.01    -0.02   0.03   0.02
  38   8     0.00   0.06   0.06     0.03  -0.09  -0.01    -0.09   0.07   0.05
  39   1     0.01   0.01   0.01     0.01  -0.02  -0.01    -0.03   0.02   0.02
  40   1     0.00   0.01   0.02     0.02  -0.02  -0.00    -0.02   0.02   0.01
  41   8    -0.06  -0.09  -0.09     0.10   0.13   0.05     0.25   0.03   0.09
  42   1    -0.02  -0.02  -0.01     0.02   0.06   0.06     0.07  -0.01  -0.04
  43   1    -0.01  -0.02  -0.03     0.07   0.02  -0.00     0.03   0.02   0.03
  44   8     0.02   0.06   0.04     0.18  -0.09  -0.00    -0.09   0.05  -0.06
  45   1    -0.00   0.03  -0.00     0.05  -0.01  -0.01    -0.02   0.01  -0.01
  46   1     0.01   0.00   0.00     0.06  -0.01  -0.01    -0.02   0.02  -0.01
  47   8    -0.07   0.16  -0.00    -0.04   0.06  -0.17    -0.01  -0.00  -0.10
  48   1    -0.01   0.05  -0.01    -0.02  -0.01  -0.03     0.00  -0.00  -0.03
  49   1    -0.01   0.05  -0.00    -0.01   0.02  -0.05     0.00   0.00  -0.02
  50   8    -0.03   0.16  -0.01    -0.14  -0.26   0.13     0.00  -0.08  -0.07
  51   1    -0.02   0.04   0.00    -0.03  -0.06   0.02    -0.01  -0.02  -0.01
  52   1     0.01   0.03  -0.00    -0.04  -0.06   0.04     0.02  -0.03  -0.02
  53   8     0.21   0.01   0.17    -0.09   0.06   0.04     0.08   0.05  -0.00
  54   1     0.04   0.00   0.04    -0.03   0.01   0.01     0.01   0.01   0.00
  55   1     0.04   0.01   0.03    -0.01  -0.00   0.01     0.02   0.01  -0.01
  56   8     0.03  -0.06   0.04     0.21  -0.11   0.13    -0.01   0.07  -0.17
  57   1     0.01  -0.01   0.01     0.04  -0.03   0.01    -0.00   0.02  -0.04
  58   1     0.00  -0.01   0.02     0.04  -0.03   0.02     0.00   0.02  -0.04
  59   8    -0.27   0.03  -0.17    -0.03   0.05  -0.20    -0.08  -0.06  -0.18
  60   1    -0.09  -0.01  -0.03    -0.01   0.01  -0.05    -0.05  -0.02  -0.04
  61   1    -0.05   0.02  -0.03    -0.01   0.02  -0.05    -0.02  -0.01  -0.04
  62   8    -0.07   0.17  -0.02     0.04   0.10  -0.14     0.03   0.02  -0.02
  63   1    -0.01   0.03   0.01     0.00   0.03  -0.02     0.00   0.01  -0.02
  64   1    -0.03   0.04  -0.02     0.00   0.02  -0.04     0.02   0.01   0.00
  65   8    -0.11  -0.23  -0.03    -0.08  -0.01   0.03     0.04  -0.27  -0.09
  66   1    -0.03  -0.06  -0.00    -0.02  -0.01   0.02     0.01  -0.07   0.01
  67   1    -0.02  -0.05  -0.03    -0.01   0.01  -0.02     0.01  -0.05  -0.04
  68   8     0.07  -0.12  -0.04     0.19   0.15   0.08    -0.06   0.10  -0.08
  69   1     0.02  -0.03  -0.01     0.01   0.06   0.06    -0.01   0.02  -0.03
  70   1     0.01  -0.02   0.00     0.06   0.01   0.03    -0.01   0.02  -0.04
  71   8     0.05  -0.29  -0.14    -0.11   0.05   0.02    -0.07   0.08   0.11
  72   1     0.02  -0.08  -0.05    -0.03   0.01   0.00    -0.02   0.02   0.01
  73   1     0.02  -0.05  -0.03    -0.03   0.01  -0.00    -0.02   0.03   0.02
  74   8    -0.14  -0.23  -0.09    -0.08  -0.01   0.04     0.11  -0.34   0.27
  75   1    -0.02  -0.06  -0.03    -0.02   0.00   0.01     0.02  -0.05   0.05
  76   1    -0.04  -0.04  -0.02    -0.02   0.00   0.01     0.02  -0.06   0.06
  77   8    -0.23   0.09  -0.14    -0.02   0.07  -0.18     0.13   0.06   0.04
  78   1    -0.05   0.02  -0.03    -0.00   0.02  -0.04     0.04   0.01   0.02
  79   1    -0.06   0.02  -0.04    -0.00   0.02  -0.05     0.02   0.02  -0.00
  80   8    -0.13   0.00  -0.01    -0.09   0.00  -0.03     0.06   0.03   0.11
  81   1    -0.03   0.01   0.01    -0.03  -0.01   0.00     0.02  -0.00   0.01
  82   1    -0.02   0.00   0.00    -0.01  -0.01  -0.01     0.00   0.01   0.02
  83   8     0.10  -0.10  -0.08    -0.13   0.04  -0.03    -0.09   0.15   0.07
  84   1     0.01  -0.02  -0.01    -0.03   0.01  -0.01    -0.01   0.03   0.02
  85   1     0.03  -0.02  -0.02    -0.02   0.00  -0.01    -0.03   0.05   0.02
  86   8     0.07   0.02   0.01     0.04  -0.20  -0.03    -0.01   0.00  -0.11
  87   1     0.02   0.01   0.01     0.00  -0.04  -0.01     0.00  -0.00  -0.01
  88   1     0.02   0.02  -0.01     0.01  -0.04  -0.01     0.01   0.00  -0.03
  89   8     0.07  -0.01   0.19     0.01  -0.02  -0.05     0.03   0.04   0.01
  90   1     0.01  -0.03   0.05     0.03   0.04  -0.01    -0.00  -0.00  -0.00
  91   1     0.04  -0.00   0.04    -0.01   0.00  -0.00     0.01   0.02   0.00
                     10                     11                     12
                        a                      a                      a 
 Frequencies --    51.3984                52.7903                55.1106
 Red. masses --    13.9398                14.2455                14.0914
 Frc consts  --     0.0000                 0.0000                 0.0000
 IR Inten    --     0.1965                 0.5515                 0.3741
 Raman Activ --     0.0000                 0.0000                 0.0000
 Depolar     --     0.0000                 0.0000                 0.0000
 Atom AN      X      Y      Z        X      Y      Z        X      Y      Z
   1   1    -0.00  -0.04   0.02    -0.01   0.01   0.02     0.01   0.01   0.02
   2   6    -0.02  -0.13   0.07    -0.03   0.02   0.10     0.04   0.05   0.08
   3   1    -0.00  -0.03   0.01    -0.01  -0.00   0.04     0.02   0.02   0.02
   4   1    -0.00  -0.04   0.02    -0.01   0.02   0.03     0.01   0.01   0.02
   5   6    -0.04  -0.11   0.09     0.01  -0.01   0.03     0.03   0.06   0.09
   6   1    -0.01  -0.03   0.03     0.00  -0.02   0.01     0.01   0.02   0.03
   7   6    -0.05  -0.09   0.08     0.02  -0.04   0.02     0.02   0.09   0.10
   8   1    -0.01  -0.02   0.02     0.01  -0.00   0.00     0.00   0.04   0.03
   9   1    -0.01  -0.02   0.02     0.00  -0.02   0.01     0.01   0.03   0.04
  10   6    -0.05  -0.13   0.10     0.03   0.03  -0.02     0.00   0.04   0.08
  11   1    -0.01  -0.03   0.04     0.02   0.00  -0.02     0.01   0.02   0.04
  12   1    -0.01  -0.04   0.02     0.01   0.01  -0.01     0.01   0.01   0.01
  13   1    -0.03  -0.05   0.03     0.01   0.02  -0.01    -0.01  -0.00   0.03
  14   7    -0.09  -0.09   0.07     0.04  -0.08  -0.02    -0.00   0.08   0.05
  15   1    -0.02  -0.02   0.03     0.02  -0.01  -0.01    -0.00   0.02   0.01
  16   1    -0.03  -0.02   0.02    -0.00  -0.02  -0.00    -0.01   0.01   0.02
  17   8    -0.07   0.05   0.01    -0.02   0.07   0.15    -0.21  -0.14   0.19
  18   1    -0.02   0.01   0.00    -0.00   0.02   0.04    -0.07  -0.04   0.04
  19   1    -0.00   0.01  -0.00    -0.00   0.02   0.04    -0.02  -0.02   0.03
  20   8    -0.10   0.12   0.03     0.15  -0.05   0.14    -0.01  -0.01  -0.27
  21   1    -0.01   0.02  -0.01     0.03  -0.02   0.03     0.01   0.01  -0.05
  22   1    -0.03   0.04   0.00     0.05  -0.01   0.02     0.03  -0.03  -0.08
  23   8     0.14  -0.06  -0.04     0.00  -0.20  -0.13    -0.02   0.01   0.06
  24   1     0.03   0.01  -0.00     0.01  -0.04  -0.03    -0.01   0.00   0.02
  25   1     0.03  -0.01  -0.03     0.00  -0.05  -0.03     0.00   0.02   0.01
  26   8    -0.02  -0.01  -0.19     0.00  -0.03  -0.10     0.02   0.12  -0.02
  27   1    -0.01  -0.00  -0.03     0.01  -0.00  -0.02    -0.02   0.01   0.01
  28   1    -0.01  -0.01  -0.04     0.01  -0.01  -0.04    -0.00   0.04  -0.01
  29   8     0.03  -0.08  -0.17     0.09  -0.21  -0.01     0.05   0.18  -0.10
  30   1    -0.01  -0.02  -0.02     0.02  -0.05   0.00     0.01   0.04  -0.01
  31   1    -0.01  -0.06  -0.05     0.02  -0.07   0.00     0.00   0.04  -0.04
  32   8    -0.03   0.07  -0.10    -0.20  -0.11  -0.27     0.07  -0.14   0.03
  33   1     0.01  -0.00  -0.02    -0.03  -0.04  -0.06     0.01  -0.02   0.01
  34   1    -0.02   0.03  -0.03    -0.06  -0.03  -0.07     0.02  -0.05   0.01
  35   8    -0.04   0.06  -0.12    -0.22  -0.02   0.03     0.11   0.06   0.01
  36   1    -0.01   0.01  -0.03    -0.06  -0.02  -0.03     0.03   0.01  -0.00
  37   1    -0.02   0.01  -0.03    -0.02   0.00   0.02     0.03   0.02   0.00
  38   8     0.01  -0.15  -0.05    -0.10  -0.05  -0.03     0.07   0.06   0.02
  39   1    -0.00  -0.02  -0.02    -0.03  -0.00  -0.00     0.02   0.01   0.00
  40   1     0.02  -0.04   0.00    -0.02  -0.01  -0.00     0.01   0.01  -0.00
  41   8    -0.21   0.05  -0.19     0.31  -0.00   0.19     0.11   0.01  -0.03
  42   1    -0.06   0.03  -0.00     0.09  -0.03  -0.02     0.03  -0.03  -0.04
  43   1    -0.02  -0.01  -0.05     0.02   0.01   0.07    -0.01   0.02   0.00
  44   8     0.16  -0.16   0.10    -0.01  -0.03   0.05     0.01   0.05  -0.09
  45   1     0.03  -0.03   0.02     0.01   0.01   0.01     0.02   0.01  -0.02
  46   1     0.05  -0.04   0.02    -0.01  -0.01   0.02    -0.02   0.00  -0.01
  47   8     0.06   0.19  -0.13     0.08   0.18   0.04     0.20   0.04  -0.02
  48   1     0.01   0.04  -0.03     0.02   0.04   0.02     0.06   0.02  -0.01
  49   1     0.01   0.03  -0.03     0.01   0.05   0.00     0.06   0.01  -0.00
  50   8     0.03   0.06  -0.06     0.05   0.09   0.11     0.17   0.08   0.03
  51   1    -0.00   0.01  -0.01     0.00   0.01   0.04     0.05   0.02   0.01
  52   1     0.01   0.01  -0.03     0.01   0.01   0.01     0.04   0.02   0.01
  53   8    -0.07   0.05   0.10    -0.07   0.10  -0.08    -0.21  -0.18  -0.16
  54   1    -0.02   0.02   0.02     0.01   0.01  -0.01    -0.04  -0.03  -0.05
  55   1    -0.02   0.01   0.03    -0.02   0.02  -0.00    -0.05  -0.04  -0.01
  56   8     0.10   0.11   0.22    -0.06  -0.05   0.02    -0.11  -0.11   0.01
  57   1     0.02   0.02   0.05    -0.01  -0.01   0.03    -0.02  -0.02   0.02
  58   1     0.01   0.02   0.03    -0.03  -0.02  -0.03    -0.02  -0.03   0.00
  59   8    -0.12   0.15  -0.17     0.09   0.12  -0.04    -0.11  -0.14  -0.25
  60   1    -0.02   0.03  -0.04     0.03   0.02  -0.01    -0.02  -0.06  -0.06
  61   1    -0.01   0.04  -0.04     0.02   0.03  -0.00    -0.00  -0.02  -0.04
  62   8     0.05   0.01  -0.04     0.05   0.17  -0.03     0.19   0.01  -0.02
  63   1     0.01  -0.00  -0.01     0.02   0.04  -0.00     0.06  -0.01  -0.01
  64   1     0.00   0.01  -0.01     0.01   0.04  -0.02     0.04  -0.00  -0.01
  65   8    -0.06  -0.06   0.07     0.08   0.07  -0.01    -0.23  -0.16   0.11
  66   1     0.00  -0.01   0.02     0.02   0.02  -0.01    -0.05  -0.04   0.03
  67   1    -0.02   0.01  -0.00     0.02   0.02  -0.00    -0.04  -0.03  -0.01
  68   8     0.22  -0.12   0.10    -0.12  -0.04   0.16    -0.16  -0.06   0.02
  69   1     0.06  -0.02   0.04    -0.03  -0.01   0.04    -0.05  -0.02   0.00
  70   1     0.05  -0.01   0.05    -0.03  -0.02   0.03    -0.04  -0.02   0.00
  71   8     0.07   0.15   0.08    -0.04  -0.07  -0.06    -0.01  -0.02   0.03
  72   1     0.02   0.04   0.02    -0.01  -0.02  -0.01     0.00  -0.01   0.00
  73   1     0.01   0.03   0.01    -0.01  -0.02  -0.01    -0.00   0.00   0.00
  74   8     0.16   0.01   0.13    -0.08   0.01  -0.07    -0.03  -0.04   0.04
  75   1     0.03   0.01   0.03    -0.02  -0.00  -0.01    -0.00  -0.01   0.01
  76   1     0.04   0.00   0.03    -0.02  -0.00  -0.02    -0.01  -0.00   0.01
  77   8    -0.05   0.04  -0.02    -0.01   0.10  -0.14     0.06  -0.04  -0.08
  78   1     0.00   0.00  -0.00    -0.01   0.02  -0.03     0.02  -0.01  -0.03
  79   1    -0.03   0.01  -0.02     0.01   0.03  -0.03    -0.00  -0.01  -0.04
  80   8     0.10  -0.01   0.03    -0.08   0.01  -0.00     0.01  -0.02  -0.04
  81   1     0.03   0.00   0.01    -0.02   0.01   0.01    -0.00  -0.02  -0.01
  82   1     0.02  -0.02  -0.00    -0.02  -0.01  -0.00     0.01  -0.00  -0.00
  83   8     0.01   0.08  -0.06    -0.04  -0.06  -0.02    -0.02   0.04  -0.02
  84   1     0.02   0.01  -0.02    -0.01  -0.01  -0.01    -0.01   0.01  -0.00
  85   1    -0.00   0.02  -0.01    -0.03  -0.00  -0.00     0.00   0.01  -0.00
  86   8    -0.00   0.04   0.10     0.07   0.05   0.19     0.02   0.01   0.14
  87   1    -0.01   0.01   0.02     0.02   0.01   0.05    -0.01   0.01  -0.00
  88   1    -0.01   0.01   0.02     0.01   0.02   0.05    -0.01  -0.01   0.05
  89   8    -0.13  -0.10  -0.00     0.02   0.02  -0.18    -0.05   0.12   0.04
  90   1    -0.04  -0.04  -0.01     0.00   0.01  -0.06    -0.02   0.01   0.02
  91   1    -0.03  -0.01   0.00    -0.01   0.01  -0.03    -0.03  -0.00  -0.01
                     13                     14                     15
                        a                      a                      a 
 Frequencies --    55.8221                57.9180                60.4154
 Red. masses --    14.1789                14.2412                14.3586
 Frc consts  --     0.0000                 0.0000                 0.0000
 IR Inten    --     0.0173                 2.9645                 0.8521
 Raman Activ --     0.0000                 0.0000                 0.0000
 Depolar     --     0.0000                 0.0000                 0.0000
 Atom AN      X      Y      Z        X      Y      Z        X      Y      Z
   1   1    -0.02  -0.02   0.03    -0.00   0.02   0.00     0.01  -0.00  -0.01
   2   6    -0.06  -0.06   0.08    -0.01   0.06   0.02     0.04   0.00  -0.00
   3   1    -0.02  -0.02   0.03    -0.00   0.01   0.01     0.02   0.00   0.01
   4   1    -0.01  -0.01   0.02    -0.01   0.03   0.01     0.00   0.01   0.00
   5   6    -0.06  -0.08   0.03     0.00   0.04  -0.01     0.04  -0.01  -0.02
   6   1    -0.02  -0.03   0.01     0.01   0.00  -0.00     0.01  -0.01  -0.01
   7   6    -0.06  -0.07   0.01    -0.02   0.08   0.03     0.03   0.01  -0.02
   8   1    -0.01  -0.02   0.00    -0.02   0.03   0.01     0.01   0.00  -0.01
   9   1    -0.02  -0.02   0.00     0.00   0.02   0.02     0.01   0.00  -0.00
  10   6    -0.06  -0.06   0.01    -0.03   0.04  -0.09     0.03   0.00  -0.05
  11   1    -0.02  -0.02  -0.01    -0.01   0.01  -0.03    -0.00  -0.01  -0.03
  12   1    -0.02  -0.02   0.01    -0.00   0.00  -0.04     0.01  -0.01  -0.00
  13   1    -0.01  -0.00   0.00    -0.02   0.02  -0.02     0.02   0.02  -0.02
  14   7    -0.10  -0.07   0.00    -0.01   0.06   0.00     0.03   0.01  -0.02
  15   1    -0.03  -0.02  -0.00    -0.00   0.02  -0.01     0.00   0.00  -0.01
  16   1    -0.02  -0.02   0.00     0.00   0.01   0.00     0.01   0.00  -0.01
  17   8    -0.10  -0.06   0.02    -0.13   0.04  -0.11     0.07  -0.05   0.03
  18   1    -0.01  -0.01  -0.01    -0.03   0.01  -0.03     0.01  -0.01   0.01
  19   1    -0.02  -0.01   0.00    -0.03   0.01  -0.03     0.01  -0.01   0.01
  20   8     0.05  -0.05  -0.10    -0.10   0.09  -0.09     0.03  -0.07  -0.00
  21   1    -0.01  -0.00  -0.01    -0.01   0.02  -0.02     0.00  -0.01   0.01
  22   1     0.03  -0.02  -0.03    -0.03   0.02  -0.02     0.01  -0.03   0.00
  23   8    -0.18   0.11  -0.13     0.01   0.03   0.19    -0.15   0.10  -0.17
  24   1    -0.04   0.02  -0.04     0.01   0.01   0.04    -0.01   0.04  -0.06
  25   1    -0.04   0.03  -0.02     0.00   0.01   0.05    -0.03   0.02  -0.02
  26   8     0.18  -0.07   0.02     0.06   0.01  -0.01    -0.01   0.02   0.10
  27   1     0.05  -0.02  -0.01     0.01   0.00  -0.01    -0.01  -0.00   0.02
  28   1     0.04  -0.00   0.00     0.01   0.00   0.01    -0.01   0.01   0.02
  29   8    -0.16   0.05   0.03    -0.02   0.15  -0.03    -0.03   0.03   0.09
  30   1    -0.04  -0.00   0.01    -0.01   0.04  -0.01     0.00   0.01   0.01
  31   1    -0.04   0.03   0.00    -0.01   0.04  -0.01    -0.00   0.02   0.03
  32   8     0.08   0.00   0.05    -0.15   0.08   0.05    -0.08  -0.03  -0.22
  33   1    -0.01   0.01  -0.01    -0.02   0.02   0.03    -0.04   0.01  -0.06
  34   1     0.04   0.00   0.01    -0.07   0.03   0.01    -0.00  -0.02  -0.05
  35   8     0.07  -0.06   0.08    -0.18  -0.15   0.05    -0.16  -0.14   0.14
  36   1     0.02  -0.01   0.04    -0.04  -0.02   0.01    -0.04  -0.04   0.03
  37   1     0.00  -0.02   0.01    -0.03  -0.04   0.02    -0.04  -0.03   0.04
  38   8     0.05  -0.00   0.06     0.02  -0.04  -0.22    -0.01  -0.02  -0.04
  39   1     0.01  -0.00   0.01    -0.02  -0.00  -0.04    -0.02  -0.01   0.01
  40   1     0.01   0.00   0.02    -0.00  -0.01  -0.03    -0.00  -0.01  -0.02
  41   8    -0.22  -0.09   0.01     0.29  -0.10   0.23    -0.19  -0.08   0.22
  42   1    -0.06   0.00   0.06     0.09  -0.03  -0.00    -0.05  -0.00   0.08
  43   1    -0.01  -0.03  -0.02     0.04  -0.02   0.07    -0.02  -0.02   0.04
  44   8    -0.01   0.00   0.11     0.01   0.01   0.14     0.01  -0.03  -0.02
  45   1    -0.01   0.02   0.01     0.00   0.01   0.03     0.01  -0.02   0.00
  46   1     0.01  -0.01   0.01     0.01   0.01   0.03    -0.00   0.00   0.00
  47   8    -0.08  -0.02   0.13    -0.16  -0.03   0.07     0.08   0.07  -0.09
  48   1    -0.02   0.00   0.03    -0.04   0.00   0.01     0.02   0.01  -0.02
  49   1    -0.02   0.02   0.02    -0.03   0.01   0.02     0.02   0.00  -0.02
  50   8    -0.04   0.04   0.00    -0.13   0.07  -0.10     0.04  -0.04   0.04
  51   1    -0.03   0.01   0.00    -0.04   0.02  -0.03     0.01  -0.01   0.01
  52   1     0.01   0.00   0.00    -0.02   0.01  -0.02     0.01  -0.01   0.02
  53   8    -0.14  -0.00  -0.17    -0.06  -0.05   0.05     0.07  -0.06  -0.00
  54   1    -0.02  -0.01  -0.04    -0.02  -0.00   0.00     0.01  -0.01  -0.00
  55   1    -0.04  -0.00  -0.03    -0.02  -0.00   0.00     0.02  -0.02  -0.00
  56   8     0.09  -0.00   0.14     0.09   0.05   0.08    -0.05  -0.01  -0.01
  57   1     0.02   0.00   0.02     0.02   0.01   0.01    -0.01  -0.00  -0.01
  58   1     0.02  -0.00   0.03     0.01   0.01   0.01    -0.02  -0.01  -0.02
  59   8     0.22  -0.11  -0.01     0.00  -0.12  -0.06    -0.26   0.06  -0.09
  60   1     0.06  -0.04  -0.00     0.02  -0.04  -0.01    -0.09   0.01  -0.02
  61   1     0.02  -0.02   0.01    -0.02  -0.02  -0.00    -0.03   0.02  -0.02
  62   8    -0.07   0.28  -0.05    -0.10   0.09   0.07     0.09  -0.10   0.03
  63   1    -0.02   0.08  -0.02    -0.03   0.02   0.04     0.02  -0.02   0.00
  64   1     0.01   0.06  -0.02    -0.03   0.01  -0.00     0.01  -0.01   0.02
  65   8     0.18  -0.07  -0.06    -0.01  -0.09  -0.01    -0.14  -0.12   0.00
  66   1     0.03  -0.02  -0.02     0.02  -0.01  -0.02    -0.02  -0.02  -0.01
  67   1     0.05  -0.03  -0.01    -0.01  -0.02  -0.00    -0.04  -0.01  -0.02
  68   8     0.15  -0.05   0.01     0.11  -0.05   0.08    -0.07   0.05   0.07
  69   1     0.03  -0.01   0.01     0.04  -0.02  -0.00    -0.02   0.01   0.01
  70   1     0.03  -0.00   0.02     0.02  -0.00   0.02    -0.02   0.01   0.01
  71   8    -0.09   0.08  -0.19     0.11   0.00   0.10     0.11   0.27  -0.29
  72   1    -0.03   0.02  -0.05     0.02   0.01   0.04    -0.00   0.08  -0.06
  73   1    -0.01   0.01  -0.03     0.02  -0.02   0.02     0.04   0.03  -0.04
  74   8     0.00  -0.15  -0.06     0.27   0.09  -0.07     0.11   0.06  -0.15
  75   1     0.00  -0.01  -0.03     0.06   0.01  -0.01     0.04   0.04  -0.06
  76   1     0.00  -0.02  -0.01     0.07   0.01  -0.03     0.03   0.02  -0.02
  77   8     0.21   0.19  -0.18    -0.05  -0.08  -0.17    -0.03   0.03   0.20
  78   1     0.05   0.04  -0.03     0.01  -0.02  -0.05     0.01   0.01   0.04
  79   1     0.07   0.04  -0.03    -0.02  -0.04  -0.04    -0.03   0.01   0.02
  80   8     0.04   0.06   0.07     0.19  -0.10  -0.19     0.20   0.08   0.09
  81   1     0.01   0.01   0.02     0.06  -0.01  -0.05     0.06   0.03   0.02
  82   1     0.01   0.00   0.01     0.03  -0.02  -0.05     0.03   0.01   0.01
  83   8     0.02   0.01   0.12     0.05  -0.18   0.00     0.23  -0.09   0.15
  84   1    -0.00   0.01   0.03     0.03  -0.04  -0.01     0.05  -0.01   0.03
  85   1     0.02  -0.01   0.03    -0.01  -0.04  -0.00     0.05  -0.02   0.03
  86   8     0.04  -0.01   0.03    -0.01   0.01  -0.05    -0.05  -0.01  -0.03
  87   1     0.01  -0.01  -0.00    -0.01   0.01  -0.02    -0.01  -0.01  -0.00
  88   1    -0.00  -0.01   0.01    -0.01   0.01  -0.02    -0.00  -0.01  -0.00
  89   8     0.02   0.21  -0.03    -0.03   0.01   0.09     0.03   0.02   0.07
  90   1    -0.01   0.04  -0.02    -0.01  -0.00   0.03     0.01   0.00   0.03
  91   1    -0.01   0.04  -0.01    -0.01  -0.00   0.02     0.01  -0.00   0.01
                     16                     17                     18
                        a                      a                      a 
 Frequencies --    62.0232                64.6842                65.4248
 Red. masses --    14.3126                13.9694                14.1427
 Frc consts  --     0.0000                 0.0000                 0.0000
 IR Inten    --     1.0002                 0.9695                 1.5804
 Raman Activ --     0.0000                 0.0000                 0.0000
 Depolar     --     0.0000                 0.0000                 0.0000
 Atom AN      X      Y      Z        X      Y      Z        X      Y      Z
   1   1     0.00  -0.02   0.01     0.04   0.00   0.03    -0.00  -0.01   0.03
   2   6     0.01  -0.06  -0.01     0.15   0.02   0.09     0.01  -0.06   0.01
   3   1    -0.00  -0.02  -0.00     0.04   0.00   0.03    -0.01  -0.01  -0.03
   4   1     0.01  -0.01  -0.00     0.05   0.01   0.02     0.03  -0.04  -0.00
   5   6     0.00  -0.07  -0.04     0.12   0.00   0.05    -0.01  -0.03   0.05
   6   1    -0.01  -0.02  -0.01     0.04  -0.01   0.01    -0.02   0.01   0.02
   7   6     0.02  -0.08  -0.09     0.10   0.05   0.05     0.00  -0.06   0.01
   8   1     0.02  -0.03  -0.02     0.02   0.03   0.01     0.01  -0.03   0.00
   9   1     0.00  -0.02  -0.04     0.04   0.02   0.03    -0.00  -0.02  -0.01
  10   6     0.02  -0.07  -0.02     0.08  -0.01  -0.01     0.01  -0.03   0.13
  11   1    -0.00  -0.02  -0.02     0.02  -0.01  -0.01     0.01  -0.01   0.05
  12   1     0.00  -0.02   0.01     0.03  -0.01  -0.01     0.00  -0.00   0.04
  13   1     0.02  -0.01  -0.01     0.01   0.01  -0.00     0.01  -0.03   0.04
  14   7    -0.01  -0.06  -0.08     0.09   0.04   0.02    -0.01  -0.04   0.03
  15   1    -0.01  -0.02  -0.02     0.02   0.01   0.00     0.00  -0.01   0.02
  16   1     0.00  -0.02  -0.02     0.02   0.00   0.01    -0.02  -0.00   0.01
  17   8    -0.02  -0.18   0.15     0.21  -0.15  -0.05    -0.08  -0.16   0.10
  18   1     0.00  -0.05   0.03     0.07  -0.04  -0.04    -0.03  -0.04   0.01
  19   1    -0.01  -0.04   0.04     0.04  -0.02  -0.01    -0.01  -0.02   0.02
  20   8     0.02   0.02  -0.13    -0.17  -0.13  -0.05    -0.06   0.10   0.02
  21   1    -0.00   0.01  -0.02    -0.02  -0.02  -0.01    -0.00   0.02  -0.00
  22   1     0.02  -0.00  -0.04    -0.06  -0.04   0.00    -0.01   0.03  -0.00
  23   8    -0.02   0.06   0.11     0.09   0.03  -0.10     0.02  -0.05  -0.04
  24   1    -0.01   0.01   0.03     0.02   0.02  -0.01     0.01  -0.01  -0.01
  25   1    -0.01   0.01   0.02     0.02   0.01  -0.03     0.01  -0.00  -0.01
  26   8     0.15  -0.07   0.18     0.01  -0.00  -0.10     0.02   0.09  -0.01
  27   1     0.04  -0.02   0.01    -0.00  -0.00  -0.01     0.00   0.02   0.00
  28   1     0.04  -0.00   0.03     0.01  -0.01  -0.03     0.00   0.02  -0.00
  29   8    -0.09   0.12  -0.02     0.12  -0.04  -0.02     0.04   0.01  -0.07
  30   1    -0.02   0.02  -0.01     0.03  -0.00  -0.01     0.01   0.00  -0.01
  31   1    -0.02   0.05  -0.01     0.03  -0.02   0.00     0.01  -0.02  -0.02
  32   8     0.01   0.02   0.09     0.07   0.08  -0.07    -0.08  -0.00  -0.10
  33   1     0.00   0.01   0.03     0.02   0.01  -0.02    -0.01  -0.01  -0.02
  34   1    -0.00   0.00   0.03     0.02   0.03  -0.02    -0.03   0.01  -0.03
  35   8     0.05  -0.02  -0.10    -0.01  -0.11  -0.01    -0.14  -0.04   0.04
  36   1     0.01   0.00  -0.01     0.00  -0.01   0.00    -0.04  -0.02  -0.01
  37   1     0.01   0.00  -0.02    -0.00  -0.03  -0.00    -0.02  -0.02   0.01
  38   8    -0.00  -0.05  -0.02    -0.02   0.00  -0.06    -0.16   0.15  -0.03
  39   1     0.01  -0.01  -0.01    -0.01  -0.01  -0.01    -0.04   0.03   0.00
  40   1    -0.01  -0.01   0.00    -0.02   0.00  -0.01    -0.04   0.03  -0.02
  41   8     0.03   0.05  -0.06    -0.17  -0.04   0.01     0.05  -0.13   0.03
  42   1     0.01   0.01  -0.02    -0.04  -0.01   0.01     0.01   0.00   0.05
  43   1    -0.00   0.01  -0.00    -0.03  -0.01  -0.00     0.07  -0.03  -0.04
  44   8    -0.08  -0.03   0.06    -0.19   0.06   0.06    -0.08   0.13  -0.17
  45   1    -0.02  -0.01   0.02    -0.03   0.04   0.01    -0.04   0.02  -0.04
  46   1    -0.02  -0.01   0.02    -0.04   0.02   0.01     0.01   0.06  -0.06
  47   8     0.04   0.28  -0.01     0.06   0.11   0.26     0.05  -0.02   0.06
  48   1     0.01   0.05   0.00     0.02   0.03   0.05     0.02   0.00   0.01
  49   1     0.00   0.04   0.00     0.02   0.05   0.07     0.01  -0.01   0.02
  50   8     0.00  -0.03   0.13     0.11   0.04   0.03     0.09   0.05   0.01
  51   1    -0.01  -0.01   0.03     0.00   0.01   0.00     0.02   0.02  -0.00
  52   1     0.02  -0.01   0.04     0.02   0.00  -0.00     0.02   0.02   0.00
  53   8    -0.13  -0.02  -0.12     0.11  -0.02  -0.06    -0.18  -0.00   0.07
  54   1    -0.03  -0.00  -0.03     0.01  -0.01  -0.02    -0.04   0.00   0.02
  55   1    -0.03  -0.01  -0.01     0.04  -0.02  -0.02    -0.04  -0.01   0.03
  56   8    -0.03  -0.00  -0.09    -0.04   0.10  -0.02     0.25  -0.03   0.07
  57   1    -0.00   0.00  -0.01    -0.02   0.01  -0.01     0.06  -0.01   0.02
  58   1    -0.00   0.00  -0.01     0.00   0.02  -0.01     0.05  -0.01   0.01
  59   8    -0.13   0.34   0.10    -0.04  -0.05   0.06    -0.03   0.03   0.13
  60   1    -0.06   0.09   0.03     0.01  -0.04   0.02    -0.01   0.01   0.03
  61   1    -0.01   0.08   0.02    -0.00   0.00   0.03    -0.00   0.00   0.03
  62   8    -0.06  -0.05   0.08     0.03   0.24   0.12    -0.02  -0.05  -0.03
  63   1    -0.01  -0.03   0.03     0.03   0.02   0.04     0.00  -0.02  -0.02
  64   1    -0.04  -0.01   0.02    -0.02   0.04  -0.00    -0.01  -0.01  -0.00
  65   8     0.24   0.03  -0.22    -0.04  -0.05   0.09    -0.03   0.05   0.06
  66   1     0.07   0.01  -0.04    -0.01  -0.01   0.03    -0.01   0.01   0.00
  67   1     0.04   0.02  -0.03    -0.01  -0.01   0.02    -0.01   0.01   0.03
  68   8    -0.06  -0.00   0.03    -0.02   0.06  -0.11     0.30   0.25  -0.45
  69   1    -0.01   0.00   0.01     0.01   0.00  -0.05     0.04   0.06  -0.13
  70   1    -0.01  -0.00  -0.01    -0.01   0.02  -0.02     0.08   0.04  -0.07
  71   8     0.04  -0.04   0.05    -0.13   0.19   0.11     0.03  -0.10  -0.05
  72   1     0.01  -0.01   0.01    -0.05   0.06   0.04     0.01  -0.03  -0.02
  73   1     0.00  -0.01  -0.00    -0.03   0.02   0.03     0.01  -0.02  -0.01
  74   8     0.15  -0.10   0.04     0.04  -0.03   0.15    -0.08   0.04  -0.07
  75   1     0.02  -0.02   0.02    -0.01   0.01   0.03    -0.01  -0.01  -0.01
  76   1     0.03  -0.04  -0.01     0.00  -0.01   0.02    -0.01   0.00  -0.01
  77   8    -0.32  -0.06   0.07    -0.20   0.02  -0.19    -0.08   0.01   0.06
  78   1    -0.08  -0.02   0.03    -0.04   0.00  -0.05    -0.02   0.00   0.02
  79   1    -0.07  -0.00   0.02    -0.04  -0.01  -0.04    -0.02   0.01   0.02
  80   8     0.01  -0.09  -0.03    -0.06  -0.08  -0.09    -0.02   0.02   0.00
  81   1     0.01  -0.00  -0.00    -0.01  -0.01  -0.02     0.01   0.02  -0.01
  82   1    -0.00  -0.02  -0.00    -0.01  -0.02  -0.02    -0.02   0.02   0.00
  83   8    -0.00  -0.05  -0.10    -0.18  -0.05   0.05     0.06  -0.07   0.02
  84   1     0.01  -0.02  -0.02    -0.03  -0.02   0.01     0.01  -0.01   0.00
  85   1     0.00  -0.01  -0.02    -0.04  -0.02   0.01     0.00  -0.01   0.00
  86   8     0.04   0.02   0.02    -0.17  -0.15  -0.07     0.17  -0.13   0.10
  87   1     0.01   0.01  -0.01    -0.04  -0.04  -0.02     0.03  -0.02   0.01
  88   1     0.01  -0.01   0.02    -0.02  -0.05  -0.01     0.03  -0.03   0.02
  89   8     0.13   0.20  -0.01     0.08  -0.09  -0.11    -0.03   0.05   0.07
  90   1     0.02   0.05  -0.02     0.03  -0.01  -0.02    -0.02   0.00   0.00
  91   1     0.01   0.03  -0.01     0.02  -0.02  -0.02    -0.02   0.01   0.02
                     19                     20                     21
                        a                      a                      a 
 Frequencies --    66.5821                68.3854                70.0978
 Red. masses --    13.7422                13.3416                14.3355
 Frc consts  --     0.0000                 0.0000                 0.0000
 IR Inten    --     0.7676                 1.2438                 0.4436
 Raman Activ --     0.0000                 0.0000                 0.0000
 Depolar     --     0.0000                 0.0000                 0.0000
 Atom AN      X      Y      Z        X      Y      Z        X      Y      Z
   1   1    -0.01   0.04  -0.04     0.00  -0.01  -0.00     0.01  -0.00  -0.03
   2   6    -0.02   0.13  -0.06     0.00  -0.00   0.02     0.01   0.01  -0.03
   3   1    -0.01   0.03  -0.01     0.01  -0.01   0.05     0.01   0.01  -0.00
   4   1    -0.03   0.04  -0.01    -0.02   0.04   0.01    -0.01   0.00  -0.01
   5   6     0.04   0.12  -0.04     0.03  -0.08  -0.13     0.01   0.03  -0.00
   6   1     0.04   0.03  -0.01     0.03  -0.06  -0.04     0.02   0.01  -0.00
   7   6     0.01   0.13   0.06     0.00  -0.03  -0.08    -0.01   0.06   0.06
   8   1    -0.02   0.05   0.02    -0.02   0.00  -0.03    -0.02   0.02   0.02
   9   1     0.01   0.03   0.04     0.01  -0.01  -0.01     0.00   0.02   0.03
  10   6    -0.00   0.12  -0.12    -0.01  -0.03  -0.33    -0.04  -0.00  -0.04
  11   1     0.02   0.04  -0.02    -0.01  -0.03  -0.15    -0.00   0.01   0.01
  12   1     0.01   0.04  -0.07    -0.00  -0.03  -0.09    -0.00   0.00  -0.04
  13   1    -0.03   0.02  -0.03    -0.01   0.05  -0.10    -0.04  -0.02  -0.01
  14   7     0.09   0.10   0.06     0.01  -0.06  -0.12     0.01   0.06   0.08
  15   1     0.03   0.03   0.00    -0.00  -0.01  -0.04     0.01   0.02   0.02
  16   1     0.03   0.02   0.02     0.01  -0.02  -0.03    -0.00   0.02   0.02
  17   8    -0.26   0.18  -0.03    -0.02  -0.03   0.08     0.08  -0.09  -0.02
  18   1    -0.07   0.05   0.01    -0.01  -0.01   0.01     0.03  -0.02  -0.01
  19   1    -0.05   0.03  -0.02     0.01   0.00   0.01     0.01  -0.02   0.00
  20   8     0.15   0.04   0.08     0.01  -0.04   0.04    -0.12   0.02  -0.16
  21   1     0.04   0.01   0.02    -0.01  -0.01   0.01    -0.00   0.01  -0.04
  22   1     0.06   0.00   0.01    -0.01  -0.00   0.01    -0.04  -0.01  -0.03
  23   8     0.08   0.00  -0.07    -0.05  -0.04   0.06     0.26   0.01   0.08
  24   1     0.02   0.02  -0.01    -0.02  -0.02   0.02     0.07  -0.00   0.02
  25   1     0.02   0.01  -0.03    -0.02  -0.01   0.01     0.07   0.01   0.02
  26   8     0.15  -0.08  -0.04     0.08   0.03  -0.09     0.05   0.05   0.19
  27   1     0.04  -0.02  -0.01     0.01  -0.00  -0.03     0.01   0.01   0.04
  28   1     0.03  -0.02  -0.01     0.02   0.01  -0.02     0.01   0.02   0.03
  29   8     0.17  -0.02   0.02    -0.07  -0.04   0.04     0.14   0.07  -0.13
  30   1     0.04  -0.00   0.01    -0.01  -0.01  -0.00     0.02   0.03  -0.01
  31   1     0.04  -0.02   0.00    -0.01   0.00   0.02     0.02  -0.02  -0.04
  32   8     0.11  -0.18  -0.20    -0.05   0.03   0.08    -0.07   0.03  -0.25
  33   1     0.02  -0.03  -0.05    -0.01   0.00   0.02     0.01  -0.00  -0.03
  34   1     0.04  -0.06  -0.04    -0.03   0.02   0.02    -0.05   0.01  -0.06
  35   8     0.07  -0.11  -0.03    -0.01  -0.10  -0.11    -0.12  -0.07  -0.13
  36   1     0.02  -0.03  -0.01     0.00  -0.01  -0.02    -0.03  -0.02  -0.05
  37   1     0.01  -0.02  -0.00     0.00  -0.02  -0.02    -0.02  -0.00  -0.02
  38   8    -0.04  -0.02   0.02     0.05  -0.02  -0.16    -0.18  -0.17  -0.01
  39   1    -0.01  -0.01   0.00     0.01  -0.01  -0.04    -0.04  -0.03  -0.01
  40   1    -0.01  -0.01  -0.01     0.02  -0.01  -0.04    -0.02  -0.04  -0.00
  41   8    -0.13  -0.00   0.00     0.12   0.00  -0.00    -0.08   0.07  -0.03
  42   1    -0.04   0.01   0.06     0.03  -0.01  -0.02    -0.02   0.02  -0.00
  43   1     0.01  -0.01  -0.02     0.01   0.00   0.01    -0.02   0.01   0.00
  44   8     0.00  -0.03  -0.08     0.13  -0.01  -0.03    -0.00  -0.18   0.03
  45   1    -0.00  -0.01  -0.02     0.03  -0.01  -0.00     0.01  -0.03   0.00
  46   1     0.01   0.00  -0.02     0.03   0.00  -0.01     0.00  -0.04   0.01
  47   8    -0.12  -0.13  -0.04     0.09  -0.12   0.10    -0.06  -0.13   0.04
  48   1    -0.03  -0.02  -0.01     0.03  -0.01   0.02    -0.02  -0.02   0.02
  49   1    -0.03  -0.04  -0.01     0.02  -0.03   0.02    -0.02  -0.02   0.00
  50   8    -0.09   0.02  -0.11     0.15   0.05   0.01    -0.02  -0.03   0.04
  51   1    -0.02  -0.00  -0.02     0.04   0.01   0.01    -0.01   0.00  -0.00
  52   1    -0.00  -0.00  -0.02     0.03   0.01  -0.00     0.00  -0.00   0.03
  53   8    -0.17   0.03  -0.00    -0.02  -0.04   0.02     0.00   0.01  -0.09
  54   1    -0.02   0.00   0.01     0.00  -0.01   0.01    -0.01   0.00  -0.02
  55   1    -0.06   0.02  -0.00    -0.00  -0.01   0.01     0.01  -0.01  -0.03
  56   8     0.01  -0.12   0.04     0.03   0.05   0.12    -0.02   0.06  -0.06
  57   1     0.01  -0.02   0.02     0.01   0.01   0.02    -0.01   0.01  -0.02
  58   1    -0.01  -0.03  -0.01     0.01   0.01   0.02    -0.01   0.01  -0.04
  59   8    -0.03  -0.01   0.13    -0.22  -0.10   0.13     0.03  -0.07   0.12
  60   1    -0.02   0.01   0.03    -0.09  -0.03   0.04    -0.00  -0.01   0.03
  61   1    -0.02  -0.01   0.02    -0.03  -0.03   0.03    -0.00  -0.02   0.02
  62   8    -0.10  -0.13  -0.05     0.04  -0.01  -0.06    -0.03   0.08  -0.10
  63   1    -0.03  -0.03  -0.00     0.01   0.01  -0.02    -0.02   0.04  -0.03
  64   1    -0.03  -0.03  -0.01     0.01   0.01   0.01     0.00   0.03  -0.01
  65   8     0.11  -0.13   0.04    -0.08  -0.11  -0.13    -0.01  -0.02   0.09
  66   1     0.03  -0.04   0.03    -0.02  -0.03  -0.02    -0.02  -0.01   0.02
  67   1     0.02  -0.03   0.02    -0.03  -0.03  -0.01     0.00  -0.02   0.02
  68   8    -0.01   0.08  -0.03     0.09  -0.03   0.00    -0.02  -0.01   0.12
  69   1    -0.03   0.03   0.01     0.03  -0.01  -0.01    -0.00   0.01   0.05
  70   1     0.01  -0.00   0.00     0.02   0.00   0.01    -0.01   0.00   0.02
  71   8    -0.03   0.25   0.07    -0.15  -0.06   0.14     0.22  -0.21   0.04
  72   1    -0.03   0.07   0.03    -0.02  -0.02   0.03     0.06  -0.06  -0.01
  73   1    -0.01   0.04   0.02    -0.04   0.01   0.03     0.06  -0.04   0.01
  74   8     0.11  -0.18   0.23     0.02  -0.06   0.06    -0.12  -0.08   0.11
  75   1     0.01  -0.00   0.04    -0.00  -0.01   0.02    -0.01  -0.04   0.02
  76   1     0.02  -0.04   0.04    -0.01   0.04  -0.01    -0.03   0.01   0.03
  77   8    -0.14  -0.08   0.02    -0.03   0.19   0.17     0.08   0.18   0.03
  78   1    -0.04  -0.02   0.01    -0.00   0.06   0.02     0.01   0.05   0.01
  79   1    -0.03  -0.02   0.02    -0.02   0.03   0.04     0.03   0.04   0.02
  80   8    -0.06  -0.05  -0.00    -0.03   0.38  -0.05    -0.12   0.17   0.13
  81   1    -0.01  -0.00  -0.00    -0.02   0.09  -0.00    -0.03   0.05   0.04
  82   1    -0.02  -0.01   0.00     0.00   0.06  -0.03    -0.03   0.01   0.02
  83   8    -0.08  -0.03   0.04    -0.12   0.24   0.15     0.20  -0.05  -0.05
  84   1    -0.01  -0.01   0.01    -0.03   0.08   0.02     0.03   0.00  -0.01
  85   1    -0.01  -0.02   0.01    -0.02   0.03   0.02     0.03  -0.01  -0.01
  86   8     0.12   0.07   0.12    -0.03   0.03   0.05    -0.08  -0.02  -0.11
  87   1     0.03   0.02   0.03    -0.00   0.00   0.01    -0.03   0.00  -0.04
  88   1     0.00   0.04   0.01    -0.01   0.00   0.02    -0.01  -0.02  -0.02
  89   8     0.08   0.05  -0.04     0.04  -0.02   0.01     0.05   0.23   0.08
  90   1     0.01   0.02  -0.03     0.01  -0.01  -0.00    -0.01   0.02   0.01
  91   1    -0.00   0.01  -0.00     0.01  -0.01  -0.00     0.01   0.04   0.01
                     22                     23                     24
                        a                      a                      a 
 Frequencies --    75.7418                76.0309                79.8547
 Red. masses --    13.3419                14.2722                14.4996
 Frc consts  --     0.0000                 0.0000                 0.0000
 IR Inten    --     0.8978                 2.2685                 2.9932
 Raman Activ --     0.0000                 0.0000                 0.0000
 Depolar     --     0.0000                 0.0000                 0.0000
 Atom AN      X      Y      Z        X      Y      Z        X      Y      Z
   1   1    -0.01   0.00  -0.00     0.03  -0.01   0.02    -0.00   0.02   0.02
   2   6    -0.03  -0.04  -0.06     0.12  -0.05   0.04     0.01   0.06   0.00
   3   1    -0.03  -0.02  -0.02     0.03  -0.02   0.01    -0.00   0.02  -0.01
   4   1     0.01  -0.01  -0.02     0.04  -0.02   0.01     0.02   0.02  -0.00
   5   6     0.01  -0.07  -0.10     0.12  -0.05   0.05    -0.03   0.06  -0.02
   6   1    -0.03  -0.02  -0.03     0.04  -0.02   0.01    -0.01   0.01  -0.00
   7   6     0.07  -0.19  -0.22     0.11  -0.02   0.07    -0.04   0.10  -0.01
   8   1     0.06  -0.09  -0.06     0.03  -0.01   0.02    -0.02   0.04  -0.01
   9   1    -0.00  -0.06  -0.11     0.04  -0.00   0.02    -0.01   0.03   0.01
  10   6     0.14  -0.00  -0.00     0.09  -0.06   0.02    -0.06   0.03  -0.02
  11   1     0.03  -0.01  -0.03     0.02  -0.02   0.00    -0.02   0.01   0.00
  12   1     0.02   0.00   0.05     0.03  -0.03   0.01    -0.02   0.00  -0.01
  13   1     0.09   0.02  -0.00     0.02  -0.01   0.01    -0.03   0.00  -0.01
  14   7     0.06  -0.13  -0.15     0.10  -0.01   0.08    -0.04   0.07  -0.05
  15   1     0.02  -0.04  -0.01     0.02  -0.01   0.02    -0.01   0.02  -0.02
  16   1    -0.00  -0.00  -0.04     0.02  -0.00   0.02    -0.01   0.01  -0.01
  17   8    -0.06  -0.12   0.07    -0.18  -0.01  -0.14     0.01   0.06   0.03
  18   1    -0.04  -0.04   0.01    -0.04  -0.00  -0.02    -0.01   0.02   0.01
  19   1    -0.01  -0.01   0.02    -0.02  -0.02  -0.05    -0.01   0.02   0.01
  20   8     0.10   0.10   0.13     0.09   0.15   0.07     0.00  -0.08   0.02
  21   1     0.02   0.01   0.02     0.02   0.04   0.02    -0.01  -0.02   0.01
  22   1     0.03   0.03   0.02     0.05   0.03   0.00    -0.01  -0.01   0.01
  23   8     0.10  -0.05  -0.04    -0.07   0.10   0.01     0.11   0.03  -0.00
  24   1     0.02  -0.00  -0.00    -0.02   0.00  -0.00     0.02  -0.00   0.00
  25   1     0.02  -0.01  -0.02    -0.01   0.03   0.01     0.02   0.00  -0.00
  26   8    -0.03   0.27   0.14    -0.00  -0.07  -0.10    -0.05   0.00   0.08
  27   1    -0.01   0.06   0.02    -0.00  -0.01  -0.00    -0.01   0.00   0.01
  28   1    -0.00   0.06   0.02    -0.00  -0.03  -0.01    -0.01   0.00   0.01
  29   8     0.07  -0.07  -0.04     0.06   0.14   0.05    -0.01  -0.08   0.02
  30   1     0.02  -0.02  -0.01     0.02   0.01   0.01    -0.01  -0.00   0.00
  31   1     0.02  -0.04  -0.00     0.02   0.05   0.02    -0.00  -0.03   0.01
  32   8     0.01   0.01  -0.09    -0.01   0.10   0.09     0.11  -0.08  -0.10
  33   1     0.01  -0.01  -0.02    -0.01   0.03   0.02     0.03  -0.01  -0.02
  34   1     0.02  -0.01  -0.02    -0.01   0.03   0.02     0.01  -0.02  -0.03
  35   8    -0.02   0.06   0.04    -0.02  -0.10  -0.10     0.06  -0.24  -0.18
  36   1    -0.00   0.01   0.01    -0.00  -0.01  -0.01     0.02  -0.05  -0.04
  37   1    -0.01   0.01   0.01    -0.01  -0.02  -0.03     0.02  -0.05  -0.04
  38   8     0.08  -0.08   0.02    -0.00  -0.13  -0.11    -0.13   0.02  -0.13
  39   1     0.02  -0.01   0.01     0.00  -0.03  -0.03    -0.02  -0.01  -0.04
  40   1     0.01  -0.02   0.02    -0.02  -0.03  -0.02    -0.05   0.01  -0.02
  41   8    -0.13   0.04  -0.02    -0.07   0.01  -0.04    -0.04  -0.04  -0.05
  42   1    -0.03   0.03   0.02    -0.01   0.02  -0.01    -0.01  -0.00   0.01
  43   1    -0.00  -0.00  -0.01    -0.01  -0.01  -0.00     0.00  -0.02  -0.01
  44   8    -0.06  -0.05   0.09    -0.20  -0.07   0.12    -0.20   0.06   0.15
  45   1    -0.01  -0.00   0.02    -0.02  -0.00   0.03    -0.05   0.01   0.04
  46   1    -0.01  -0.01   0.02    -0.05  -0.01   0.03    -0.04   0.04   0.03
  47   8    -0.12  -0.06   0.07    -0.04   0.06  -0.01    -0.02   0.22  -0.02
  48   1    -0.03   0.01   0.02     0.00  -0.01  -0.03    -0.00   0.04  -0.01
  49   1    -0.03  -0.00   0.01     0.02   0.02   0.02     0.00   0.04   0.01
  50   8    -0.04   0.18   0.05    -0.03  -0.16  -0.24    -0.09   0.05   0.09
  51   1    -0.01   0.06  -0.00    -0.00  -0.04  -0.06    -0.03   0.01   0.03
  52   1    -0.01   0.06   0.03    -0.00  -0.03  -0.05    -0.02   0.01   0.02
  53   8    -0.10  -0.03   0.15    -0.19  -0.01   0.12     0.05  -0.00  -0.03
  54   1    -0.02  -0.01   0.04    -0.04   0.01   0.02     0.02  -0.01  -0.00
  55   1    -0.02  -0.01   0.04    -0.05   0.01   0.02     0.01   0.00  -0.01
  56   8     0.02  -0.02  -0.23    -0.00  -0.02  -0.34     0.05  -0.02   0.14
  57   1     0.01   0.00  -0.05     0.02   0.01  -0.05     0.01  -0.01   0.03
  58   1     0.00  -0.00  -0.04     0.01   0.01  -0.05     0.01  -0.01   0.02
  59   8    -0.04  -0.20  -0.15    -0.01   0.08   0.02     0.05   0.03  -0.31
  60   1    -0.01  -0.07  -0.03    -0.01   0.03   0.00    -0.02  -0.02  -0.06
  61   1    -0.02  -0.04  -0.02    -0.01   0.02   0.00     0.01   0.02  -0.05
  62   8    -0.10   0.08   0.04     0.12   0.14   0.17     0.01  -0.08   0.30
  63   1    -0.03   0.03   0.01     0.04   0.03   0.03     0.00  -0.01   0.05
  64   1    -0.01   0.01  -0.00     0.03   0.03   0.04     0.04  -0.02   0.07
  65   8    -0.19   0.09  -0.15    -0.00  -0.05   0.18     0.01   0.03  -0.17
  66   1    -0.06   0.02  -0.01     0.00  -0.01   0.02    -0.01   0.00  -0.02
  67   1    -0.04   0.02  -0.05     0.00  -0.01   0.03     0.01   0.01  -0.07
  68   8    -0.03   0.04   0.07    -0.10   0.01   0.04     0.08   0.03  -0.09
  69   1    -0.00   0.02   0.04    -0.01   0.00   0.01     0.02  -0.01  -0.05
  70   1    -0.00   0.00  -0.01    -0.02  -0.00  -0.04     0.02   0.01  -0.00
  71   8    -0.03   0.08   0.11    -0.07  -0.14  -0.05    -0.04  -0.08   0.07
  72   1    -0.01   0.02   0.04    -0.01  -0.04  -0.02    -0.01  -0.02   0.01
  73   1    -0.01   0.01   0.03    -0.01  -0.02  -0.01    -0.01  -0.02   0.02
  74   8    -0.01   0.10   0.10    -0.06   0.02  -0.11    -0.02  -0.04   0.03
  75   1     0.00   0.02   0.02    -0.01  -0.01  -0.02    -0.01  -0.01   0.01
  76   1    -0.00   0.02   0.03    -0.02   0.01  -0.03    -0.01   0.01  -0.00
  77   8     0.06  -0.03  -0.11     0.09   0.10   0.13     0.38  -0.13   0.25
  78   1     0.03  -0.01  -0.02     0.02   0.03   0.02     0.07  -0.01   0.03
  79   1     0.01  -0.02  -0.03     0.02   0.03   0.02     0.07  -0.02   0.03
  80   8     0.07  -0.10   0.01    -0.01   0.14  -0.01    -0.06   0.08  -0.09
  81   1     0.01  -0.03   0.00    -0.01   0.03   0.01    -0.02   0.00  -0.04
  82   1     0.02  -0.03   0.00    -0.00   0.01  -0.01    -0.02   0.02  -0.03
  83   8    -0.07   0.04   0.04    -0.02   0.03   0.02    -0.05  -0.03   0.02
  84   1    -0.01  -0.00   0.01    -0.01   0.02  -0.00    -0.02   0.01  -0.01
  85   1    -0.02   0.01   0.01    -0.00  -0.01  -0.00    -0.01  -0.03  -0.01
  86   8     0.13   0.02  -0.02     0.21  -0.01   0.06    -0.02  -0.03   0.03
  87   1     0.03   0.00   0.00     0.04   0.01   0.01    -0.01  -0.01   0.01
  88   1     0.04   0.00  -0.00     0.03   0.01   0.00    -0.01  -0.00   0.00
  89   8     0.12   0.11   0.16    -0.01  -0.15  -0.05    -0.01   0.04   0.02
  90   1     0.01   0.01   0.02     0.02   0.01  -0.01    -0.01   0.00   0.01
  91   1     0.01   0.01   0.03    -0.02  -0.03   0.00     0.00   0.01   0.00
                     25                     26                     27
                        a                      a                      a 
 Frequencies --    81.4701                83.3011                85.4420
 Red. masses --    14.2295                14.1037                14.1031
 Frc consts  --     0.0000                 0.0000                 0.0000
 IR Inten    --     5.0242                 1.4398                 1.4138
 Raman Activ --     0.0000                 0.0000                 0.0000
 Depolar     --     0.0000                 0.0000                 0.0000
 Atom AN      X      Y      Z        X      Y      Z        X      Y      Z
   1   1    -0.00   0.02  -0.00     0.01   0.02   0.02     0.02  -0.03   0.01
   2   6    -0.01   0.09  -0.05     0.07   0.01   0.01     0.07  -0.11  -0.04
   3   1     0.00   0.03  -0.02     0.00   0.00  -0.03     0.01  -0.03  -0.03
   4   1     0.01   0.03  -0.02     0.05  -0.02  -0.00     0.04  -0.03  -0.02
   5   6    -0.07   0.10  -0.04     0.06   0.03   0.05     0.02  -0.10  -0.06
   6   1    -0.03   0.03  -0.01    -0.00   0.02   0.01    -0.01  -0.03  -0.02
   7   6    -0.06   0.11  -0.08     0.09   0.00  -0.02     0.03  -0.09  -0.10
   8   1    -0.01   0.04  -0.02     0.04  -0.00  -0.01     0.02  -0.04  -0.03
   9   1    -0.02   0.03  -0.02     0.02  -0.00  -0.02     0.01  -0.02  -0.05
  10   6    -0.07   0.07   0.01     0.10   0.01   0.18     0.03  -0.12  -0.01
  11   1    -0.02   0.03   0.02     0.02   0.01   0.06     0.00  -0.03  -0.00
  12   1    -0.02   0.02  -0.01     0.02   0.01   0.07     0.01  -0.03   0.01
  13   1    -0.02   0.00   0.00     0.05  -0.02   0.05     0.02  -0.04  -0.00
  14   7    -0.07   0.10  -0.12     0.08  -0.01  -0.05    -0.01  -0.04  -0.04
  15   1    -0.02   0.03  -0.04     0.02  -0.00  -0.02    -0.01  -0.02   0.00
  16   1    -0.01   0.02  -0.03     0.02  -0.01  -0.01    -0.00   0.01  -0.01
  17   8    -0.00  -0.06   0.11    -0.04   0.11   0.01    -0.10   0.05  -0.09
  18   1    -0.02  -0.02   0.02    -0.02   0.03   0.01    -0.03   0.02   0.02
  19   1     0.01   0.00   0.02    -0.01   0.03   0.00     0.00  -0.03  -0.04
  20   8     0.04  -0.03   0.10    -0.02  -0.04  -0.04     0.15   0.06   0.05
  21   1    -0.02  -0.01   0.03    -0.00  -0.01  -0.00     0.02   0.01   0.01
  22   1     0.01   0.01   0.02    -0.00  -0.02  -0.01     0.04   0.02   0.01
  23   8    -0.03   0.13   0.17    -0.16  -0.12  -0.04    -0.00   0.01   0.06
  24   1     0.01   0.04   0.03    -0.03  -0.02  -0.01     0.01   0.01   0.01
  25   1    -0.02   0.01   0.05    -0.03  -0.02  -0.01    -0.00   0.00   0.01
  26   8    -0.08  -0.04  -0.25    -0.01   0.07   0.03    -0.06   0.05   0.11
  27   1    -0.02  -0.01  -0.06     0.00   0.02   0.01    -0.02   0.01   0.03
  28   1    -0.03  -0.01  -0.04     0.00   0.01  -0.00    -0.01   0.01   0.03
  29   8    -0.19   0.00   0.15     0.04   0.03   0.01    -0.05   0.03   0.04
  30   1    -0.04   0.01   0.01     0.02   0.00  -0.01    -0.01   0.00   0.01
  31   1    -0.03   0.04   0.05     0.02   0.02   0.01    -0.01   0.02   0.01
  32   8    -0.01  -0.01   0.06    -0.02  -0.06   0.15    -0.00  -0.14  -0.11
  33   1    -0.01   0.02   0.02    -0.01  -0.02   0.02     0.00  -0.03  -0.02
  34   1    -0.01  -0.01   0.02    -0.01   0.01   0.03    -0.01  -0.04  -0.03
  35   8     0.02  -0.02  -0.09     0.08  -0.00  -0.15     0.04  -0.07  -0.07
  36   1     0.00  -0.01  -0.01     0.02  -0.00  -0.03     0.01  -0.03  -0.03
  37   1    -0.00   0.00  -0.02     0.02   0.02  -0.03     0.02  -0.01  -0.01
  38   8    -0.15  -0.10   0.07     0.04  -0.32  -0.02    -0.09   0.13   0.05
  39   1    -0.03  -0.02   0.01     0.01  -0.08  -0.01    -0.01   0.03   0.00
  40   1    -0.03  -0.03   0.02    -0.01  -0.08  -0.00    -0.02   0.03   0.01
  41   8     0.01   0.03  -0.07     0.22   0.08  -0.08     0.06   0.01   0.01
  42   1     0.00   0.03   0.01     0.05  -0.01  -0.05     0.01  -0.03  -0.01
  43   1     0.03  -0.00  -0.02     0.02   0.04  -0.02    -0.02   0.01   0.01
  44   8    -0.07  -0.12   0.05    -0.31  -0.30  -0.05    -0.06   0.15   0.06
  45   1    -0.01  -0.01   0.00    -0.06  -0.05  -0.02    -0.00   0.05   0.01
  46   1    -0.01  -0.02   0.01    -0.06  -0.05  -0.02    -0.02   0.03   0.01
  47   8     0.13  -0.02   0.15    -0.12  -0.04   0.03     0.08  -0.05   0.02
  48   1     0.04   0.01   0.03    -0.03   0.00   0.01     0.03  -0.05  -0.03
  49   1     0.04   0.01   0.03    -0.03  -0.00   0.00     0.05   0.01   0.03
  50   8     0.15   0.07   0.06    -0.09   0.12   0.02     0.12  -0.33  -0.24
  51   1     0.04   0.01   0.03    -0.03   0.03   0.01     0.07  -0.06  -0.08
  52   1     0.02   0.01  -0.02    -0.02   0.03   0.01     0.01  -0.05  -0.03
  53   8    -0.03  -0.02   0.06     0.07  -0.04  -0.03    -0.04  -0.02   0.06
  54   1     0.00  -0.00   0.01     0.01  -0.01  -0.01     0.00  -0.01   0.02
  55   1    -0.00  -0.01   0.03     0.01   0.00  -0.01    -0.02   0.01   0.01
  56   8     0.08  -0.10  -0.16    -0.06   0.01   0.29    -0.08   0.02   0.35
  57   1     0.03  -0.02  -0.03    -0.02  -0.00   0.06    -0.03   0.01   0.06
  58   1     0.02  -0.02  -0.02    -0.01  -0.00   0.07    -0.03  -0.00   0.05
  59   8     0.00  -0.11   0.04    -0.06  -0.03   0.05     0.00  -0.03   0.03
  60   1    -0.00  -0.04   0.02    -0.02  -0.00   0.01    -0.00  -0.01   0.01
  61   1     0.01  -0.02   0.02    -0.02  -0.01   0.01     0.01  -0.00   0.01
  62   8     0.06   0.09  -0.01    -0.09   0.03  -0.06     0.17   0.18   0.12
  63   1     0.02   0.01  -0.01    -0.02   0.01  -0.04     0.06   0.01   0.04
  64   1     0.01   0.02  -0.01    -0.01   0.02  -0.00     0.02   0.03   0.01
  65   8    -0.00   0.05  -0.23    -0.05   0.00   0.01    -0.04   0.10  -0.06
  66   1    -0.00   0.00  -0.03    -0.01   0.00  -0.00    -0.02   0.02   0.00
  67   1    -0.01   0.01  -0.04    -0.01  -0.00   0.01    -0.01   0.02  -0.01
  68   8     0.03   0.03   0.01    -0.02   0.08  -0.22    -0.02  -0.02  -0.03
  69   1    -0.00   0.02   0.03    -0.03   0.03  -0.04    -0.01  -0.02  -0.04
  70   1     0.01  -0.01  -0.01    -0.01   0.01  -0.02    -0.01  -0.00   0.03
  71   8     0.25   0.18  -0.04     0.03   0.13  -0.12     0.10   0.08   0.01
  72   1     0.05   0.05  -0.01     0.01   0.03  -0.02     0.02   0.02   0.00
  73   1     0.06   0.03  -0.02     0.01   0.03  -0.03     0.02   0.01  -0.00
  74   8     0.00  -0.05   0.16     0.02   0.05  -0.05    -0.09   0.00   0.13
  75   1     0.01   0.01   0.01     0.01   0.02  -0.02    -0.01   0.01   0.02
  76   1     0.01  -0.00   0.05     0.01   0.01   0.00    -0.02   0.00   0.04
  77   8    -0.01   0.06  -0.07     0.03   0.08   0.05    -0.09   0.02  -0.11
  78   1    -0.00   0.01  -0.01     0.02   0.02   0.02    -0.03   0.01  -0.02
  79   1     0.00   0.01  -0.01     0.00   0.01   0.01    -0.01   0.00  -0.02
  80   8    -0.07  -0.02   0.12     0.09   0.00   0.12    -0.10  -0.04   0.00
  81   1    -0.01   0.01   0.03     0.02  -0.00   0.04    -0.02  -0.00   0.00
  82   1    -0.03  -0.01   0.02     0.02  -0.03   0.02    -0.03   0.00   0.01
  83   8     0.20  -0.12  -0.12     0.04   0.07  -0.07     0.06  -0.08  -0.07
  84   1     0.04  -0.03  -0.02     0.02   0.01  -0.02     0.01  -0.02  -0.01
  85   1     0.05  -0.02  -0.03     0.02   0.01  -0.02     0.02  -0.02  -0.02
  86   8     0.11  -0.09   0.02    -0.12   0.07   0.04    -0.12   0.30  -0.17
  87   1     0.03  -0.02   0.01    -0.03   0.01   0.01    -0.01   0.05  -0.02
  88   1     0.03  -0.02   0.00    -0.03   0.02   0.01    -0.02   0.07  -0.04
  89   8    -0.19  -0.21  -0.06     0.14  -0.02  -0.04     0.01   0.03   0.08
  90   1    -0.02  -0.01  -0.00     0.05   0.01  -0.00     0.00   0.01   0.02
  91   1    -0.04  -0.04  -0.00     0.03  -0.01  -0.01    -0.00   0.00   0.02
                     28                     29                     30
                        a                      a                      a 
 Frequencies --    90.1428                91.6700                94.0052
 Red. masses --    13.3556                14.5228                12.2932
 Frc consts  --     0.0000                 0.0000                 0.0000
 IR Inten    --     1.7421                 3.0335                 1.6277
 Raman Activ --     0.0000                 0.0000                 0.0000
 Depolar     --     0.0000                 0.0000                 0.0000
 Atom AN      X      Y      Z        X      Y      Z        X      Y      Z
   1   1     0.01  -0.02   0.03    -0.01  -0.00  -0.01    -0.01   0.01   0.01
   2   6     0.03  -0.08   0.11    -0.05  -0.01   0.01    -0.02  -0.02  -0.06
   3   1     0.00  -0.04   0.06    -0.01  -0.00   0.01    -0.03   0.00  -0.07
   4   1    -0.00   0.01   0.03    -0.02  -0.00   0.00     0.03  -0.06  -0.02
   5   6     0.11  -0.16  -0.02    -0.02  -0.01   0.02    -0.05   0.06   0.10
   6   1     0.04  -0.08  -0.00    -0.01  -0.00   0.00    -0.07   0.07   0.03
   7   6     0.11  -0.16  -0.01    -0.01  -0.05   0.02     0.02  -0.06  -0.07
   8   1     0.03  -0.04  -0.00    -0.00  -0.02   0.01     0.05  -0.03  -0.02
   9   1     0.03  -0.04  -0.00    -0.01  -0.02   0.00    -0.02  -0.03  -0.06
  10   6     0.12  -0.07  -0.17     0.00   0.01   0.02     0.08   0.03   0.44
  11   1     0.03  -0.04  -0.10     0.02   0.01   0.02     0.06   0.04   0.22
  12   1     0.03  -0.03  -0.02     0.00   0.02  -0.01     0.01   0.07   0.10
  13   1     0.05   0.04  -0.05    -0.01  -0.01   0.01     0.03  -0.09   0.13
  14   7     0.11  -0.17  -0.02     0.02  -0.06   0.04     0.00  -0.06  -0.08
  15   1     0.02  -0.05  -0.01     0.01  -0.01   0.02     0.00  -0.02  -0.01
  16   1     0.03  -0.05  -0.01    -0.00  -0.01   0.01    -0.01  -0.01  -0.02
  17   8    -0.05   0.20  -0.02     0.05  -0.13  -0.01    -0.03   0.15   0.05
  18   1     0.01   0.05  -0.01     0.02  -0.04  -0.02    -0.02   0.04   0.03
  19   1    -0.02   0.05  -0.00     0.00  -0.02   0.00    -0.01   0.03   0.01
  20   8    -0.15  -0.02  -0.15    -0.00   0.06   0.02    -0.04  -0.06  -0.04
  21   1    -0.03   0.01  -0.02     0.02   0.01  -0.01    -0.02  -0.01  -0.00
  22   1    -0.03  -0.03  -0.04    -0.01   0.02   0.01    -0.01  -0.02  -0.01
  23   8    -0.04   0.17   0.13    -0.13  -0.27  -0.12     0.05   0.16  -0.02
  24   1    -0.00   0.04   0.03    -0.02  -0.03  -0.03    -0.00   0.02  -0.00
  25   1    -0.01   0.03   0.04    -0.02  -0.05  -0.03     0.01   0.03  -0.01
  26   8    -0.06   0.05  -0.04     0.03   0.05   0.06    -0.06   0.05   0.02
  27   1    -0.01   0.02  -0.00     0.01   0.01   0.02    -0.01   0.02  -0.01
  28   1    -0.01  -0.00  -0.02     0.01   0.01   0.00    -0.01   0.01   0.00
[...]
  35   8     0.00  -0.00   0.00     0.01  -0.00  -0.00    -0.00  -0.00   0.00
  36   1    -0.00   0.00  -0.00    -0.02   0.00  -0.00     0.00  -0.00   0.00
  37   1    -0.00  -0.00   0.00    -0.00  -0.00   0.00     0.00   0.00  -0.00
  38   8     0.00   0.00   0.00     0.00   0.00   0.00     0.00   0.00  -0.00
  39   1    -0.00  -0.00  -0.00    -0.00  -0.00  -0.00     0.00  -0.00   0.00
  40   1     0.00  -0.00   0.00     0.00  -0.00  -0.00     0.00   0.00   0.00
  41   8     0.00   0.00   0.00     0.00  -0.00   0.00    -0.00  -0.00  -0.00
  42   1     0.00  -0.00   0.00    -0.00   0.00  -0.00     0.00  -0.00   0.00
  43   1    -0.00  -0.00  -0.00    -0.00  -0.00  -0.00     0.00   0.00   0.00
  44   8    -0.00   0.00   0.00     0.00   0.00   0.00     0.00  -0.00  -0.00
  45   1     0.00  -0.00  -0.00     0.00  -0.00  -0.00    -0.00   0.00   0.00
  46   1    -0.00   0.00  -0.00    -0.00   0.00  -0.00     0.00  -0.00   0.00
  47   8    -0.01   0.00  -0.00     0.00  -0.00   0.00    -0.00   0.00   0.00
  48   1     0.02  -0.00   0.01    -0.00   0.00  -0.00     0.00  -0.00   0.00
  49   1    -0.00  -0.00  -0.00    -0.00   0.00   0.00     0.00  -0.00  -0.00
  50   8     0.04  -0.19  -0.13    -0.00   0.01   0.00     0.00  -0.00  -0.00
  51   1    -0.15   0.80   0.52     0.01  -0.03  -0.02    -0.00   0.01   0.01
  52   1    -0.01  -0.04  -0.00     0.00   0.00   0.00     0.00  -0.00  -0.00
  53   8    -0.00  -0.00   0.00     0.00   0.00   0.00    -0.00  -0.00  -0.00
  54   1     0.00  -0.00  -0.00     0.00  -0.00  -0.00    -0.00   0.00   0.00
  55   1     0.00   0.00  -0.00    -0.00  -0.00  -0.00     0.00   0.00  -0.00
  56   8     0.00   0.00  -0.00     0.00   0.01  -0.00    -0.00  -0.00   0.00
  57   1    -0.00  -0.00  -0.00    -0.00   0.00  -0.00     0.00  -0.00   0.00
  58   1    -0.00  -0.00   0.00    -0.01  -0.02   0.00     0.00   0.00  -0.00
  59   8     0.00   0.00   0.00    -0.00  -0.00  -0.00     0.00   0.00   0.00
  60   1    -0.00  -0.00  -0.01     0.00   0.00   0.00    -0.00  -0.00  -0.00
  61   1     0.00  -0.00   0.00    -0.00   0.00  -0.00     0.00  -0.00   0.00
  62   8     0.00   0.00   0.00    -0.00  -0.00  -0.00     0.00   0.00   0.00
  63   1    -0.01  -0.01  -0.00     0.01   0.01   0.00    -0.01  -0.01  -0.00
  64   1     0.00   0.00   0.00    -0.00  -0.00   0.00     0.00   0.00   0.00
  65   8    -0.00   0.00   0.00     0.00   0.00   0.00    -0.00  -0.00  -0.00
  66   1     0.00  -0.00  -0.00    -0.00   0.00   0.00    -0.00   0.00   0.00
  67   1    -0.00  -0.00  -0.00    -0.00  -0.00  -0.00     0.00   0.00   0.00
  68   8     0.00  -0.00   0.00     0.00  -0.00   0.00    -0.00   0.00  -0.00
  69   1     0.00   0.00  -0.00     0.00   0.00  -0.00    -0.00  -0.00   0.00
  70   1    -0.00  -0.00  -0.00    -0.00  -0.00  -0.00     0.00   0.00   0.00
  71   8    -0.00  -0.00   0.00     0.01   0.02  -0.01     0.06   0.20  -0.07
  72   1     0.00   0.01  -0.00    -0.03  -0.08   0.03    -0.26  -0.82   0.30
  73   1    -0.00  -0.00   0.00     0.00   0.00  -0.00     0.03   0.02  -0.02
  74   8    -0.00   0.00   0.00    -0.00  -0.00  -0.00    -0.01  -0.00  -0.01
  75   1    -0.00  -0.00  -0.00     0.00   0.00   0.00     0.02   0.02   0.02
  76   1     0.00   0.00  -0.00    -0.00  -0.00   0.00     0.01   0.00  -0.00
  77   8    -0.00   0.00   0.00    -0.00  -0.00  -0.00     0.00   0.00   0.00
  78   1    -0.00  -0.00  -0.00     0.00   0.00   0.00    -0.00  -0.01  -0.00
  79   1     0.00  -0.00  -0.00     0.00  -0.00  -0.00     0.00   0.00   0.00
  80   8     0.00  -0.00   0.00    -0.01   0.00  -0.00     0.06  -0.04   0.04
  81   1    -0.00   0.00  -0.00     0.02  -0.02   0.01    -0.25   0.16  -0.15
  82   1     0.00  -0.00   0.00    -0.00   0.00  -0.00     0.00  -0.01   0.01
  83   8    -0.00  -0.00   0.00     0.00  -0.00   0.00    -0.00  -0.00  -0.00
  84   1     0.00   0.00   0.00    -0.00  -0.00  -0.00     0.01   0.01   0.01
  85   1     0.00   0.00  -0.00     0.00   0.00  -0.00    -0.00  -0.00   0.00
  86   8     0.00   0.00  -0.00     0.00   0.00   0.00    -0.00  -0.00  -0.00
  87   1    -0.00  -0.00  -0.00    -0.00  -0.00  -0.00     0.00   0.00  -0.00
  88   1     0.00   0.00   0.00     0.00  -0.00  -0.00     0.00   0.00   0.00
  89   8    -0.00   0.00   0.00     0.00  -0.00  -0.00    -0.00  -0.00   0.00
  90   1     0.00  -0.00  -0.00    -0.00   0.00   0.00     0.00  -0.00  -0.00
  91   1    -0.00  -0.00  -0.00     0.00  -0.00  -0.00    -0.00   0.00  -0.00
                    262                    263                    264
                        a                      a                      a 
 Frequencies --  3668.0258              3669.4502              3671.8871
 Red. masses --     1.8374                 1.8361                 1.8374
 Frc consts  --     0.0000                 0.0000                 0.0000
 IR Inten    --    15.9017                12.5581                13.1574
 Raman Activ --     0.0000                 0.0000                 0.0000
 Depolar     --     0.0000                 0.0000                 0.0000
 Atom AN      X      Y      Z        X      Y      Z        X      Y      Z
   1   1     0.00   0.00   0.00    -0.00  -0.00  -0.00    -0.00   0.00   0.00
   2   6    -0.00  -0.00  -0.00     0.00   0.00   0.00     0.00  -0.00  -0.00
   3   1    -0.00   0.00   0.00    -0.00  -0.00  -0.00    -0.00   0.00  -0.00
   4   1     0.00   0.00  -0.00    -0.00  -0.00   0.00    -0.00   0.00  -0.00
   5   6    -0.00   0.00  -0.00     0.00   0.00   0.00     0.00  -0.00  -0.00
   6   1    -0.00  -0.00  -0.00     0.00  -0.00  -0.00     0.00  -0.00   0.00
   7   6     0.00  -0.00  -0.00     0.00   0.00  -0.00     0.00  -0.00  -0.00
   8   1     0.00  -0.00   0.00    -0.00  -0.00  -0.00    -0.00   0.00  -0.00
   9   1    -0.00   0.00   0.00    -0.00   0.00   0.00    -0.00   0.00   0.00
  10   6     0.00  -0.00   0.00     0.00  -0.00   0.00    -0.00  -0.00   0.00
  11   1     0.00   0.00  -0.00    -0.00   0.00  -0.00    -0.00  -0.00   0.00
  12   1    -0.00  -0.00  -0.00    -0.00  -0.00  -0.00    -0.00   0.00   0.00
  13   1    -0.00   0.00   0.00    -0.00  -0.00   0.00     0.00   0.00  -0.00
  14   7     0.00  -0.00   0.00    -0.00  -0.00   0.00     0.00  -0.00  -0.00
  15   1    -0.00   0.00  -0.00     0.00   0.00  -0.00    -0.00   0.00   0.00
  16   1     0.00   0.00  -0.00     0.00  -0.00  -0.00     0.00  -0.00   0.00
  17   8    -0.00   0.00  -0.00    -0.00   0.00  -0.00    -0.03   0.23  -0.05
  18   1     0.00  -0.01   0.00     0.00  -0.02   0.00     0.11  -0.93   0.21
  19   1    -0.00   0.00  -0.00    -0.00   0.00  -0.00    -0.01   0.03  -0.02
  20   8    -0.00  -0.00  -0.00    -0.00  -0.00  -0.00     0.00   0.00   0.00
  21   1    -0.00   0.00  -0.00    -0.00   0.00  -0.00     0.00  -0.00   0.00
  22   1     0.00   0.00   0.00     0.00   0.00   0.00    -0.01  -0.01  -0.02
  23   8     0.00  -0.00   0.00     0.00  -0.00   0.00    -0.00   0.00  -0.00
  24   1    -0.01   0.00  -0.01    -0.00   0.00  -0.00     0.00  -0.00   0.00
  25   1     0.00   0.00   0.00    -0.00   0.00   0.00    -0.00   0.00   0.00
  26   8     0.00  -0.00   0.00     0.00   0.00   0.00    -0.00  -0.00   0.00
  27   1    -0.00   0.00  -0.00     0.00  -0.00   0.00     0.00   0.00   0.00
  28   1     0.00   0.00   0.00    -0.00  -0.00  -0.00     0.00   0.00   0.00
  29   8     0.00  -0.00  -0.00     0.00  -0.00  -0.00     0.00   0.00  -0.00
  30   1     0.00   0.00  -0.00     0.00  -0.00  -0.00    -0.00  -0.00   0.00
  31   1    -0.00   0.00   0.00    -0.00   0.00   0.00    -0.00   0.00   0.00
  32   8     0.00   0.01   0.01     0.00   0.00   0.00    -0.00  -0.00  -0.00
  33   1    -0.00   0.00   0.00    -0.00   0.00   0.00     0.00   0.00  -0.00
  34   1    -0.00  -0.02  -0.05    -0.00  -0.01  -0.02     0.00   0.00   0.01
  35   8    -0.00  -0.00   0.00    -0.00  -0.00   0.00     0.00  -0.00  -0.00
  36   1     0.00   0.00   0.00     0.00  -0.00   0.00    -0.00   0.00  -0.00
  37   1     0.00   0.00  -0.00     0.00   0.00  -0.00    -0.00  -0.00   0.00
  38   8    -0.00  -0.00   0.00     0.00   0.00   0.00     0.00  -0.00  -0.00
  39   1     0.00   0.00   0.00    -0.00   0.00  -0.00    -0.00   0.00  -0.00
  40   1    -0.00   0.00  -0.00    -0.00  -0.00  -0.00     0.00   0.00  -0.00
  41   8     0.00  -0.00   0.00     0.00   0.00   0.00     0.00  -0.00   0.00
  42   1    -0.00   0.00  -0.00    -0.00   0.00  -0.00    -0.00   0.00  -0.00
  43   1     0.00   0.00   0.00    -0.00  -0.00  -0.00     0.00   0.00   0.00
  44   8     0.00  -0.00  -0.00    -0.00   0.00   0.01     0.00  -0.00  -0.00
  45   1    -0.00   0.00   0.00     0.01  -0.02  -0.03    -0.00   0.00   0.00
  46   1    -0.00   0.00  -0.00     0.00  -0.00   0.00    -0.00   0.00  -0.00
  47   8    -0.00   0.00   0.00     0.00  -0.00  -0.00     0.00  -0.00   0.00
  48   1    -0.00   0.00  -0.00     0.00  -0.00  -0.00    -0.00   0.00  -0.00
  49   1     0.00  -0.00  -0.00    -0.02   0.00   0.01     0.00   0.00  -0.00
  50   8     0.00  -0.00  -0.00     0.00  -0.00  -0.00    -0.00   0.02   0.02
  51   1    -0.00   0.01   0.00    -0.00   0.01   0.01     0.02  -0.09  -0.06
  52   1     0.00  -0.00  -0.00    -0.00  -0.00   0.00     0.00   0.00  -0.00
  53   8    -0.00  -0.00   0.00    -0.00  -0.00   0.00    -0.01  -0.00   0.00
  54   1    -0.00   0.00   0.00    -0.00  -0.00  -0.00    -0.00  -0.00  -0.00
  55   1     0.00   0.00  -0.00     0.00   0.00  -0.00     0.02   0.02  -0.00
  56   8    -0.00  -0.00   0.00     0.00  -0.00   0.00     0.00  -0.00  -0.00
  57   1    -0.00   0.00   0.00    -0.00   0.00   0.00    -0.00   0.00   0.00
  58   1     0.00   0.00  -0.00     0.00   0.00  -0.00     0.00   0.00  -0.00
  59   8     0.00   0.00   0.00     0.00   0.00   0.00    -0.00  -0.00  -0.00
  60   1    -0.00  -0.00  -0.00    -0.00  -0.01  -0.02     0.00   0.00   0.00
  61   1     0.00   0.00  -0.00    -0.00  -0.00   0.00    -0.00   0.00  -0.00
  62   8     0.02   0.01   0.01    -0.19  -0.12  -0.07     0.00   0.00   0.00
  63   1    -0.10  -0.06  -0.03     0.77   0.51   0.27    -0.01  -0.01  -0.00
  64   1     0.00   0.01  -0.00    -0.02  -0.03   0.00     0.00   0.00  -0.00
  65   8     0.00  -0.00  -0.00     0.00   0.00   0.00     0.00  -0.00  -0.00
  66   1    -0.00   0.00   0.00    -0.00   0.00  -0.00    -0.00   0.00   0.00
  67   1     0.00   0.00  -0.00    -0.00  -0.00  -0.00     0.00   0.00   0.00
  68   8     0.00   0.00  -0.00     0.00   0.00  -0.00    -0.00  -0.00   0.00
  69   1    -0.00  -0.01   0.01    -0.00  -0.00   0.00     0.00   0.00  -0.00
  70   1     0.00   0.00  -0.00    -0.00  -0.00  -0.00    -0.00  -0.00   0.00
  71   8     0.02   0.07  -0.03     0.00   0.01  -0.00    -0.00  -0.00   0.00
  72   1    -0.09  -0.29   0.11    -0.01  -0.05   0.02     0.00   0.01  -0.00
  73   1     0.01   0.01  -0.01     0.00   0.00  -0.00    -0.00  -0.00   0.00
  74   8     0.00  -0.00  -0.00     0.00  -0.00  -0.00    -0.00   0.00   0.00
  75   1     0.01   0.01   0.01     0.00   0.00   0.00    -0.00  -0.00  -0.00
  76   1    -0.03  -0.00   0.01    -0.00  -0.00   0.00     0.00   0.00  -0.00
  77   8    -0.00  -0.01  -0.00     0.00  -0.00  -0.00     0.00   0.00   0.00
  78   1     0.00   0.03   0.01     0.00   0.00   0.00    -0.00  -0.00  -0.00
  79   1    -0.00  -0.00  -0.00    -0.00  -0.00  -0.00    -0.00   0.00   0.00
  80   8    -0.17   0.10  -0.10    -0.02   0.01  -0.01     0.00  -0.00   0.00
  81   1     0.67  -0.43   0.42     0.08  -0.05   0.05    -0.01   0.01  -0.01
  82   1    -0.01   0.02  -0.03    -0.00   0.00  -0.00     0.00  -0.00   0.00
  83   8     0.00   0.00   0.00     0.00   0.00   0.00    -0.00  -0.00  -0.00
  84   1    -0.02  -0.02  -0.02    -0.00  -0.00  -0.00     0.00   0.00   0.00
  85   1    -0.00  -0.00   0.00    -0.00  -0.00   0.00     0.00   0.00  -0.00
  86   8     0.00  -0.00  -0.00     0.00  -0.00  -0.00     0.00  -0.00  -0.01
  87   1    -0.00  -0.00  -0.00    -0.00  -0.00   0.00    -0.00  -0.00  -0.00
  88   1    -0.00   0.00   0.00     0.00   0.00   0.00    -0.00   0.02   0.02
  89   8    -0.00  -0.00   0.00    -0.00   0.00   0.00     0.00  -0.00   0.00
  90   1     0.00  -0.00  -0.00     0.00  -0.00  -0.00     0.00  -0.00  -0.00
  91   1    -0.00   0.00  -0.00    -0.00   0.00  -0.00    -0.00   0.00  -0.00
                    265                    266                    267
                        a                      a                      a 
 Frequencies --  3680.3600              3681.3245              3684.7578
 Red. masses --     1.8391                 1.8388                 1.8404
 Frc consts  --     0.0000                 0.0000                 0.0000
 IR Inten    --    12.1536                13.1625                10.8053
 Raman Activ --     0.0000                 0.0000                 0.0000
 Depolar     --     0.0000                 0.0000                 0.0000
 Atom AN      X      Y      Z        X      Y      Z        X      Y      Z
   1   1    -0.00   0.00  -0.00     0.00   0.00   0.00     0.00   0.00  -0.00
   2   6    -0.00  -0.00   0.00    -0.00   0.00  -0.00    -0.00  -0.00  -0.00
   3   1    -0.00   0.00   0.00     0.00  -0.00  -0.00    -0.00   0.00   0.00
   4   1     0.00   0.00  -0.00    -0.00  -0.00   0.00     0.00  -0.00   0.00
   5   6    -0.00   0.00   0.00     0.00  -0.00   0.00    -0.00  -0.00  -0.00
   6   1     0.00  -0.00   0.00     0.00   0.00   0.00    -0.00   0.00  -0.00
   7   6    -0.00   0.00   0.00    -0.00   0.00  -0.00    -0.00  -0.00   0.00
   8   1    -0.00   0.00   0.00    -0.00   0.00   0.00     0.00   0.00   0.00
   9   1     0.00  -0.00  -0.00     0.00  -0.00  -0.00    -0.00   0.00   0.00
  10   6    -0.00   0.00   0.00     0.00  -0.00  -0.00    -0.00   0.00  -0.00
  11   1    -0.00  -0.00  -0.00    -0.00   0.00   0.00    -0.00  -0.00   0.00
  12   1     0.00   0.00   0.00     0.00  -0.00   0.00     0.00   0.00   0.00
  13   1    -0.00  -0.00   0.00     0.00   0.00   0.00     0.00   0.00   0.00
  14   7    -0.00  -0.00   0.00    -0.00  -0.00  -0.00     0.00  -0.00  -0.00
  15   1    -0.00   0.00   0.00     0.00  -0.00   0.00    -0.00   0.00   0.00
  16   1    -0.00  -0.00  -0.00     0.00   0.00   0.00    -0.00   0.00   0.00
  17   8    -0.00   0.00  -0.00     0.00  -0.01   0.00    -0.00   0.00  -0.00
  18   1     0.00  -0.00   0.00    -0.00   0.02  -0.00     0.00  -0.00   0.00
  19   1     0.00   0.00  -0.00     0.00  -0.00   0.00     0.00   0.00   0.00
  20   8     0.00   0.00   0.01     0.14   0.08   0.17    -0.00  -0.00  -0.00
  21   1     0.00  -0.00   0.00     0.02  -0.00   0.03    -0.00   0.00  -0.00
  22   1    -0.02  -0.01  -0.02    -0.56  -0.32  -0.72     0.01   0.01   0.02
  23   8    -0.00   0.00  -0.00    -0.00   0.00   0.00    -0.00   0.00  -0.00
  24   1     0.00  -0.00   0.00     0.00  -0.00   0.00     0.00  -0.00   0.00
  25   1     0.00  -0.00  -0.00     0.00  -0.00  -0.00    -0.00   0.00   0.00
  26   8    -0.00   0.00   0.00    -0.00   0.00  -0.00    -0.00  -0.00  -0.00
  27   1     0.00  -0.00  -0.00     0.00  -0.00   0.00    -0.00   0.00   0.00
  28   1     0.00   0.00   0.00     0.00   0.00   0.00     0.00   0.00   0.00
  29   8    -0.00   0.00   0.00     0.00   0.00  -0.00    -0.00   0.00   0.00
  30   1     0.00   0.00   0.00     0.00   0.00   0.00    -0.00  -0.00   0.00
  31   1     0.00  -0.00  -0.00    -0.00   0.00   0.00     0.00  -0.00  -0.00
  32   8    -0.00  -0.00  -0.00     0.00   0.00   0.00    -0.00  -0.00  -0.00
  33   1     0.00   0.00  -0.00     0.00  -0.00   0.00     0.00  -0.00  -0.00
  34   1     0.00   0.00   0.00    -0.00  -0.00  -0.01     0.00   0.00   0.01
  35   8     0.00  -0.00   0.00    -0.00   0.00   0.00     0.00   0.00  -0.00
  36   1    -0.00   0.00   0.00     0.00  -0.00   0.00    -0.00   0.00   0.00
  37   1     0.00   0.00  -0.00     0.00   0.00  -0.00    -0.00  -0.00   0.00
  38   8    -0.00  -0.00   0.00    -0.00  -0.00  -0.00    -0.00  -0.00  -0.00
  39   1     0.00  -0.00   0.00     0.00   0.00   0.00     0.00   0.00   0.00
  40   1     0.00   0.00  -0.00     0.00  -0.00   0.00     0.00   0.00   0.00
  41   8    -0.00  -0.00  -0.00    -0.00   0.00  -0.00    -0.00  -0.00  -0.00
  42   1    -0.01   0.00  -0.00     0.00  -0.00   0.00     0.00  -0.00   0.00
  43   1     0.01   0.02   0.01    -0.00  -0.00  -0.00     0.00   0.00   0.00
  44   8     0.00  -0.00   0.00    -0.00   0.00  -0.00     0.00  -0.00  -0.00
  45   1     0.00   0.00  -0.00     0.00  -0.00  -0.00    -0.00   0.00   0.00
  46   1    -0.01   0.01  -0.01     0.00  -0.00   0.00     0.00  -0.00   0.00
  47   8    -0.00   0.00   0.00    -0.00   0.00  -0.00    -0.00   0.00  -0.00
  48   1     0.00  -0.00  -0.00     0.00  -0.00   0.00    -0.00   0.00   0.00
  49   1     0.00  -0.00  -0.00     0.00  -0.00  -0.00     0.00  -0.00  -0.00
  50   8    -0.00  -0.00  -0.00     0.00  -0.00  -0.00    -0.00   0.00   0.00
  51   1    -0.00   0.00   0.00    -0.00   0.01   0.01     0.00  -0.01  -0.00
  52   1     0.00   0.00  -0.00    -0.00  -0.00  -0.00    -0.00   0.00   0.00
  53   8    -0.00  -0.00  -0.00     0.00  -0.00  -0.01    -0.00   0.00   0.00
  54   1    -0.00   0.00   0.00    -0.00   0.02   0.03     0.00  -0.00  -0.00
  55   1     0.00   0.00  -0.00    -0.00  -0.00  -0.00     0.00   0.00   0.00
  56   8    -0.00   0.00  -0.00     0.00  -0.00  -0.00    -0.00   0.00  -0.00
  57   1     0.00  -0.00  -0.00    -0.00   0.00   0.00     0.00   0.00   0.00
  58   1    -0.00  -0.00   0.00     0.00   0.00  -0.00    -0.00  -0.00   0.00
  59   8    -0.00  -0.00  -0.00     0.00   0.00   0.01     0.03   0.07   0.22
  60   1     0.00   0.00   0.01    -0.00  -0.01  -0.02    -0.13  -0.26  -0.93
  61   1    -0.00   0.00  -0.00     0.00  -0.00   0.00     0.00  -0.01   0.03
  62   8     0.00   0.00   0.00    -0.00  -0.00  -0.00     0.00   0.00   0.00
  63   1    -0.00  -0.00  -0.00     0.00   0.00   0.00    -0.02  -0.01  -0.01
  64   1     0.00   0.00  -0.00    -0.00  -0.00   0.00     0.00   0.00   0.00
  65   8     0.00   0.00   0.00    -0.00  -0.00  -0.00    -0.00  -0.00  -0.00
  66   1    -0.00   0.00  -0.00     0.00  -0.00  -0.00     0.00  -0.00  -0.00
  67   1    -0.00  -0.00  -0.00     0.00   0.00   0.00     0.02   0.02   0.01
  68   8     0.01   0.22  -0.09    -0.00  -0.01   0.00     0.00   0.00  -0.00
  69   1    -0.07  -0.89   0.38     0.00   0.03  -0.01    -0.00  -0.01   0.00
  70   1     0.02   0.03  -0.01     0.00  -0.00   0.00     0.00   0.00  -0.00
  71   8    -0.00  -0.00   0.00     0.00   0.00  -0.00    -0.00  -0.00   0.00
  72   1     0.00   0.01  -0.00    -0.00  -0.00   0.00     0.00   0.00  -0.00
  73   1    -0.00  -0.00   0.00     0.00   0.00  -0.00    -0.00  -0.00   0.00
  74   8    -0.00   0.00   0.00    -0.00  -0.00  -0.00    -0.00  -0.00  -0.00
  75   1    -0.00  -0.00  -0.00     0.00   0.00   0.00     0.00   0.00   0.00
  76   1     0.00   0.00  -0.00     0.00   0.00  -0.00    -0.00  -0.00   0.00
  77   8    -0.00   0.00   0.00     0.00  -0.00  -0.00     0.00  -0.00  -0.00
  78   1    -0.00  -0.00  -0.00     0.00   0.00   0.00     0.00  -0.00  -0.00
  79   1     0.00  -0.00  -0.00    -0.00   0.00   0.00    -0.02   0.01   0.02
  80   8     0.00  -0.00   0.00    -0.00   0.00  -0.00     0.00  -0.00   0.00
  81   1    -0.01   0.01  -0.01     0.00  -0.00   0.00    -0.00   0.00  -0.00
  82   1     0.00  -0.00   0.00    -0.00   0.00  -0.00    -0.00  -0.00   0.00
  83   8    -0.00  -0.00  -0.00    -0.00   0.00  -0.00    -0.00  -0.00  -0.00
  84   1     0.00   0.00   0.00     0.00   0.00   0.00     0.00   0.00   0.00
  85   1    -0.00  -0.00   0.00     0.00  -0.00   0.00    -0.00  -0.00   0.00
  86   8    -0.00  -0.00   0.00    -0.00  -0.00   0.00     0.00   0.00  -0.00
  87   1     0.00   0.00   0.00     0.02   0.02   0.00    -0.00  -0.00  -0.00
  88   1     0.00  -0.00  -0.00    -0.00  -0.00  -0.00    -0.00   0.00   0.00
  89   8    -0.00   0.00   0.00     0.00  -0.00  -0.00     0.00  -0.00  -0.00
  90   1     0.00  -0.00  -0.00    -0.00   0.00   0.00    -0.00   0.00   0.00
  91   1     0.00  -0.00   0.00     0.00   0.00  -0.00     0.00  -0.00   0.00
