      -----------------------------------------------------------      
     |                   =====================                   |     
     |                           x T B                           |     
     |                   =====================                   |     
     |                         S. Grimme                         |     
     |          Mulliken Center for Theoretical Chemistry        |     
     |                    University of Bonn                     |     
      -----------------------------------------------------------      

   * xtb version 6.5.1 (579679a) compiled by 'ehlert@majestix' on 2022-07-11

   xtb is free software: you can redistribute it and/or modify it under
   the terms of the GNU Lesser General Public License as published by
   the Free Software Foundation, either version 3 of the License, or
   (at your option) any later version.
   
   xtb is distributed in the hope that it will be useful,
   but WITHOUT ANY WARRANTY; without even the implied warranty of
   MERCHANTABILITY or FITNESS FOR A PARTICULAR PURPOSE.  See the
   GNU Lesser General Public License for more details.
   
   Cite this work as:
   * C. Bannwarth, E. Caldeweyher, S. Ehlert, A. Hansen, P. Pracht,
     J. Seibert, S. Spicher, S. Grimme, WIREs Comput. Mol. Sci., 2020, 11,
     e01493. DOI: 10.1002/wcms.1493
   
   for GFN2-xTB:
   * C. Bannwarth, S. Ehlert and S. Grimme., J. Chem. Theory Comput., 2019,
     15, 1652-1671. DOI: 10.1021/acs.jctc.8b01176
   for GFN1-xTB:
   * S. Grimme, C. Bannwarth, P. Shushkov, J. Chem. Theory Comput., 2017,
     13, 1989-2009. DOI: 10.1021/acs.jctc.7b00118
   for GFN0-xTB:
   * P. Pracht, E. Caldeweyher, S. Ehlert, S. Grimme, ChemRxiv, 2019, preprint.
     DOI: 10.26434/chemrxiv.8326202.v1
   for GFN-FF:
   * S. Spicher and S. Grimme, Angew. Chem. Int. Ed., 2020, 59, 15665-15673.
     DOI: 10.1002/anie.202004239
   
   for ALPB and GBSA implicit solvation:
   * S. Ehlert, M. Stahn, S. Spicher, S. Grimme, J. Chem. Theory Comput.,
     2021, 17, 4250-4261. DOI: 10.1021/acs.jctc.1c00471
   
   for DFT-D4:
   * E. Caldeweyher, C. Bannwarth and S. Grimme, J. Chem. Phys., 2017,
     147, 034112. DOI: 10.1063/1.4993215
   * E. Caldeweyher, S. Ehlert, A. Hansen, H. Neugebauer, S. Spicher,
     C. Bannwarth and S. Grimme, J. Chem. Phys., 2019, 150, 154122.
     DOI: 10.1063/1.5090222
   * E. Caldeweyher, J.-M. Mewes, S. Ehlert and S. Grimme, Phys. Chem. Chem. Phys.
     2020, 22, 8499-8512. DOI: 10.1039/D0CP00502A
   
   for sTDA-xTB:
   * S. Grimme and C. Bannwarth, J. Chem. Phys., 2016, 145, 054103.
     DOI: 10.1063/1.4959605
   
   in the mass-spec context:
   * V. Asgeirsson, C. Bauer and S. Grimme, Chem. Sci., 2017, 8, 4879.
     DOI: 10.1039/c7sc00601b
   * J. Koopman and S. Grimme, ACS Omega 2019, 4, 12, 15120-15133.
     DOI: 10.1021/acsomega.9b02011
   
   for metadynamics refer to:
   * S. Grimme, J. Chem. Theory Comput., 2019, 155, 2847-2862
     DOI: 10.1021/acs.jctc.9b00143
   
   for SPH calculations refer to:
   * S. Spicher and S. Grimme, J. Chem. Theory Comput., 2021, 17, 1701-1714
     DOI: 10.1021/acs.jctc.0c01306
   
   with help from (in alphabetical order)
   P. Atkinson, C. Bannwarth, F. Bohle, G. Brandenburg, E. Caldeweyher
   M. Checinski, S. Dohm, S. Ehlert, S. Ehrlich, I. Gerasimov, C. Hölzer
   A. Katbashev, J. Koopman, C. Lavigne, S. Lehtola, F. März, M. Müller,
   F. Musil, H. Neugebauer, J. Pisarek, C. Plett, P. Pracht, F. Pultar,
   J. Seibert, P. Shushkov, S. Spicher, M. Stahn, M. Steiner, T. Strunk,
   J. Stückrath, T. Rose, and J. Unsleber
   
 * started run on 2022/10/12 at 01:32:46.465     

           -------------------------------------------------
          |                Calculation Setup                |
           -------------------------------------------------

          program call               : xtb cluster.xyz --gfn2 --ohess
          hostname                   : cn0943
          coordinate file            : cluster.xyz
          omp threads                :                     6

   ID    Z sym.   atoms
    1    1 H      1, 3, 4, 6, 8, 9, 11-13, 15, 16, 18, 19, 21, 22, 24, 25,
                  27, 28, 30, 31, 33, 34, 36, 37, 39, 40, 42, 43, 45, 46, 48,
                  49, 51, 52, 54, 55, 57, 58, 60, 61, 63, 64, 66, 67, 69, 70,
                  72, 73, 75, 76, 78, 79, 81, 82, 84, 85, 87, 88, 90, 91
    2    6 C      2, 5, 7, 10
    3    7 N      14
    4    8 O      17, 20, 23, 26, 29, 32, 35, 38, 41, 44, 47, 50, 53, 56, 59,
                  62, 65, 68, 71, 74, 77, 80, 83, 86, 89

molecular fragmentation (1/2 indicates fragments):
111111111111111122222222222222222222222222222222222222222222222222222222
2222222222222222222
# atoms in fragment 1/2:    16    75
 fragment masses (1/2) :       73.14      450.38
CMA distance (Bohr)    :   1.004
constraining FC (au)   :  0.0500

           -------------------------------------------------
          |                 G F N 2 - x T B                 |
           -------------------------------------------------

        Reference                      10.1021/acs.jctc.8b01176
      * Hamiltonian:
        H0-scaling (s, p, d)           1.850000    2.230000    2.230000
        zeta-weighting                 0.500000
      * Dispersion:
        s8                             2.700000
        a1                             0.520000
        a2                             5.000000
        s9                             5.000000
      * Repulsion:
        kExp                           1.500000    1.000000
        rExp                           1.000000
      * Coulomb:
        alpha                          2.000000
        third order                    shell-resolved
        anisotropic                    true
        a3                             3.000000
        a5                             4.000000
        cn-shift                       1.200000
        cn-exp                         4.000000
        max-rad                        5.000000


          ...................................................
          :                      SETUP                      :
          :.................................................:
          :  # basis functions                 181          :
          :  # atomic orbitals                 181          :
          :  # shells                          121          :
          :  # electrons                       232          :
          :  max. iterations                   250          :
          :  Hamiltonian                  GFN2-xTB          :
          :  restarted?                      false          :
          :  GBSA solvation                  false          :
          :  PC potential                    false          :
          :  electronic temp.          300.0000000     K    :
          :  accuracy                    1.0000000          :
          :  -> integral cutoff          0.2500000E+02      :
          :  -> integral neglect         0.1000000E-07      :
          :  -> SCF convergence          0.1000000E-05 Eh   :
          :  -> wf. convergence          0.1000000E-03 e    :
          :  Broyden damping             0.4000000          :
          ...................................................

 iter      E             dE          RMSdq      gap      omega  full diag
   1   -145.2309882 -0.145231E+03  0.379E+00    8.64       0.0  T
   2   -145.2595253 -0.285372E-01  0.224E+00    9.47       1.0  T
   3   -145.2634824 -0.395710E-02  0.286E-01    9.35       1.0  T
   4   -145.2644350 -0.952563E-03  0.101E-01    9.22       1.0  T
   5   -145.2645500 -0.115012E-03  0.438E-02    9.21       1.0  T
   6   -145.2645632 -0.131650E-04  0.150E-02    9.22       1.0  T
   7   -145.2645643 -0.112281E-05  0.408E-03    9.23       2.6  T
   8   -145.2645645 -0.261096E-06  0.131E-03    9.23       8.0  T
   9   -145.2645645 -0.793494E-08  0.469E-04    9.23      22.4  T
  10   -145.2645645 -0.109230E-08  0.764E-05    9.23     137.3  T

   *** convergence criteria satisfied after 10 iterations ***

         #    Occupation            Energy/Eh            Energy/eV
      -------------------------------------------------------------
         1        2.0000           -0.6904405             -18.7878
       ...           ...                  ...                  ...
       110        2.0000           -0.4250397             -11.5659
       111        2.0000           -0.4214442             -11.4681
       112        2.0000           -0.4205454             -11.4436
       113        2.0000           -0.4166956             -11.3389
       114        2.0000           -0.4164371             -11.3318
       115        2.0000           -0.4055086             -11.0345
       116        2.0000           -0.3813378             -10.3767 (HOMO)
       117                         -0.0421704              -1.1475 (LUMO)
       118                         -0.0169999              -0.4626
       119                         -0.0109279              -0.2974
       120                         -0.0059398              -0.1616
       121                          0.0237015               0.6450
       ...                                ...                  ...
       181                          0.3634638               9.8904
      -------------------------------------------------------------
                  HL-Gap            0.3391674 Eh            9.2292 eV
             Fermi-level           -0.2117541 Eh           -5.7621 eV

 SCC (total)                   0 d,  0 h,  0 min,  0.112 sec
 SCC setup                      ...        0 min,  0.001 sec (  0.614%)
 Dispersion                     ...        0 min,  0.002 sec (  1.428%)
 classical contributions        ...        0 min,  0.000 sec (  0.154%)
 integral evaluation            ...        0 min,  0.008 sec (  7.060%)
 iterations                     ...        0 min,  0.073 sec ( 64.710%)
 molecular gradient             ...        0 min,  0.029 sec ( 25.460%)
 printout                       ...        0 min,  0.001 sec (  0.507%)

         :::::::::::::::::::::::::::::::::::::::::::::::::::::
         ::                     SUMMARY                     ::
         :::::::::::::::::::::::::::::::::::::::::::::::::::::
         :: total energy            -144.259861425873 Eh    ::
         :: gradient norm              0.000524545597 Eh/a0 ::
         :: HOMO-LUMO gap              9.229215149999 eV    ::
         ::.................................................::
         :: SCC energy              -145.264564549158 Eh    ::
         :: -> isotropic ES            0.778573051887 Eh    ::
         :: -> anisotropic ES         -0.136892115031 Eh    ::
         :: -> anisotropic XC         -0.003695629258 Eh    ::
         :: -> dispersion             -0.069640233991 Eh    ::
         :: repulsion energy           0.998213716289 Eh    ::
         :: add. restraining           0.000000000000 Eh    ::
         :: total charge              -0.000000000000 e     ::
         :::::::::::::::::::::::::::::::::::::::::::::::::::::

      ----------------------------------------------------------- 
     |                   =====================                   |
     |                        A N C O P T                        |
     |                   =====================                   |
     |               Approximate Normal Coordinate               |
     |                Rational Function Optimizer                |
      ----------------------------------------------------------- 

          ...................................................
          :                      SETUP                      :
          :.................................................:
          :   optimization level            normal          :
          :   max. optcycles                   273          :
          :   ANC micro-cycles                  20          :
          :   degrees of freedom               267          :
          :.................................................:
          :   RF solver                   davidson          :
          :   write xtbopt.log                true          :
          :   linear?                        false          :
          :   energy convergence         0.5000000E-05 Eh   :
          :   grad. convergence          0.1000000E-02 Eh/α :
          :   maximium RF displ.         1.0000000          :
          :   Hlow (freq-cutoff)         0.1000000E-01      :
          :   Hmax (freq-cutoff)         5.0000000          :
          :   S6 in model hess.         20.0000000          :
          ...................................................

generating ANC from model Hessian ...
Using Lindh-Hessian (1995)
 Shifting diagonal of input Hessian by   1.002982099063151E-002
 Lowest  eigenvalues of input Hessian
    0.010000    0.000000    0.000000    0.000000    0.000000    0.000000
    0.000000    0.010032    0.010100    0.010144    0.010181    0.010223
    0.010263    0.010283    0.010377    0.010403    0.010431    0.010462
 Highest eigenvalues
    1.410317    1.410595    1.415508    1.416096    1.416438    1.418362
 

........................................................................
.............................. CYCLE    1 ..............................
........................................................................
   1   -145.2645645 -0.145265E+03  0.199E-05    9.23       0.0  T
   2   -145.2645645 -0.306954E-11  0.106E-05    9.23     993.3  T
   3   -145.2645645 -0.909495E-12  0.301E-06    9.23    3477.2  T
     SCC iter.                  ...        0 min,  0.020 sec
     gradient                   ...        0 min,  0.029 sec
 * total energy  :  -144.2598614 Eh     change       -0.5400125E-10 Eh
   gradient norm :     0.0005253 Eh/α   predicted     0.0000000E+00 (-100.00%)
   displ. norm   :     0.0109913 α      lambda       -0.2587782E-06
   maximum displ.:     0.0035896 α      in ANC's #7, #19, #26, ...

   *** GEOMETRY OPTIMIZATION CONVERGED AFTER 1 ITERATIONS ***

------------------------------------------------------------------------
 total energy gain   :        -0.0000000 Eh       -0.0000 kcal/mol
 total RMSD          :         0.0000000 a0        0.0000 Å
 total power (kW/mol):        -0.0000001 (step)   -0.0000 (real)
------------------------------------------------------------------------

 ANCopt (total)                0 d,  0 h,  0 min,  0.266 sec
 optimizer setup                ...        0 min,  0.001 sec (  0.252%)
 model hessian                  ...        0 min,  0.197 sec ( 73.864%)
 ANC generation                 ...        0 min,  0.008 sec (  3.111%)
 coordinate transformation      ...        0 min,  0.000 sec (  0.039%)
 single point calculation       ...        0 min,  0.058 sec ( 21.923%)
 optimization log               ...        0 min,  0.002 sec (  0.644%)
 hessian update                 ...        0 min,  0.000 sec (  0.001%)
 rational function              ...        0 min,  0.000 sec (  0.068%)

================
 final structure:
================
91
 xtb: 6.5.1 (579679a)
H            1.56693209910000        2.29508542880000       -0.18862447940000
C            0.52449028180000        2.04130789400000       -0.35149132330000
H           -0.09433992020000        2.83295997010000        0.05696411670000
H            0.34626513130000        1.98706333420000       -1.42052347400000
C            0.19871741770000        0.70283684050000        0.30449852610000
H            0.28393098590000        0.80598113910000        1.39074821820000
C           -1.24330194430000        0.29582929650000       -0.01673413650000
H           -1.32844410010000        0.06331554680000       -1.07966542040000
H           -1.90432468290000        1.13530490750000        0.20720905770000
C            1.17919262330000       -0.36260089200000       -0.16866935220000
H            0.94820111880000       -1.33175809010000        0.26282834340000
H            2.18521068700000       -0.09089427850000        0.12685149370000
H            1.14408567920000       -0.44369625910000       -1.25039564090000
N           -1.72810904540000       -0.86619590290000        0.73487811890000
H           -1.16786908190000       -1.67887736510000        0.49343196860000
H           -1.56319490910000       -0.70700822960000        1.72989961930000
O           -2.61139289970000        3.60743571580000       -0.34348971410000
H           -2.71648846180000        4.53977267950000       -0.53575070480000
H           -2.15689569790000        3.54284773800000        0.52667692480000
O           -4.24951424160000        0.22026295120000       -2.26399171820000
H           -4.13348032460000       -0.51665717130000       -1.61874338400000
H           -4.80346048490000       -0.11393983310000       -2.96943589540000
O           -2.23371214350000       -3.41008464580000       -1.62753544070000
H           -1.68787091140000       -3.63940628310000       -0.85215784660000
H           -2.99442722480000       -2.92072765890000       -1.28326258440000
O           -2.53835892020000        1.62380994660000        3.47399015780000
H           -1.94730792080000        0.86659499660000        3.61054799520000
H           -3.32635842600000        1.25725139450000        3.02229952750000
O           -3.99685290260000       -1.65759274130000       -0.38053159430000
H           -3.14632342630000       -1.36849954720000        0.07492805360000
H           -4.69403206070000       -1.54337484340000        0.27058087580000
O           -0.57471591430000       -2.00718283120000       -3.10503646120000
H           -1.22111610480000       -2.49214894450000       -2.52899041300000
H           -0.63922804780000       -2.42552931050000       -3.96507902670000
O            2.08240103690000       -2.53521545160000       -2.56131598830000
H            1.12671916490000       -2.34955928430000       -2.59647222530000
H            2.43047469600000       -2.11956383430000       -3.37331156650000
O            4.11601178580000       -1.72452042090000       -0.80871537230000
H            3.45168019340000       -1.97785967090000       -1.47097502820000
H            4.26479852990000       -0.76067723350000       -0.92960397260000
O            2.51346154630000       -0.87287628000000       -4.66706841100000
H            1.61844407470000       -0.60071344350000       -4.89252450450000
H            2.88975868430000       -0.11124546860000       -4.19921531640000
O            4.24701900630000        0.93845875340000       -1.13657510520000
H            3.93535121570000        1.42970515290000       -0.35905671570000
H            3.63273575920000        1.14804409780000       -1.85733939820000
O            1.31079211760000        3.16494601940000        2.78792649660000
H            0.43289577150000        3.22225100810000        2.37605228170000
H            1.94205981930000        2.91265886600000        2.09161899370000
O           -1.40175001370000        3.48536076660000        2.07068881330000
H           -1.56050242020000        4.26592961540000        2.60415614530000
H           -1.82083056470000        2.73255541910000        2.58908302710000
O           -4.88352826500000        2.02611629270000       -0.23671273240000
H           -4.78522574670000        1.46564611860000       -1.02205529270000
H           -4.14153327120000        2.65184377810000       -0.27164337400000
O            0.00329527700000        0.65046940590000       -3.68333653610000
H           -0.74477288460000        1.21708356860000       -3.41299557630000
H           -0.23087456460000       -0.24643178200000       -3.39429708710000
O            1.41942123760000        1.04886304880000        4.33740696480000
H            1.54730433330000        1.32131012600000        5.24573926950000
H            1.35807030430000        1.88286891510000        3.79711008290000
O            3.44451174110000        2.18108012270000        1.25329515180000
H            4.21289429140000        2.67691146910000        1.53943098340000
H            3.45483667790000        1.34314840040000        1.78869622400000
O           -0.70835873700000       -0.46683577550000        3.50270329100000
H           -0.31323636060000       -1.34621356830000        3.35721230890000
H            0.02303876240000        0.06653410920000        3.85746531950000
O            2.49359805980000        1.51563783280000       -3.23100573520000
H            2.54493328770000        2.39251203790000       -3.61155964240000
H            1.55130409650000        1.23576465720000       -3.30179721890000
O           -0.59476250880000       -3.95537292330000        0.50549309850000
H           -0.85001026350000       -4.82584756780000        0.81453698220000
H            0.31899135410000       -4.06608501480000        0.10961199120000
O            0.61309724350000       -2.73126150700000        2.72212023400000
H            0.10218689630000       -3.15532159630000        2.01473746830000
H            1.50476415920000       -2.60595490260000        2.37121110360000
O            3.42422744340000        0.01738281550000        2.75701764100000
H            3.21822620620000       -0.83050789660000        2.33134720650000
H            2.70185927830000        0.21122134130000        3.37884125380000
O            3.19599040980000       -2.47404898970000        1.46854350290000
H            3.92109178280000       -2.93015770290000        1.89829020710000
H            3.57703328980000       -2.11702189840000        0.60157037320000
O            1.85139765420000       -4.17657564690000       -0.34179683170000
H            2.36139065710000       -3.66464656670000        0.30823664150000
H            2.01469277230000       -3.74979578520000       -1.19836967720000
O           -2.14759534900000        2.02966407980000       -2.72725844590000
H           -2.88143625420000        1.40294075180000       -2.63869952610000
H           -2.17211754450000        2.57613484080000       -1.93032216540000
O           -4.30619826670000        0.40632756740000        1.82815901660000
H           -3.50974084190000        0.01705546280000        1.45062529960000
H           -4.64290684180000        1.03775089780000        1.15519854770000
 
 Bond Distances (Angstroems)
 ---------------------------
H1-C2=1.0852         C2-H1=1.0852         C2-H3=1.0847         C2-H4=1.0851         C2-C5=1.5258         H3-C2=1.0847         
H4-C2=1.0851         C5-C2=1.5258         C5-H6=1.0945         C5-C7=1.5324         C5-C10=1.5233        H6-C5=1.0945         
C7-C5=1.5324         C7-H8=1.0914         C7-H9=1.0917         C7-N14=1.4664        H8-C7=1.0914         H9-C7=1.0917         
C10-C5=1.5233        C10-H11=1.0857       C10-H12=1.0832       C10-H13=1.0853       H11-C10=1.0857       H12-C10=1.0832       
H13-C10=1.0853       N14-C7=1.4664        N14-H15=1.0162       N14-H16=1.0211       H15-N14=1.0162       H16-N14=1.0211       
O17-H18=0.9577       O17-H19=0.9838       H18-O17=0.9577       H19-O17=0.9838       O20-H21=0.9863       O20-H22=0.9572       
H21-O20=0.9863       H22-O20=0.9572       O23-H24=0.9756       O23-H25=0.9678       H24-O23=0.9756       H25-O23=0.9678       
O26-H27=0.9702       O26-H28=0.9795       H27-O26=0.9702       H28-O26=0.9795       O29-H30=1.0072       O29-H31=0.9608       
H30-O29=1.0072       H31-O29=0.9608       O32-H33=0.9924       O32-H34=0.9586       H33-O32=0.9924       H34-O32=0.9586       
O35-H36=0.9742       O35-H37=0.9763       H36-O35=0.9742       H37-O35=0.9763       O38-H39=0.9717       O38-H40=0.9827       
H39-O38=0.9717       H40-O38=0.9827       O41-H42=0.9623       O41-H43=0.9698       H42-O41=0.9623       H43-O41=0.9698       
O44-H45=0.9711       O44-H46=0.9699       H45-O44=0.9711       H46-O44=0.9699       O47-H48=0.9714       O47-H49=0.9731       
H48-O47=0.9714       H49-O47=0.9731       O50-H51=0.9587       O50-H52=1.0055       H51-O50=0.9587       H52-O50=1.0055       
O53-H54=0.9698       O53-H55=0.9712       H54-O53=0.9698       H55-O53=0.9712       O56-H57=0.9766       O56-H58=0.9710       
H57-O56=0.9766       H58-O56=0.9710       O59-H60=0.9569       O59-H61=0.9956       H60-O59=0.9569       H61-O59=0.9956       
O62-H63=0.9582       O62-H64=0.9944       H63-O62=0.9582       H64-O62=0.9944       O65-H66=0.9750       O65-H67=0.9723       
H66-O65=0.9750       H67-O65=0.9723       O68-H69=0.9573       O68-H70=0.9855       H69-O68=0.9573       H70-O68=0.9855       
O71-H72=0.9583       O71-H73=1.0020       H72-O71=0.9583       H73-O71=1.0020       O74-H75=0.9702       O74-H76=0.9664       
H75-O74=0.9702       H76-O74=0.9664       O77-H78=0.9709       O77-H79=0.9727       H78-O77=0.9709       H79-O77=0.9727       
O80-H81=0.9584       O80-H82=1.0121       H81-O80=0.9584       H82-O80=1.0121       O83-H84=0.9720       O83-H85=0.9708       
H84-O83=0.9720       H85-O83=0.9708       O86-H87=0.9691       O86-H88=0.9666       H87-O86=0.9691       H88-O86=0.9666       
O89-H90=0.9635       O89-H91=0.9823       H90-O89=0.9635       H91-O89=0.9823       
 C  H  Rav=1.0874 sigma=0.0038  Rmin=1.0832  Rmax=1.0945     9
 C  C  Rav=1.5271 sigma=0.0039  Rmin=1.5233  Rmax=1.5324     3
 N  H  Rav=1.0186 sigma=0.0025  Rmin=1.0162  Rmax=1.0211     2
 N  C  Rav=1.4664 sigma=0.0000  Rmin=1.4664  Rmax=1.4664     1
 O  H  Rav=0.9741 sigma=0.0136  Rmin=0.9569  Rmax=1.0121    50
 
 selected bond angles (degree)
 --------------------
H3-C2-H1=108.71                H4-C2-H1=108.50                H4-C2-H3=108.29                C5-C2-H1=110.23                
C5-C2-H3=110.89                C5-C2-H4=110.16                H6-C5-C2=109.11                C7-C5-C2=110.11                
C7-C5-H6=107.84                C10-C5-C2=110.04               C10-C5-H6=108.91               C10-C5-C7=110.78               
H8-C7-C5=109.52                H9-C7-C5=108.82                H9-C7-H8=108.44                N14-C7-C5=114.47               
N14-C7-H8=107.73               N14-C7-H9=107.70               H11-C10-C5=111.34              H12-C10-C5=109.73              
H12-C10-H11=108.25             H13-C10-C5=109.94              H13-C10-H11=108.82             H13-C10-H12=108.71             
 
 selected dihedral angles (degree)
 ---------------------------------
H6-C5-C2-H1= 66.12            H6-C5-C2-H3=305.68            H6-C5-C2-H4=185.82            C7-C5-C2-H1=184.29            
C7-C5-C2-H3= 63.85            C7-C5-C2-H4=303.99            C10-C5-C2-H1=306.68           C10-C5-C2-H3=186.24           
C10-C5-C2-H4= 66.38           H8-C7-C5-C2= 68.10            H8-C7-C5-H6=187.06            H8-C7-C5-C10=306.16           
H9-C7-C5-C2=309.72            H9-C7-C5-H6= 68.67            H9-C7-C5-C10=187.77           N14-C7-C5-C2=189.19           
N14-C7-C5-H6=308.15           N14-C7-C5-C10= 67.24          H11-C10-C5-C2=181.70          H11-C10-C5-H6= 62.14          
H11-C10-C5-C7=303.70          H12-C10-C5-C2= 61.88          H12-C10-C5-H6=302.33          H12-C10-C5-C7=183.88          
H13-C10-C5-C2=302.38          H13-C10-C5-H6=182.82          H13-C10-C5-C7= 64.37          
 
 CMA Distance (Angstroems)
 ---------------------------
R(CMA):  0.5315
           -------------------------------------------------
          |                Final Singlepoint                |
           -------------------------------------------------

          ...................................................
          :                      SETUP                      :
          :.................................................:
          :  # basis functions                 181          :
          :  # atomic orbitals                 181          :
          :  # shells                          121          :
          :  # electrons                       232          :
          :  max. iterations                   250          :
          :  Hamiltonian                  GFN2-xTB          :
          :  restarted?                      false          :
          :  GBSA solvation                  false          :
          :  PC potential                    false          :
          :  electronic temp.          300.0000000     K    :
          :  accuracy                    1.0000000          :
          :  -> integral cutoff          0.2500000E+02      :
          :  -> integral neglect         0.1000000E-07      :
          :  -> SCF convergence          0.1000000E-05 Eh   :
          :  -> wf. convergence          0.1000000E-03 e    :
          :  Broyden damping             0.4000000          :
          ...................................................

 iter      E             dE          RMSdq      gap      omega  full diag
   1   -145.2645645 -0.145265E+03  0.119E-06    9.23       0.0  T
   2   -145.2645645 -0.284217E-13  0.715E-07    9.23   14655.9  T
   3   -145.2645645 -0.113687E-12  0.252E-07    9.23   41672.5  T

   *** convergence criteria satisfied after 3 iterations ***

         #    Occupation            Energy/Eh            Energy/eV
      -------------------------------------------------------------
         1        2.0000           -0.6904411             -18.7879
       ...           ...                  ...                  ...
       110        2.0000           -0.4250402             -11.5659
       111        2.0000           -0.4214452             -11.4681
       112        2.0000           -0.4205460             -11.4436
       113        2.0000           -0.4166961             -11.3389
       114        2.0000           -0.4164376             -11.3318
       115        2.0000           -0.4055094             -11.0345
       116        2.0000           -0.3813386             -10.3768 (HOMO)
       117                         -0.0421710              -1.1475 (LUMO)
       118                         -0.0170006              -0.4626
       119                         -0.0109286              -0.2974
       120                         -0.0059405              -0.1616
       121                          0.0237008               0.6449
       ...                                ...                  ...
       181                          0.3634635               9.8903
      -------------------------------------------------------------
                  HL-Gap            0.3391676 Eh            9.2292 eV
             Fermi-level           -0.2117548 Eh           -5.7621 eV

 SCC (total)                   0 d,  0 h,  0 min,  0.058 sec
 SCC setup                      ...        0 min,  0.001 sec (  0.886%)
 Dispersion                     ...        0 min,  0.001 sec (  2.115%)
 classical contributions        ...        0 min,  0.000 sec (  0.256%)
 integral evaluation            ...        0 min,  0.007 sec ( 12.440%)
 iterations                     ...        0 min,  0.020 sec ( 34.492%)
 molecular gradient             ...        0 min,  0.028 sec ( 48.755%)
 printout                       ...        0 min,  0.001 sec (  0.915%)

         :::::::::::::::::::::::::::::::::::::::::::::::::::::
         ::                     SUMMARY                     ::
         :::::::::::::::::::::::::::::::::::::::::::::::::::::
         :: total energy            -144.259861425927 Eh    ::
         :: gradient norm              0.000525217900 Eh/a0 ::
         :: HOMO-LUMO gap              9.229220218663 eV    ::
         ::.................................................::
         :: SCC energy              -145.264564549212 Eh    ::
         :: -> isotropic ES            0.778576212012 Eh    ::
         :: -> anisotropic ES         -0.136891667124 Eh    ::
         :: -> anisotropic XC         -0.003695536169 Eh    ::
         :: -> dispersion             -0.069640261898 Eh    ::
         :: repulsion energy           0.998213716289 Eh    ::
         :: add. restraining           0.000000000000 Eh    ::
         :: total charge              -0.000000000000 e     ::
         :::::::::::::::::::::::::::::::::::::::::::::::::::::

           ------------------------------------------------- 
          |                Numerical Hessian                |
           ------------------------------------------------- 
step length          :   0.00500
SCC accuracy         :   0.30000
Hessian scale factor :   1.00000
frozen atoms in %    :   0.00000    0
RMS gradient         :   0.00053
estimated CPU  time      9.04 min
estimated wall time      1.52 min

writing file <hessian>.

 projected vibrational frequencies (cm⁻¹)
eigval :       -0.00    -0.00     0.00     0.00     0.00     0.00
eigval :       25.00    32.91    34.39    40.41    41.50    43.67
eigval :       44.77    47.03    49.64    51.40    52.79    55.11
eigval :       55.82    57.92    60.42    62.02    64.68    65.42
eigval :       66.58    68.39    70.10    75.74    76.03    79.85
eigval :       81.47    83.30    85.44    90.14    91.67    94.01
eigval :       96.23   107.40   109.02   113.78   116.38   119.03
eigval :      120.82   129.64   139.46   141.85   145.77   150.37
eigval :      154.97   158.02   159.47   160.54   165.56   171.37
eigval :      176.87   183.64   188.10   191.68   194.64   200.60
eigval :      202.15   214.17   214.83   217.57   222.64   229.25
eigval :      231.28   232.75   237.49   243.55   253.72   256.35
eigval :      266.14   269.81   278.68   280.14   285.72   289.93
eigval :      296.58   304.64   306.20   314.85   318.46   327.88
eigval :      331.64   340.55   342.21   347.00   353.00   361.22
eigval :      370.54   376.24   380.62   385.61   386.05   391.00
eigval :      394.68   411.20   422.21   428.07   440.05   440.76
eigval :      443.30   445.76   457.26   463.27   469.90   476.16
eigval :      480.47   487.42   491.20   499.86   501.65   504.57
eigval :      510.87   514.40   519.64   525.18   529.83   534.31
eigval :      535.33   540.53   549.63   555.07   568.55   574.91
eigval :      576.44   583.25   588.39   592.27   600.51   601.56
eigval :      606.83   617.40   622.31   625.28   630.07   634.53
eigval :      640.34   647.96   660.98   679.34   683.62   691.74
eigval :      707.27   714.94   728.44   728.98   739.17   748.89
eigval :      759.82   773.74   789.04   801.13   813.08   826.47
eigval :      849.14   859.53   867.63   870.01   886.83   894.59
eigval :      944.42   950.20   952.87   976.28   979.18   994.46
eigval :     1021.94  1043.91  1089.01  1118.79  1169.22  1194.77
eigval :     1211.84  1304.24  1306.01  1337.34  1355.06  1406.13
eigval :     1420.24  1472.60  1485.19  1486.63  1496.42  1501.54
eigval :     1506.36  1513.09  1517.03  1518.21  1519.72  1522.60
eigval :     1523.56  1525.10  1526.58  1528.32  1530.78  1532.11
eigval :     1537.68  1539.56  1541.64  1544.34  1547.03  1548.14
eigval :     1551.04  1552.32  1557.61  1560.84  1562.82  1569.23
eigval :     1580.40  1583.61  2676.23  2683.72  2785.69  2850.50
eigval :     2940.21  2948.99  2986.12  2993.23  3001.03  3006.83
eigval :     3054.50  3064.58  3070.38  3073.25  3077.15  3090.95
eigval :     3124.91  3130.72  3163.40  3181.22  3192.64  3260.47
eigval :     3284.89  3302.62  3304.29  3318.36  3327.29  3356.09
eigval :     3358.70  3372.00  3383.44  3390.79  3394.85  3401.92
eigval :     3411.12  3417.53  3421.49  3422.91  3434.80  3435.73
eigval :     3449.94  3452.69  3461.01  3463.42  3465.88  3467.88
eigval :     3487.03  3513.64  3518.17  3565.22  3606.40  3620.94
eigval :     3662.61  3665.09  3667.34  3668.03  3669.45  3671.89
eigval :     3680.36  3681.32  3684.76
           -------------------------------------------------
          |                Property Printout                |
           -------------------------------------------------

    * Orbital Energies and Occupations

         #    Occupation            Energy/Eh            Energy/eV
      -------------------------------------------------------------
         1        2.0000           -0.6904411             -18.7879
       ...           ...                  ...                  ...
       104        2.0000           -0.4302552             -11.7078
       105        2.0000           -0.4293111             -11.6822
       106        2.0000           -0.4286992             -11.6655
       107        2.0000           -0.4283121             -11.6550
       108        2.0000           -0.4269889             -11.6190
       109        2.0000           -0.4253250             -11.5737
       110        2.0000           -0.4250402             -11.5659
       111        2.0000           -0.4214452             -11.4681
       112        2.0000           -0.4205460             -11.4436
       113        2.0000           -0.4166961             -11.3389
       114        2.0000           -0.4164376             -11.3318
       115        2.0000           -0.4055094             -11.0345
       116        2.0000           -0.3813386             -10.3768 (HOMO)
       117                         -0.0421710              -1.1475 (LUMO)
       118                         -0.0170006              -0.4626
       119                         -0.0109286              -0.2974
       120                         -0.0059405              -0.1616
       121                          0.0237008               0.6449
       122                          0.0306499               0.8340
       123                          0.0439882               1.1970
       124                          0.0578875               1.5752
       125                          0.0599915               1.6325
       126                          0.0678691               1.8468
       127                          0.0790624               2.1514
       ...                                ...                  ...
       181                          0.3634635               9.8903
      -------------------------------------------------------------
                  HL-Gap            0.3391676 Eh            9.2292 eV
             Fermi-level           -0.2117548 Eh           -5.7621 eV

     #   Z          covCN         q      C6AA      α(0)
     1   1 H        0.925     0.055     2.256     2.349
     2   6 C        3.758    -0.146    23.373     6.893
     3   1 H        0.925     0.042     2.419     2.432
     4   1 H        0.925     0.052     2.300     2.372
     5   6 C        3.849    -0.031    21.093     6.532
     6   1 H        0.924     0.045     2.378     2.411
     7   6 C        3.736    -0.020    21.016     6.542
     8   1 H        0.924     0.055     2.263     2.352
     9   1 H        0.924     0.049     2.328     2.386
    10   6 C        3.758    -0.148    23.409     6.898
    11   1 H        0.925     0.044     2.393     2.419
    12   1 H        0.925     0.061     2.187     2.312
    13   1 H        0.925     0.056     2.252     2.347
    14   7 N        2.643    -0.398    30.320     8.178
    15   1 H        0.860     0.175     1.246     1.748
    16   1 H        0.860     0.194     1.136     1.670
    17   8 O        1.608    -0.617    25.606     6.830
    18   1 H        0.806     0.283     0.775     1.382
    19   1 H        0.802     0.333     0.630     1.247
    20   8 O        1.607    -0.624    25.769     6.851
    21   1 H        0.802     0.336     0.623     1.240
    22   1 H        0.806     0.283     0.774     1.382
    23   8 O        1.609    -0.631    25.947     6.875
    24   1 H        0.804     0.319     0.667     1.283
    25   1 H        0.805     0.318     0.670     1.286
    26   8 O        1.610    -0.634    26.006     6.883
    27   1 H        0.804     0.325     0.651     1.267
    28   1 H        0.803     0.324     0.653     1.270
    29   8 O        1.603    -0.642    26.209     6.909
    30   1 H        0.814     0.325     0.650     1.265
    31   1 H        0.805     0.299     0.722     1.335
    32   8 O        1.606    -0.631    25.934     6.873
    33   1 H        0.802     0.340     0.613     1.230
    34   1 H        0.806     0.285     0.766     1.375
    35   8 O        1.607    -0.656    26.572     6.957
    36   1 H        0.804     0.317     0.673     1.288
    37   1 H        0.803     0.320     0.664     1.280
    38   8 O        1.612    -0.640    26.170     6.904
    39   1 H        0.804     0.322     0.658     1.274
    40   1 H        0.803     0.332     0.633     1.250
    41   8 O        1.609    -0.606    25.335     6.793
    42   1 H        0.805     0.300     0.720     1.333
    43   1 H        0.804     0.319     0.666     1.282
    44   8 O        1.608    -0.634    26.008     6.883
    45   1 H        0.804     0.310     0.693     1.307
    46   1 H        0.804     0.317     0.673     1.289
    47   8 O        1.609    -0.630    25.911     6.870
    48   1 H        0.804     0.318     0.670     1.286
    49   1 H        0.804     0.321     0.660     1.277
    50   8 O        1.603    -0.635    26.041     6.887
    51   1 H        0.805     0.283     0.774     1.382
    52   1 H        0.801     0.349     0.592     1.209
    53   8 O        1.608    -0.634    26.014     6.884
    54   1 H        0.804     0.312     0.687     1.302
    55   1 H        0.804     0.313     0.685     1.300
    56   8 O        1.608    -0.649    26.396     6.934
    57   1 H        0.803     0.323     0.655     1.272
    58   1 H        0.804     0.315     0.677     1.292
    59   8 O        1.606    -0.628    25.859     6.863
    60   1 H        0.806     0.282     0.778     1.385
    61   1 H        0.801     0.341     0.609     1.226
    62   8 O        1.606    -0.627    25.833     6.860
    63   1 H        0.806     0.282     0.779     1.386
    64   1 H        0.801     0.343     0.606     1.223
    65   8 O        1.608    -0.656    26.564     6.956
    66   1 H        0.804     0.319     0.666     1.282
    67   1 H        0.804     0.311     0.689     1.304
    68   8 O        1.608    -0.624    25.771     6.851
    69   1 H        0.806     0.279     0.786     1.393
    70   1 H        0.802     0.340     0.613     1.230
    71   8 O        1.604    -0.635    26.042     6.887
    72   1 H        0.806     0.285     0.767     1.375
    73   1 H        0.801     0.345     0.601     1.218
    74   8 O        1.609    -0.632    25.960     6.877
    75   1 H        0.804     0.308     0.697     1.311
    76   1 H        0.805     0.311     0.688     1.303
    77   8 O        1.609    -0.635    26.033     6.886
    78   1 H        0.804     0.316     0.675     1.291
    79   1 H        0.804     0.320     0.663     1.280
    80   8 O        1.602    -0.649    26.402     6.935
    81   1 H        0.806     0.284     0.772     1.380
    82   1 H        0.802     0.352     0.584     1.201
    83   8 O        1.610    -0.628    25.869     6.865
    84   1 H        0.804     0.320     0.663     1.279
    85   1 H        0.804     0.331     0.635     1.252
    86   8 O        1.609    -0.631    25.939     6.874
    87   1 H        0.804     0.314     0.680     1.295
    88   1 H        0.805     0.312     0.686     1.301
    89   8 O        1.608    -0.643    26.252     6.915
    90   1 H        0.805     0.304     0.708     1.322
    91   1 H        0.803     0.325     0.651     1.268

 Mol. C6AA /au·bohr⁶  :      43336.245655
 Mol. C8AA /au·bohr⁸  :     802095.053950
 Mol. α(0) /au        :        296.633186


Wiberg/Mayer (AO) data.
largest (>0.10) Wiberg bond orders for each atom

 ---------------------------------------------------------------------------
     #   Z sym  total        # sym  WBO       # sym  WBO       # sym  WBO
 ---------------------------------------------------------------------------
     1   1 H    0.997 --     2 C    0.978
     2   6 C    3.993 --     5 C    1.007     3 H    0.979     4 H    0.978
                             1 H    0.978
     3   1 H    0.998 --     2 C    0.979
     4   1 H    0.997 --     2 C    0.978
     5   6 C    3.996 --    10 C    1.010     2 C    1.007     7 C    0.989
                             6 H    0.962
     6   1 H    0.998 --     5 C    0.962
     7   6 C    3.975 --    14 N    1.009     5 C    0.989     8 H    0.969
                             9 H    0.968
     8   1 H    0.997 --     7 C    0.969
     9   1 H    0.997 --     7 C    0.968
    10   6 C    3.992 --     5 C    1.010    13 H    0.979    11 H    0.977
                            12 H    0.974
    11   1 H    0.998 --    10 C    0.977
    12   1 H    0.996 --    10 C    0.974
    13   1 H    0.997 --    10 C    0.979
    14   7 N    3.125 --     7 C    1.009    15 H    0.942    16 H    0.918
                            30 H    0.115
    15   1 H    0.969 --    14 N    0.942
    16   1 H    0.962 --    14 N    0.918
    17   8 O    1.864 --    18 H    0.916    19 H    0.817
    18   1 H    0.920 --    17 O    0.916
    19   1 H    0.889 --    17 O    0.817
    20   8 O    1.859 --    22 H    0.914    21 H    0.811
    21   1 H    0.887 --    20 O    0.811
    22   1 H    0.920 --    20 O    0.914
    23   8 O    1.882 --    25 H    0.865    24 H    0.845
    24   1 H    0.898 --    23 O    0.845
    25   1 H    0.899 --    23 O    0.865
    26   8 O    1.894 --    27 H    0.859    28 H    0.836    52 H    0.106
    27   1 H    0.894 --    26 O    0.859
    28   1 H    0.895 --    26 O    0.836
    29   8 O    1.879 --    31 H    0.897    30 H    0.770
    30   1 H    0.894 --    29 O    0.770    14 N    0.115
    31   1 H    0.910 --    29 O    0.897
    32   8 O    1.865 --    34 H    0.916    33 H    0.791
    33   1 H    0.885 --    32 O    0.791
    34   1 H    0.918 --    32 O    0.916
    35   8 O    1.834 --    36 H    0.847    37 H    0.841
    36   1 H    0.900 --    35 O    0.847
    37   1 H    0.898 --    35 O    0.841
    38   8 O    1.898 --    39 H    0.855    40 H    0.821    82 H    0.118
    39   1 H    0.896 --    38 O    0.855
    40   1 H    0.890 --    38 O    0.821
    41   8 O    1.864 --    42 H    0.902    43 H    0.869
    42   1 H    0.910 --    41 O    0.902
    43   1 H    0.898 --    41 O    0.869
    44   8 O    1.859 --    46 H    0.862    45 H    0.859
    45   1 H    0.904 --    44 O    0.859
    46   1 H    0.900 --    44 O    0.862
    47   8 O    1.887 --    48 H    0.858    49 H    0.855
    48   1 H    0.899 --    47 O    0.858
    49   1 H    0.897 --    47 O    0.855
    50   8 O    1.883 --    51 H    0.916    52 H    0.770
    51   1 H    0.920 --    50 O    0.916
    52   1 H    0.879 --    50 O    0.770    26 O    0.106
    53   8 O    1.859 --    54 H    0.864    55 H    0.859
    54   1 H    0.903 --    53 O    0.864
    55   1 H    0.902 --    53 O    0.859
    56   8 O    1.848 --    58 H    0.857    57 H    0.840
    57   1 H    0.895 --    56 O    0.840
    58   1 H    0.901 --    56 O    0.857
    59   8 O    1.874 --    60 H    0.914    61 H    0.791
    60   1 H    0.920 --    59 O    0.914
    61   1 H    0.883 --    59 O    0.791
    62   8 O    1.876 --    63 H    0.917    64 H    0.795
    63   1 H    0.921 --    62 O    0.917
    64   1 H    0.883 --    62 O    0.795
    65   8 O    1.823 --    67 H    0.853    66 H    0.842
    66   1 H    0.898 --    65 O    0.842
    67   1 H    0.903 --    65 O    0.853
    68   8 O    1.853 --    69 H    0.917    70 H    0.810
    69   1 H    0.922 --    68 O    0.917
    70   1 H    0.885 --    68 O    0.810
    71   8 O    1.880 --    72 H    0.915    73 H    0.777
    72   1 H    0.919 --    71 O    0.915
    73   1 H    0.881 --    71 O    0.777    83 O    0.101
    74   8 O    1.842 --    76 H    0.874    75 H    0.862
    75   1 H    0.905 --    74 O    0.862
    76   1 H    0.903 --    74 O    0.874
    77   8 O    1.875 --    78 H    0.855    79 H    0.853
    78   1 H    0.900 --    77 O    0.855
    79   1 H    0.897 --    77 O    0.853
    80   8 O    1.867 --    81 H    0.916    82 H    0.750
    81   1 H    0.919 --    80 O    0.916
    82   1 H    0.876 --    80 O    0.750    38 O    0.118
    83   8 O    1.895 --    84 H    0.854    85 H    0.854    73 H    0.101
    84   1 H    0.897 --    83 O    0.854
    85   1 H    0.890 --    83 O    0.854
    86   8 O    1.843 --    88 H    0.872    87 H    0.866
    87   1 H    0.901 --    86 O    0.866
    88   1 H    0.903 --    86 O    0.872
    89   8 O    1.850 --    90 H    0.881    91 H    0.830
    90   1 H    0.907 --    89 O    0.881
    91   1 H    0.894 --    89 O    0.830
 ---------------------------------------------------------------------------

Topologies differ in total number of bonds
Writing topology from bond orders to xtbtopo.mol

molecular dipole:
                 x           y           z       tot (Debye)
 q only:       -0.540       0.535      -0.099
   full:       -0.685       0.855      -0.027       2.786
molecular quadrupole (traceless):
                xx          xy          yy          xz          yz          zz
 q only:      -15.923      10.119      19.168      19.903       0.118      -3.245
  q+dip:      -24.064      13.545      26.118      30.272      -0.496      -2.053
   full:      -23.989      14.050      26.563      30.362      -0.742      -2.574

           -------------------------------------------------
          |                Geometry Summary                 |
           -------------------------------------------------

      molecular mass/u    :      523.5191556
   center of mass at/Å    :       -0.0178871      -0.0567335       0.0005448
  moments of inertia/u·Å² :        0.5117154E+04   0.5928398E+04   0.6848004E+04
rotational constants/cm⁻¹ :        0.3294338E-02   0.2843539E-02   0.2461685E-02

 * 61 selected distances

     #   Z          #   Z                                           value/Å
     1   1 H        2   6 C                                       1.0851792
     2   6 C        3   1 H                                       1.0846658
     2   6 C        4   1 H                                       1.0851436
     2   6 C        5   6 C                                       1.5257640
     5   6 C        6   1 H                                       1.0944582
     5   6 C        7   6 C                                       1.5324052 (max)
     7   6 C        8   1 H                                       1.0913913
     7   6 C        9   1 H                                       1.0917056
     5   6 C       10   6 C                                       1.5232785
    10   6 C       11   1 H                                       1.0857317
    10   6 C       12   1 H                                       1.0831572
    10   6 C       13   1 H                                       1.0853299
     7   6 C       14   7 N                                       1.4663771
    14   7 N       15   1 H                                       1.0161774
    14   7 N       16   1 H                                       1.0210805
    17   8 O       18   1 H                                       0.9577378
    17   8 O       19   1 H                                       0.9838341
    20   8 O       21   1 H                                       0.9863370
    20   8 O       22   1 H                                       0.9571832
    23   8 O       24   1 H                                       0.9755725
    23   8 O       25   1 H                                       0.9678232
    26   8 O       27   1 H                                       0.9702391
    26   8 O       28   1 H                                       0.9794555
    29   8 O       31   1 H                                       0.9607560
    32   8 O       33   1 H                                       0.9923984
    32   8 O       34   1 H                                       0.9585661
    35   8 O       36   1 H                                       0.9741828
    35   8 O       37   1 H                                       0.9763496
    38   8 O       39   1 H                                       0.9716508
    38   8 O       40   1 H                                       0.9827235
    41   8 O       42   1 H                                       0.9622679
    41   8 O       43   1 H                                       0.9698287
    44   8 O       45   1 H                                       0.9710792
    44   8 O       46   1 H                                       0.9699336
    47   8 O       48   1 H                                       0.9714043
    47   8 O       49   1 H                                       0.9731352
    50   8 O       51   1 H                                       0.9586854
    53   8 O       54   1 H                                       0.9698213
    53   8 O       55   1 H                                       0.9712424
    56   8 O       57   1 H                                       0.9765972
    56   8 O       58   1 H                                       0.9709847
    59   8 O       60   1 H                                       0.9568956 (min)
    59   8 O       61   1 H                                       0.9956157
    62   8 O       63   1 H                                       0.9581933
    62   8 O       64   1 H                                       0.9944298
    65   8 O       66   1 H                                       0.9749845
    65   8 O       67   1 H                                       0.9722561
    68   8 O       69   1 H                                       0.9572696
    68   8 O       70   1 H                                       0.9855245
    71   8 O       72   1 H                                       0.9583245
    74   8 O       75   1 H                                       0.9701788
    74   8 O       76   1 H                                       0.9663897
    77   8 O       78   1 H                                       0.9708505
    77   8 O       79   1 H                                       0.9726530
    80   8 O       81   1 H                                       0.9583786
    83   8 O       84   1 H                                       0.9719609
    83   8 O       85   1 H                                       0.9708365
    86   8 O       87   1 H                                       0.9690962
    86   8 O       88   1 H                                       0.9666122
    89   8 O       90   1 H                                       0.9635399
    89   8 O       91   1 H                                       0.9823157

 * 5 distinct bonds (by element types)

   Z      Z             #   av. dist./Å        max./Å        min./Å
   1 H    6 C           9     1.0874180     1.0944582     1.0831572
   6 C    6 C           3     1.5271493     1.5324052     1.5232785
   1 H    7 N           2     1.0186289     1.0210805     1.0161774
   6 C    7 N           1     1.4663771     1.4663771     1.4663771
   1 H    8 O          46     0.9712195     0.9956157     0.9568956

           -------------------------------------------------
          |               Frequency Printout                |
           -------------------------------------------------
 projected vibrational frequencies (cm⁻¹)
eigval :       -0.00    -0.00     0.00     0.00     0.00     0.00
eigval :       25.00    32.91    34.39    40.41    41.50    43.67
eigval :       44.77    47.03    49.64    51.40    52.79    55.11
eigval :       55.82    57.92    60.42    62.02    64.68    65.42
eigval :       66.58    68.39    70.10    75.74    76.03    79.85
eigval :       81.47    83.30    85.44    90.14    91.67    94.01
eigval :       96.23   107.40   109.02   113.78   116.38   119.03
eigval :      120.82   129.64   139.46   141.85   145.77   150.37
eigval :      154.97   158.02   159.47   160.54   165.56   171.37
eigval :      176.87   183.64   188.10   191.68   194.64   200.60
eigval :      202.15   214.17   214.83   217.57   222.64   229.25
eigval :      231.28   232.75   237.49   243.55   253.72   256.35
eigval :      266.14   269.81   278.68   280.14   285.72   289.93
eigval :      296.58   304.64   306.20   314.85   318.46   327.88
eigval :      331.64   340.55   342.21   347.00   353.00   361.22
eigval :      370.54   376.24   380.62   385.61   386.05   391.00
eigval :      394.68   411.20   422.21   428.07   440.05   440.76
eigval :      443.30   445.76   457.26   463.27   469.90   476.16
eigval :      480.47   487.42   491.20   499.86   501.65   504.57
eigval :      510.87   514.40   519.64   525.18   529.83   534.31
eigval :      535.33   540.53   549.63   555.07   568.55   574.91
eigval :      576.44   583.25   588.39   592.27   600.51   601.56
eigval :      606.83   617.40   622.31   625.28   630.07   634.53
eigval :      640.34   647.96   660.98   679.34   683.62   691.74
eigval :      707.27   714.94   728.44   728.98   739.17   748.89
eigval :      759.82   773.74   789.04   801.13   813.08   826.47
eigval :      849.14   859.53   867.63   870.01   886.83   894.59
eigval :      944.42   950.20   952.87   976.28   979.18   994.46
eigval :     1021.94  1043.91  1089.01  1118.79  1169.22  1194.77
eigval :     1211.84  1304.24  1306.01  1337.34  1355.06  1406.13
eigval :     1420.24  1472.60  1485.19  1486.63  1496.42  1501.54
eigval :     1506.36  1513.09  1517.03  1518.21  1519.72  1522.60
eigval :     1523.56  1525.10  1526.58  1528.32  1530.78  1532.11
eigval :     1537.68  1539.56  1541.64  1544.34  1547.03  1548.14
eigval :     1551.04  1552.32  1557.61  1560.84  1562.82  1569.23
eigval :     1580.40  1583.61  2676.23  2683.72  2785.69  2850.50
eigval :     2940.21  2948.99  2986.12  2993.23  3001.03  3006.83
eigval :     3054.50  3064.58  3070.38  3073.25  3077.15  3090.95
eigval :     3124.91  3130.72  3163.40  3181.22  3192.64  3260.47
eigval :     3284.89  3302.62  3304.29  3318.36  3327.29  3356.09
eigval :     3358.70  3372.00  3383.44  3390.79  3394.85  3401.92
eigval :     3411.12  3417.53  3421.49  3422.91  3434.80  3435.73
eigval :     3449.94  3452.69  3461.01  3463.42  3465.88  3467.88
eigval :     3487.03  3513.64  3518.17  3565.22  3606.40  3620.94
eigval :     3662.61  3665.09  3667.34  3668.03  3669.45  3671.89
eigval :     3680.36  3681.32  3684.76
 reduced masses (amu)
   1: 13.97   2: 13.85   3: 14.05   4: 14.09   5: 14.00   6: 14.06   7: 13.92   8: 13.88
   9: 14.08  10: 13.73  11: 14.07  12: 14.30  13: 14.23  14: 13.99  15: 13.69  16: 13.94
  17: 14.25  18: 14.09  19: 14.18  20: 14.24  21: 14.36  22: 14.31  23: 13.97  24: 14.14
  25: 13.74  26: 13.34  27: 14.34  28: 13.34  29: 14.27  30: 14.50  31: 14.23  32: 14.10
  33: 14.10  34: 13.36  35: 14.52  36: 12.29  37: 14.42  38: 14.08  39: 13.23  40: 11.36
  41: 13.66  42: 13.47  43: 13.94  44: 13.05  45: 12.62  46: 13.02  47: 11.43  48: 13.25
  49: 10.99  50: 11.50  51: 11.20  52: 11.49  53: 12.77  54:  9.58  55: 11.97  56: 12.13
  57: 13.64  58: 10.56  59: 13.03  60: 11.32  61: 12.32  62: 11.74  63: 12.07  64: 10.92
  65: 10.74  66:  9.61  67: 10.97  68:  9.57  69: 12.49  70: 12.56  71: 11.49  72:  9.58
  73:  7.39  74:  5.10  75: 11.42  76: 11.18  77: 10.30  78: 11.24  79: 11.47  80:  6.10
  81: 11.84  82: 12.73  83: 12.25  84: 13.46  85:  4.83  86: 11.03  87:  8.13  88:  7.42
  89:  7.46  90:  7.58  91: 12.80  92:  7.30  93:  9.54  94:  5.06  95: 12.54  96:  4.49
  97:  6.80  98: 12.95  99:  3.39 100:  3.25 101:  2.65 102:  2.93 103:  2.13 104:  2.15
 105:  2.34 106:  2.26 107:  1.75 108:  1.62 109:  1.77 110:  1.85 111:  1.86 112:  3.52
 113:  1.74 114:  3.75 115:  2.19 116:  3.65 117:  1.65 118:  2.04 119:  1.75 120:  1.72
 121:  1.98 122:  1.64 123:  2.16 124:  2.11 125:  1.63 126:  1.88 127:  1.93 128:  1.71
 129:  1.77 130:  1.77 131:  1.76 132:  1.75 133:  1.69 134:  1.78 135:  1.77 136:  1.73
 137:  1.77 138:  2.00 139:  1.96 140:  1.89 141:  1.77 142:  2.29 143:  2.12 144:  1.82
 145:  1.77 146:  2.14 147:  2.02 148:  2.14 149:  2.19 150:  1.92 151:  2.28 152:  2.03
 153:  2.20 154:  2.06 155:  2.03 156:  1.93 157:  4.74 158:  1.95 159:  2.17 160:  2.40
 161:  3.52 162:  4.26 163:  1.82 164:  2.21 165:  2.28 166:  2.54 167:  5.21 168:  3.94
 169:  1.92 170:  2.74 171: 10.20 172:  5.18 173:  6.73 174:  6.08 175:  6.47 176:  3.23
 177:  3.59 178:  4.56 179:  4.44 180:  3.29 181:  3.03 182:  1.82 183:  1.67 184:  1.69
 185:  1.67 186:  1.62 187:  1.93 188:  2.04 189:  1.88 190:  1.93 191:  2.00 192:  2.00
 193:  2.01 194:  2.04 195:  2.05 196:  2.04 197:  2.05 198:  2.04 199:  2.05 200:  2.04
 201:  2.04 202:  2.07 203:  2.06 204:  2.06 205:  2.05 206:  2.04 207:  2.03 208:  2.11
 209:  1.99 210:  2.04 211:  2.09 212:  1.97 213:  1.90 214:  1.94 215:  1.88 216:  1.89
 217:  1.89 218:  1.74 219:  1.92 220:  1.54 221:  1.87 222:  1.87 223:  1.77 224:  1.71
 225:  1.91 226:  1.76 227:  1.44 228:  1.68 229:  1.87 230:  1.88 231:  1.88 232:  1.97
 233:  1.90 234:  1.97 235:  2.10 236:  1.98 237:  1.89 238:  1.94 239:  2.01 240:  2.02
 241:  2.06 242:  1.84 243:  1.93 244:  1.83 245:  2.12 246:  2.07 247:  1.76 248:  1.63
 249:  1.74 250:  1.73 251:  1.77 252:  1.72 253:  1.80 254:  1.78 255:  1.64 256:  1.70
 257:  1.73 258:  1.83 259:  1.75 260:  1.65 261:  1.74 262:  1.81 263:  1.80 264:  1.83
 265:  1.84 266:  1.83 267:  1.84 268:  1.84 269:  1.84 270:  1.84 271:  1.84 272:  1.84
 273:  1.84
 IR intensities (km·mol⁻¹)
   1:  0.01   2:  0.01   3:  0.03   4:  0.03   5:  0.03   6:  0.04   7:  3.66   8:  0.61
   9:  0.30  10:  1.41  11:  0.52  12:  1.05  13:  0.56  14:  1.68  15:  1.74  16:  0.20
  17:  0.55  18:  0.37  19:  0.02  20:  2.96  21:  0.85  22:  1.00  23:  0.97  24:  1.58
  25:  0.77  26:  1.24  27:  0.44  28:  0.90  29:  2.27  30:  2.99  31:  5.02  32:  1.44
  33:  1.41  34:  1.74  35:  3.03  36:  1.63  37:  0.96  38:  1.48  39:  1.50  40:  1.30
  41:  1.57  42:  1.69  43:  3.82  44:  1.32  45:  2.88  46:  3.68  47:  5.02  48:  7.24
  49: 15.64  50: 14.45  51:  5.05  52:  3.75  53:  7.93  54: 25.06  55:  9.02  56:  3.12
  57:  3.80  58:  2.05  59: 12.85  60:  2.39  61:  3.50  62: 25.96  63: 13.61  64: 13.61
  65:  8.15  66: 14.13  67: 10.54  68: 15.64  69: 78.94  70:  5.87  71: 23.91  72: 33.51
  73: 92.40  74: 15.54  75:  5.42  76: 49.05  77: 64.71  78: 48.87  79: 26.96  80: 15.09
  81: 16.12  82: 16.01  83: 28.31  84: 10.59  85:161.34  86: 35.94  87: 79.03  88: 32.41
  89: 20.04  90: 97.34  91: 58.07  92: 15.75  93: 69.46  94:117.75  95: 53.18  96:  8.05
  97:108.68  98: 28.17  99: 17.51 100: 29.07 101: 40.24 102: 21.66 103: 40.03 104: 12.00
 105:  4.38 106: 66.11 107: 27.84 108: 30.49 109: 38.91 110: 18.62 111: 26.73 112: 23.29
 113: 18.46 114: 10.02 115:  9.71 116: 15.41 117:  5.82 118: 10.55 119: 47.65 120: 21.39
 121: 78.75 122: 23.08 123: 48.75 124:117.76 125: 65.30 126: 18.98 127:133.87 128: 34.65
 129: 86.40 130: 55.96 131: 66.05 132: 75.90 133: 63.20 134:  4.70 135: 19.32 136:110.95
 137: 72.09 138:100.84 139: 50.71 140:104.17 141: 98.96 142:131.82 143:469.43 144: 12.26
 145:206.56 146:  6.17 147:865.24 148:833.46 149:516.16 150: 50.37 151:537.62 152:659.95
 153:590.23 154:286.91 155:760.05 156:785.31 157: 70.89 158: 86.58 159:147.18 160:139.15
 161: 74.71 162: 22.46 163: 40.60 164:112.71 165:133.77 166: 84.91 167: 35.29 168: 30.40
 169:246.61 170: 31.92 171:137.91 172: 75.63 173: 32.42 174: 10.54 175:  1.55 176:  2.52
 177: 18.46 178:  5.34 179:  3.09 180: 12.21 181:  4.25 182:  9.71 183:  9.85 184:  6.41
 185:  8.27 186: 34.10 187: 36.18 188: 24.06 189: 24.50 190: 27.77 191:138.30 192: 58.77
 193:  2.29 194:462.52 195:286.41 196:280.38 197:267.46 198:280.86 199:116.80 200:316.02
 201:172.53 202:232.03 203:332.72 204:211.19 205: 25.55 206:198.56 207:272.51 208:483.55
 209:229.82 210:179.66 211: 11.53 212: 96.10 213:****** 214:****** 215:****** 216:******
 217:274.28 218:  6.41 219: 20.79 220:  9.67 221:****** 222:****** 223: 41.57 224:  6.96
 225: 12.47 226: 20.04 227: 19.54 228:  3.79 229:****** 230:420.91 231:344.68 232:925.99
 233:****** 234:221.84 235:551.01 236:518.11 237:217.60 238:714.46 239:269.48 240:536.49
 241:****** 242:****** 243: 44.58 244: 79.27 245:230.31 246:389.94 247:438.92 248: 91.73
 249: 65.94 250:238.86 251:297.89 252:254.53 253:190.82 254:443.30 255: 66.27 256:138.48
 257: 37.27 258:547.31 259:226.22 260: 79.30 261:171.04 262:173.85 263: 39.29 264: 20.70
 265: 12.57 266: 14.45 267: 11.03 268: 15.90 269: 12.56 270: 13.16 271: 12.15 272: 13.16
 273: 10.81
 Raman intensities (amu)
   1:  0.00   2:  0.00   3:  0.00   4:  0.00   5:  0.00   6:  0.00   7:  0.00   8:  0.00
   9:  0.00  10:  0.00  11:  0.00  12:  0.00  13:  0.00  14:  0.00  15:  0.00  16:  0.00
  17:  0.00  18:  0.00  19:  0.00  20:  0.00  21:  0.00  22:  0.00  23:  0.00  24:  0.00
  25:  0.00  26:  0.00  27:  0.00  28:  0.00  29:  0.00  30:  0.00  31:  0.00  32:  0.00
  33:  0.00  34:  0.00  35:  0.00  36:  0.00  37:  0.00  38:  0.00  39:  0.00  40:  0.00
  41:  0.00  42:  0.00  43:  0.00  44:  0.00  45:  0.00  46:  0.00  47:  0.00  48:  0.00
  49:  0.00  50:  0.00  51:  0.00  52:  0.00  53:  0.00  54:  0.00  55:  0.00  56:  0.00
  57:  0.00  58:  0.00  59:  0.00  60:  0.00  61:  0.00  62:  0.00  63:  0.00  64:  0.00
  65:  0.00  66:  0.00  67:  0.00  68:  0.00  69:  0.00  70:  0.00  71:  0.00  72:  0.00
  73:  0.00  74:  0.00  75:  0.00  76:  0.00  77:  0.00  78:  0.00  79:  0.00  80:  0.00
  81:  0.00  82:  0.00  83:  0.00  84:  0.00  85:  0.00  86:  0.00  87:  0.00  88:  0.00
  89:  0.00  90:  0.00  91:  0.00  92:  0.00  93:  0.00  94:  0.00  95:  0.00  96:  0.00
  97:  0.00  98:  0.00  99:  0.00 100:  0.00 101:  0.00 102:  0.00 103:  0.00 104:  0.00
 105:  0.00 106:  0.00 107:  0.00 108:  0.00 109:  0.00 110:  0.00 111:  0.00 112:  0.00
 113:  0.00 114:  0.00 115:  0.00 116:  0.00 117:  0.00 118:  0.00 119:  0.00 120:  0.00
 121:  0.00 122:  0.00 123:  0.00 124:  0.00 125:  0.00 126:  0.00 127:  0.00 128:  0.00
 129:  0.00 130:  0.00 131:  0.00 132:  0.00 133:  0.00 134:  0.00 135:  0.00 136:  0.00
 137:  0.00 138:  0.00 139:  0.00 140:  0.00 141:  0.00 142:  0.00 143:  0.00 144:  0.00
 145:  0.00 146:  0.00 147:  0.00 148:  0.00 149:  0.00 150:  0.00 151:  0.00 152:  0.00
 153:  0.00 154:  0.00 155:  0.00 156:  0.00 157:  0.00 158:  0.00 159:  0.00 160:  0.00
 161:  0.00 162:  0.00 163:  0.00 164:  0.00 165:  0.00 166:  0.00 167:  0.00 168:  0.00
 169:  0.00 170:  0.00 171:  0.00 172:  0.00 173:  0.00 174:  0.00 175:  0.00 176:  0.00
 177:  0.00 178:  0.00 179:  0.00 180:  0.00 181:  0.00 182:  0.00 183:  0.00 184:  0.00
 185:  0.00 186:  0.00 187:  0.00 188:  0.00 189:  0.00 190:  0.00 191:  0.00 192:  0.00
 193:  0.00 194:  0.00 195:  0.00 196:  0.00 197:  0.00 198:  0.00 199:  0.00 200:  0.00
 201:  0.00 202:  0.00 203:  0.00 204:  0.00 205:  0.00 206:  0.00 207:  0.00 208:  0.00
 209:  0.00 210:  0.00 211:  0.00 212:  0.00 213:  0.00 214:  0.00 215:  0.00 216:  0.00
 217:  0.00 218:  0.00 219:  0.00 220:  0.00 221:  0.00 222:  0.00 223:  0.00 224:  0.00
 225:  0.00 226:  0.00 227:  0.00 228:  0.00 229:  0.00 230:  0.00 231:  0.00 232:  0.00
 233:  0.00 234:  0.00 235:  0.00 236:  0.00 237:  0.00 238:  0.00 239:  0.00 240:  0.00
 241:  0.00 242:  0.00 243:  0.00 244:  0.00 245:  0.00 246:  0.00 247:  0.00 248:  0.00
 249:  0.00 250:  0.00 251:  0.00 252:  0.00 253:  0.00 254:  0.00 255:  0.00 256:  0.00
 257:  0.00 258:  0.00 259:  0.00 260:  0.00 261:  0.00 262:  0.00 263:  0.00 264:  0.00
 265:  0.00 266:  0.00 267:  0.00 268:  0.00 269:  0.00 270:  0.00 271:  0.00 272:  0.00
 273:  0.00
 output can be read by thermo (or use thermo option).
 writing <g98.out> molden fake output.
 recommended (thermochemical) frequency scaling factor: 1.0
           -------------------------------------------------
          |             Thermodynamic Functions             |
           -------------------------------------------------

Molecule has no symmetry elements
It seems to be the C1 point group
c1  symmetry found (for desy threshold:  0.10E+00) used in thermo

          ...................................................
          :                      SETUP                      :
          :.................................................:
          :  # frequencies                         267      :
          :  # imaginary freq.                       0      :
          :  linear?                             false      :
          :  only rotor calc.                    false      :
          :  symmetry                               c1      :
          :  rotational number                       1      :
          :  scaling factor                  1.0000000      :
          :  rotor cutoff                   50.0000000 cm⁻¹ :
          :  imag. cutoff                  -20.0000000 cm⁻¹ :
          :.................................................:

    mode    ω/cm⁻¹     T·S(HO)/kcal·mol⁻¹    T·S(FR)/kcal·mol⁻¹   T·S(vib)
   ------------------------------------------------------------------------
       1     25.00    -1.84601 (  5.88%)    -1.26191 ( 94.12%)    -1.29625
       2     32.91    -1.68337 ( 15.80%)    -1.18047 ( 84.20%)    -1.25990
       3     34.39    -1.65731 ( 18.29%)    -1.16741 ( 81.71%)    -1.25698
       4     40.41    -1.56195 ( 29.91%)    -1.11960 ( 70.09%)    -1.25190
       5     41.50    -1.54629 ( 32.18%)    -1.11175 ( 67.82%)    -1.25158
       6     43.67    -1.51621 ( 36.78%)    -1.09666 ( 63.22%)    -1.25096
       7     44.77    -1.50153 ( 39.12%)    -1.08929 ( 60.88%)    -1.25056
       8     47.03    -1.47246 ( 43.90%)    -1.07469 ( 56.10%)    -1.24931
       9     49.64    -1.44054 ( 49.28%)    -1.05866 ( 50.72%)    -1.24686
      10     51.40    -1.42004 ( 52.76%)    -1.04836 ( 47.24%)    -1.24444
      11     52.79    -1.40429 ( 55.41%)    -1.04045 ( 44.59%)    -1.24205
      12     55.11    -1.37895 ( 59.61%)    -1.02771 ( 40.39%)    -1.23708
      13     55.82    -1.37139 ( 60.84%)    -1.02391 ( 39.16%)    -1.23532
      14     57.92    -1.34969 ( 64.29%)    -1.01299 ( 35.71%)    -1.22946
      15     60.42    -1.32485 ( 68.07%)    -1.00048 ( 31.93%)    -1.22127
      16     62.02    -1.30940 ( 70.31%)    -0.99270 ( 29.69%)    -1.21536
      17     64.68    -1.28471 ( 73.69%)    -0.98026 ( 26.31%)    -1.20461
      18     65.42    -1.27801 ( 74.56%)    -0.97688 ( 25.44%)    -1.20142
      19     66.58    -1.26771 ( 75.87%)    -0.97169 ( 24.13%)    -1.19629
      20     68.39    -1.25202 ( 77.77%)    -0.96377 ( 22.23%)    -1.18795
      21     70.10    -1.23750 ( 79.44%)    -0.95645 ( 20.56%)    -1.17971
      22     75.74    -1.19209 ( 84.04%)    -0.93351 ( 15.96%)    -1.15082
      23     76.03    -1.18986 ( 84.24%)    -0.93238 ( 15.76%)    -1.14929
      24     79.85    -1.16113 ( 86.68%)    -0.91784 ( 13.32%)    -1.12871
      25     81.47    -1.14941 ( 87.58%)    -0.91191 ( 12.42%)    -1.11990
      26     83.30    -1.13641 ( 88.51%)    -0.90533 ( 11.49%)    -1.10986
      27     85.44    -1.12158 ( 89.50%)    -0.89781 ( 10.50%)    -1.09810
      28     90.14    -1.09032 ( 91.35%)    -0.88194 (  8.65%)    -1.07230
      29     91.67    -1.08053 ( 91.87%)    -0.87697 (  8.13%)    -1.06398
      30     94.01    -1.06587 ( 92.59%)    -0.86952 (  7.41%)    -1.05132
      31     96.23    -1.05226 ( 93.21%)    -0.86259 (  6.79%)    -1.03938
      32    107.40    -0.98845 ( 95.51%)    -0.83004 (  4.49%)    -0.98135
      33    109.02    -0.97979 ( 95.76%)    -0.82561 (  4.24%)    -0.97326
      34    113.78    -0.95510 ( 96.40%)    -0.81297 (  3.60%)    -0.94999
      35    116.38    -0.94203 ( 96.71%)    -0.80626 (  3.29%)    -0.93756
      36    119.03    -0.92907 ( 96.98%)    -0.79961 (  3.02%)    -0.92516
      37    120.82    -0.92044 ( 97.15%)    -0.79517 (  2.85%)    -0.91687
      38    129.64    -0.87996 ( 97.84%)    -0.77431 (  2.16%)    -0.87767
      39    139.46    -0.83818 ( 98.37%)    -0.75267 (  1.63%)    -0.83679
      40    141.85    -0.82851 ( 98.48%)    -0.74765 (  1.52%)    -0.82728
      41    145.77    -0.81296 ( 98.63%)    -0.73956 (  1.37%)    -0.81195
      42    150.37    -0.79534 ( 98.79%)    -0.73037 (  1.21%)    -0.79455
      43    154.97    -0.77825 ( 98.93%)    -0.72143 (  1.07%)    -0.77764
      44    158.02    -0.76723 ( 99.01%)    -0.71565 (  0.99%)    -0.76672
      45    159.47    -0.76208 ( 99.04%)    -0.71295 (  0.96%)    -0.76161
      46    160.54    -0.75832 ( 99.07%)    -0.71097 (  0.93%)    -0.75787
      47    165.56    -0.74100 ( 99.17%)    -0.70186 (  0.83%)    -0.74068
      48    171.37    -0.72163 ( 99.28%)    -0.69163 (  0.72%)    -0.72141
      49    176.87    -0.70399 ( 99.37%)    -0.68227 (  0.63%)    -0.70385
      50    183.64    -0.68307 ( 99.45%)    -0.67114 (  0.55%)    -0.68301
      51    188.10    -0.66977 ( 99.50%)    -0.66403 (  0.50%)    -0.66974
      52    191.68    -0.65937 ( 99.54%)    -0.65846 (  0.46%)    -0.65936
      53    194.64    -0.65091 ( 99.57%)    -0.65391 (  0.43%)    -0.65093
      54    200.60    -0.63435 ( 99.62%)    -0.64498 (  0.38%)    -0.63439
      55    202.15    -0.63012 ( 99.63%)    -0.64270 (  0.37%)    -0.63017
      56    214.17    -0.59863 ( 99.70%)    -0.62559 (  0.30%)    -0.59871
      57    214.83    -0.59696 ( 99.71%)    -0.62467 (  0.29%)    -0.59704
      58    217.57    -0.59011 ( 99.72%)    -0.62092 (  0.28%)    -0.59019
      59    222.64    -0.57768 ( 99.75%)    -0.61411 (  0.25%)    -0.57777
      60    229.25    -0.56196 ( 99.77%)    -0.60543 (  0.23%)    -0.56206
      61    231.28    -0.55723 ( 99.78%)    -0.60282 (  0.22%)    -0.55733
      62    232.75    -0.55386 ( 99.79%)    -0.60095 (  0.21%)    -0.55396
      63    237.49    -0.54312 ( 99.80%)    -0.59498 (  0.20%)    -0.54322
      64    243.55    -0.52974 ( 99.82%)    -0.58750 (  0.18%)    -0.52985
      65    253.72    -0.50821 ( 99.85%)    -0.57538 (  0.15%)    -0.50832
      66    256.35    -0.50283 ( 99.86%)    -0.57233 (  0.14%)    -0.50293
      67    266.14    -0.48334 ( 99.88%)    -0.56123 (  0.12%)    -0.48344
      68    269.81    -0.47627 ( 99.88%)    -0.55717 (  0.12%)    -0.47636
      69    278.68    -0.45967 ( 99.90%)    -0.54759 (  0.10%)    -0.45976
      70    280.14    -0.45701 ( 99.90%)    -0.54604 (  0.10%)    -0.45710
      71    285.72    -0.44698 ( 99.91%)    -0.54020 (  0.09%)    -0.44707
      72    289.93    -0.43958 ( 99.91%)    -0.53586 (  0.09%)    -0.43966
      73    296.58    -0.42818 ( 99.92%)    -0.52915 (  0.08%)    -0.42826
   ------------------------------------------------------------------------

   temp. (K)  partition function   enthalpy   heat capacity  entropy
                                   cal/mol     cal/K/mol   cal/K/mol   J/K/mol
 298.15  VIB  0.906E+32            42058.871    228.367    272.245
         ROT  0.348E+08              888.752      2.981     37.491
         INT  0.315E+40            42947.623    231.348    309.736
         TR   0.116E+29             1481.254      4.968     44.632
         TOT                       44428.8770   236.3160   354.3682  1482.6767

       T/K    H(0)-H(T)+PV         H(T)/Eh          T*S/Eh         G(T)/Eh
   ------------------------------------------------------------------------
    298.15    0.708019E-01    0.817898E+00    0.168372E+00    0.649526E+00
   ------------------------------------------------------------------------

         :::::::::::::::::::::::::::::::::::::::::::::::::::::
         ::                  THERMODYNAMIC                  ::
         :::::::::::::::::::::::::::::::::::::::::::::::::::::
         :: total free energy        -143.610334940098 Eh   ::
         ::.................................................::
         :: total energy             -144.259861425927 Eh   ::
         :: zero point energy           0.747096348416 Eh   ::
         :: G(RRHO) w/o ZPVE           -0.097569862588 Eh   ::
         :: G(RRHO) contrib.            0.649526485829 Eh   ::
         :::::::::::::::::::::::::::::::::::::::::::::::::::::

optimized geometry written to: xtbopt.xyz


           -------------------------------------------------
          | TOTAL ENERGY             -144.259861425927 Eh   |
          | TOTAL ENTHALPY           -143.441963155285 Eh   |
          | TOTAL FREE ENERGY        -143.610334940098 Eh   |
          | GRADIENT NORM               0.000525211060 Eh/α |
          | HOMO-LUMO GAP               9.229220265874 eV   |
           -------------------------------------------------

------------------------------------------------------------------------
 * finished run on 2022/10/12 at 01:33:02.484     
------------------------------------------------------------------------
 total:
 * wall-time:     0 d,  0 h,  0 min, 16.018 sec
 *  cpu-time:     0 d,  0 h,  1 min, 34.779 sec
 * ratio c/w:     5.917 speedup
 SCF:
 * wall-time:     0 d,  0 h,  0 min,  0.113 sec
 *  cpu-time:     0 d,  0 h,  0 min,  0.666 sec
 * ratio c/w:     5.884 speedup
 ANC optimizer:
 * wall-time:     0 d,  0 h,  0 min,  0.342 sec
 *  cpu-time:     0 d,  0 h,  0 min,  1.931 sec
 * ratio c/w:     5.652 speedup
 analytical hessian:
 * wall-time:     0 d,  0 h,  0 min, 15.390 sec
 *  cpu-time:     0 d,  0 h,  1 min, 31.205 sec
 * ratio c/w:     5.926 speedup

