91
 energy: -144.259861425927 gnorm: 0.000525254688 xtb: 6.5.1 (579679a)
H            1.56693209910000        2.29508542880000       -0.18862447940000
C            0.52449028180000        2.04130789400000       -0.35149132330000
H           -0.09433992020000        2.83295997010000        0.05696411670000
H            0.34626513130000        1.98706333420000       -1.42052347400000
C            0.19871741770000        0.70283684050000        0.30449852610000
H            0.28393098590000        0.80598113910000        1.39074821820000
C           -1.24330194430000        0.29582929650000       -0.01673413650000
H           -1.32844410010000        0.06331554680000       -1.07966542040000
H           -1.90432468290000        1.13530490750000        0.20720905770000
C            1.17919262330000       -0.36260089200000       -0.16866935220000
H            0.94820111880000       -1.33175809010000        0.26282834340000
H            2.18521068700000       -0.09089427850000        0.12685149370000
H            1.14408567920000       -0.44369625910000       -1.25039564090000
N           -1.72810904540000       -0.86619590290000        0.73487811890000
H           -1.16786908190000       -1.67887736510000        0.49343196860000
H           -1.56319490910000       -0.70700822960000        1.72989961930000
O           -2.61139289970000        3.60743571580000       -0.34348971410000
H           -2.71648846180000        4.53977267950000       -0.53575070480000
H           -2.15689569790000        3.54284773800000        0.52667692480000
O           -4.24951424160000        0.22026295120000       -2.26399171820000
H           -4.13348032460000       -0.51665717130000       -1.61874338400000
H           -4.80346048490000       -0.11393983310000       -2.96943589540000
O           -2.23371214350000       -3.41008464580000       -1.62753544070000
H           -1.68787091140000       -3.63940628310000       -0.85215784660000
H           -2.99442722480000       -2.92072765890000       -1.28326258440000
O           -2.53835892020000        1.62380994660000        3.47399015780000
H           -1.94730792080000        0.86659499660000        3.61054799520000
H           -3.32635842600000        1.25725139450000        3.02229952750000
O           -3.99685290260000       -1.65759274130000       -0.38053159430000
H           -3.14632342630000       -1.36849954720000        0.07492805360000
H           -4.69403206070000       -1.54337484340000        0.27058087580000
O           -0.57471591430000       -2.00718283120000       -3.10503646120000
H           -1.22111610480000       -2.49214894450000       -2.52899041300000
H           -0.63922804780000       -2.42552931050000       -3.96507902670000
O            2.08240103690000       -2.53521545160000       -2.56131598830000
H            1.12671916490000       -2.34955928430000       -2.59647222530000
H            2.43047469600000       -2.11956383430000       -3.37331156650000
O            4.11601178580000       -1.72452042090000       -0.80871537230000
H            3.45168019340000       -1.97785967090000       -1.47097502820000
H            4.26479852990000       -0.76067723350000       -0.92960397260000
O            2.51346154630000       -0.87287628000000       -4.66706841100000
H            1.61844407470000       -0.60071344350000       -4.89252450450000
H            2.88975868430000       -0.11124546860000       -4.19921531640000
O            4.24701900630000        0.93845875340000       -1.13657510520000
H            3.93535121570000        1.42970515290000       -0.35905671570000
H            3.63273575920000        1.14804409780000       -1.85733939820000
O            1.31079211760000        3.16494601940000        2.78792649660000
H            0.43289577150000        3.22225100810000        2.37605228170000
H            1.94205981930000        2.91265886600000        2.09161899370000
O           -1.40175001370000        3.48536076660000        2.07068881330000
H           -1.56050242020000        4.26592961540000        2.60415614530000
H           -1.82083056470000        2.73255541910000        2.58908302710000
O           -4.88352826500000        2.02611629270000       -0.23671273240000
H           -4.78522574670000        1.46564611860000       -1.02205529270000
H           -4.14153327120000        2.65184377810000       -0.27164337400000
O            0.00329527700000        0.65046940590000       -3.68333653610000
H           -0.74477288460000        1.21708356860000       -3.41299557630000
H           -0.23087456460000       -0.24643178200000       -3.39429708710000
O            1.41942123760000        1.04886304880000        4.33740696480000
H            1.54730433330000        1.32131012600000        5.24573926950000
H            1.35807030430000        1.88286891510000        3.79711008290000
O            3.44451174110000        2.18108012270000        1.25329515180000
H            4.21289429140000        2.67691146910000        1.53943098340000
H            3.45483667790000        1.34314840040000        1.78869622400000
O           -0.70835873700000       -0.46683577550000        3.50270329100000
H           -0.31323636060000       -1.34621356830000        3.35721230890000
H            0.02303876240000        0.06653410920000        3.85746531950000
O            2.49359805980000        1.51563783280000       -3.23100573520000
H            2.54493328770000        2.39251203790000       -3.61155964240000
H            1.55130409650000        1.23576465720000       -3.30179721890000
O           -0.59476250880000       -3.95537292330000        0.50549309850000
H           -0.85001026350000       -4.82584756780000        0.81453698220000
H            0.31899135410000       -4.06608501480000        0.10961199120000
O            0.61309724350000       -2.73126150700000        2.72212023400000
H            0.10218689630000       -3.15532159630000        2.01473746830000
H            1.50476415920000       -2.60595490260000        2.37121110360000
O            3.42422744340000        0.01738281550000        2.75701764100000
H            3.21822620620000       -0.83050789660000        2.33134720650000
H            2.70185927830000        0.21122134130000        3.37884125380000
O            3.19599040980000       -2.47404898970000        1.46854350290000
H            3.92109178280000       -2.93015770290000        1.89829020710000
H            3.57703328980000       -2.11702189840000        0.60157037320000
O            1.85139765420000       -4.17657564690000       -0.34179683170000
H            2.36139065710000       -3.66464656670000        0.30823664150000
H            2.01469277230000       -3.74979578520000       -1.19836967720000
O           -2.14759534900000        2.02966407980000       -2.72725844590000
H           -2.88143625420000        1.40294075180000       -2.63869952610000
H           -2.17211754450000        2.57613484080000       -1.93032216540000
O           -4.30619826670000        0.40632756740000        1.82815901660000
H           -3.50974084190000        0.01705546280000        1.45062529960000
H           -4.64290684180000        1.03775089780000        1.15519854770000
