      -----------------------------------------------------------      
     |                   =====================                   |     
     |                           x T B                           |     
     |                   =====================                   |     
     |                         S. Grimme                         |     
     |          Mulliken Center for Theoretical Chemistry        |     
     |                    University of Bonn                     |     
      -----------------------------------------------------------      

   * xtb version 6.5.1 (579679a) compiled by 'ehlert@majestix' on 2022-07-11

   xtb is free software: you can redistribute it and/or modify it under
   the terms of the GNU Lesser General Public License as published by
   the Free Software Foundation, either version 3 of the License, or
   (at your option) any later version.
   
   xtb is distributed in the hope that it will be useful,
   but WITHOUT ANY WARRANTY; without even the implied warranty of
   MERCHANTABILITY or FITNESS FOR A PARTICULAR PURPOSE.  See the
   GNU Lesser General Public License for more details.
   
   Cite this work as:
   * C. Bannwarth, E. Caldeweyher, S. Ehlert, A. Hansen, P. Pracht,
     J. Seibert, S. Spicher, S. Grimme, WIREs Comput. Mol. Sci., 2020, 11,
     e01493. DOI: 10.1002/wcms.1493
   
   for GFN2-xTB:
   * C. Bannwarth, S. Ehlert and S. Grimme., J. Chem. Theory Comput., 2019,
     15, 1652-1671. DOI: 10.1021/acs.jctc.8b01176
   for GFN1-xTB:
   * S. Grimme, C. Bannwarth, P. Shushkov, J. Chem. Theory Comput., 2017,
     13, 1989-2009. DOI: 10.1021/acs.jctc.7b00118
   for GFN0-xTB:
   * P. Pracht, E. Caldeweyher, S. Ehlert, S. Grimme, ChemRxiv, 2019, preprint.
     DOI: 10.26434/chemrxiv.8326202.v1
   for GFN-FF:
   * S. Spicher and S. Grimme, Angew. Chem. Int. Ed., 2020, 59, 15665-15673.
     DOI: 10.1002/anie.202004239
   
   for ALPB and GBSA implicit solvation:
   * S. Ehlert, M. Stahn, S. Spicher, S. Grimme, J. Chem. Theory Comput.,
     2021, 17, 4250-4261. DOI: 10.1021/acs.jctc.1c00471
   
   for DFT-D4:
   * E. Caldeweyher, C. Bannwarth and S. Grimme, J. Chem. Phys., 2017,
     147, 034112. DOI: 10.1063/1.4993215
   * E. Caldeweyher, S. Ehlert, A. Hansen, H. Neugebauer, S. Spicher,
     C. Bannwarth and S. Grimme, J. Chem. Phys., 2019, 150, 154122.
     DOI: 10.1063/1.5090222
   * E. Caldeweyher, J.-M. Mewes, S. Ehlert and S. Grimme, Phys. Chem. Chem. Phys.
     2020, 22, 8499-8512. DOI: 10.1039/D0CP00502A
   
   for sTDA-xTB:
   * S. Grimme and C. Bannwarth, J. Chem. Phys., 2016, 145, 054103.
     DOI: 10.1063/1.4959605
   
   in the mass-spec context:
   * V. Asgeirsson, C. Bauer and S. Grimme, Chem. Sci., 2017, 8, 4879.
     DOI: 10.1039/c7sc00601b
   * J. Koopman and S. Grimme, ACS Omega 2019, 4, 12, 15120-15133.
     DOI: 10.1021/acsomega.9b02011
   
   for metadynamics refer to:
   * S. Grimme, J. Chem. Theory Comput., 2019, 155, 2847-2862
     DOI: 10.1021/acs.jctc.9b00143
   
   for SPH calculations refer to:
   * S. Spicher and S. Grimme, J. Chem. Theory Comput., 2021, 17, 1701-1714
     DOI: 10.1021/acs.jctc.0c01306
   
   with help from (in alphabetical order)
   P. Atkinson, C. Bannwarth, F. Bohle, G. Brandenburg, E. Caldeweyher
   M. Checinski, S. Dohm, S. Ehlert, S. Ehrlich, I. Gerasimov, C. Hölzer
   A. Katbashev, J. Koopman, C. Lavigne, S. Lehtola, F. März, M. Müller,
   F. Musil, H. Neugebauer, J. Pisarek, C. Plett, P. Pracht, F. Pultar,
   J. Seibert, P. Shushkov, S. Spicher, M. Stahn, M. Steiner, T. Strunk,
   J. Stückrath, T. Rose, and J. Unsleber
   
 * started run on 2022/11/24 at 09:07:52.365     

           -------------------------------------------------
          |                Calculation Setup                |
           -------------------------------------------------

          program call               : xtb solvent_cluster.coord --gfn2 --input xcontrol --opt 1
          hostname                   : cn0341
          coordinate file            : solvent_cluster.coord
          omp threads                :                     2

   ID    Z sym.   atoms
    1    8 o      1, 4, 7, 10, 13, 16, 19, 22, 25, 28, 31, 34, 37, 40, 43,
                  46, 49, 52, 55, 58, 61, 64, 67, 70, 73, 76, 79, 82, 85, 88,
                  91, 94, 97, 100, 103, 106, 109, 112, 115, 118, 121, 124,
                  127, 130, 133, 136, 139, 142, 145, 148, 151, 154, 157, 160,
                  163, 166, 169, 172, 175, 178, 181, 184, 187, 190, 193, 196,
                  199, 202, 205, 208, 211, 214, 217, 220, 223, 226, 229, 232,
                  235, 238, 241, 244, 247, 250, 253, 256, 259, 262, 265, 268,
                  271, 274, 277, 280, 283, 286, 289, 292, 295, 298, 301, 304,
                  307, 310, 313, 316, 319, 322, 325, 328, 331, 334, 337, 340,
                  343, 346, 349, 352, 355, 358, 361, 364, 367, 370, 373, 376,
                  379, 382, 385, 388, 391, 394, 397, 400, 403, 406, 409, 412,
                  415, 418, 421, 424, 427, 430, 433, 436, 439, 442, 445, 448,
                  451, 454, 457, 460, 463, 466, 469, 472, 475, 478, 481, 484,
                  487, 490, 493, 496, 499, 502, 505, 508, 511, 514, 517, 520,
                  523, 526, 529, 532, 535, 538, 541, 544, 547, 550, 553, 556,
                  559, 562, 565, 568, 571, 574, 577, 580, 583, 586, 589, 592,
                  595, 598, 601, 604, 607, 610, 613, 616, 619, 622, 625, 628,
                  631, 634, 637, 640, 643, 646, 649, 652, 655, 658, 661, 664,
                  667, 670, 673, 676, 679, 682, 685, 688, 691, 694, 697, 700,
                  703, 706, 709, 712, 715, 718, 721, 724, 727, 730, 733, 736,
                  739, 742, 745, 748, 751, 754
    2    1 h      2, 3, 5, 6, 8, 9, 11, 12, 14, 15, 17, 18, 20, 21, 23, 24,
                  26, 27, 29, 30, 32, 33, 35, 36, 38, 39, 41, 42, 44, 45, 47,
                  48, 50, 51, 53, 54, 56, 57, 59, 60, 62, 63, 65, 66, 68, 69,
                  71, 72, 74, 75, 77, 78, 80, 81, 83, 84, 86, 87, 89, 90, 92,
                  93, 95, 96, 98, 99, 101, 102, 104, 105, 107, 108, 110, 111,
                  113, 114, 116, 117, 119, 120, 122, 123, 125, 126, 128, 129,
                  131, 132, 134, 135, 137, 138, 140, 141, 143, 144, 146, 147,
                  149, 150, 152, 153, 155, 156, 158, 159, 161, 162, 164, 165,
                  167, 168, 170, 171, 173, 174, 176, 177, 179, 180, 182, 183,
                  185, 186, 188, 189, 191, 192, 194, 195, 197, 198, 200, 201,
                  203, 204, 206, 207, 209, 210, 212, 213, 215, 216, 218, 219,
                  221, 222, 224, 225, 227, 228, 230, 231, 233, 234, 236, 237,
                  239, 240, 242, 243, 245, 246, 248, 249, 251, 252, 254, 255,
                  257, 258, 260, 261, 263, 264, 266, 267, 269, 270, 272, 273,
                  275, 276, 278, 279, 281, 282, 284, 285, 287, 288, 290, 291,
                  293, 294, 296, 297, 299, 300, 302, 303, 305, 306, 308, 309,
                  311, 312, 314, 315, 317, 318, 320, 321, 323, 324, 326, 327,
                  329, 330, 332, 333, 335, 336, 338, 339, 341, 342, 344, 345,
                  347, 348, 350, 351, 353, 354, 356, 357, 359, 360, 362, 363,
                  365, 366, 368, 369, 371, 372, 374, 375, 377, 378, 380, 381,
                  383, 384, 386, 387, 389, 390, 392, 393, 395, 396, 398, 399,
                  401, 402, 404, 405, 407, 408, 410, 411, 413, 414, 416, 417,
                  419, 420, 422, 423, 425, 426, 428, 429, 431, 432, 434, 435,
                  437, 438, 440, 441, 443, 444, 446, 447, 449, 450, 452, 453,
                  455, 456, 458, 459, 461, 462, 464, 465, 467, 468, 470, 471,
                  473, 474, 476, 477, 479, 480, 482, 483, 485, 486, 488, 489,
                  491, 492, 494, 495, 497, 498, 500, 501, 503, 504, 506, 507,
                  509, 510, 512, 513, 515, 516, 518, 519, 521, 522, 524, 525,
                  527, 528, 530, 531, 533, 534, 536, 537, 539, 540, 542, 543,
                  545, 546, 548, 549, 551, 552, 554, 555, 557, 558, 560, 561,
                  563, 564, 566, 567, 569, 570, 572, 573, 575, 576, 578, 579,
                  581, 582, 584, 585, 587, 588, 590, 591, 593, 594, 596, 597,
                  599, 600, 602, 603, 605, 606, 608, 609, 611, 612, 614, 615,
                  617, 618, 620, 621, 623, 624, 626, 627, 629, 630, 632, 633,
                  635, 636, 638, 639, 641, 642, 644, 645, 647, 648, 650, 651,
                  653, 654, 656, 657, 659, 660, 662, 663, 665, 666, 668, 669,
                  671, 672, 674, 675, 677, 678, 680, 681, 683, 684, 686, 687,
                  689, 690, 692, 693, 695, 696, 698, 699, 701, 702, 704, 705,
                  707, 708, 710, 711, 713, 714, 716, 717, 719, 720, 722, 723,
                  725, 726, 728, 729, 731, 732, 734, 735, 737, 738, 740, 741,
                  743, 744, 746, 747, 749, 750, 752, 753, 755, 756

molecular fragmentation (1/2 indicates fragments):
111222222222222222222222222222222222222222222222222222222222222222222222
222222222222222222222222222222222222222222222222222222222222222222222222
222222222222222222222222222222222222222222222222222222222222222222222222
222222222222222222222222222222222222222222222222222222222222222222222222
222222222222222222222222222222222222222222222222222222222222222222222222
222222222222222222222222222222222222222222222222222222222222222222222222
222222222222222222222222222222222222222222222222222222222222222222222222
222222222222222222222222222222222222222222222222222222222222222222222222
222222222222222222222222222222222222222222222222222222222222222222222222
222222222222222222222222222222222222222222222222222222222222222222222222
222222222222222222222222222222222222
# atoms in fragment 1/2:     3   753
 fragment masses (1/2) :       18.02     4521.84
CMA distance (Bohr)    :  14.501
constraining FC (au)   :  0.0500

           -------------------------------------------------
          |                 G F N 2 - x T B                 |
           -------------------------------------------------

        Reference                      10.1021/acs.jctc.8b01176
      * Hamiltonian:
        H0-scaling (s, p, d)           1.850000    2.230000    2.230000
        zeta-weighting                 0.500000
      * Dispersion:
        s8                             2.700000
        a1                             0.520000
        a2                             5.000000
        s9                             5.000000
      * Repulsion:
        kExp                           1.500000    1.000000
        rExp                           1.000000
      * Coulomb:
        alpha                          2.000000
        third order                    shell-resolved
        anisotropic                    true
        a3                             3.000000
        a5                             4.000000
        cn-shift                       1.200000
        cn-exp                         4.000000
        max-rad                        5.000000


          ...................................................
          :                      SETUP                      :
          :.................................................:
          :  # basis functions                1512          :
          :  # atomic orbitals                1512          :
          :  # shells                         1008          :
          :  # electrons                      2016          :
          :  max. iterations                   250          :
          :  Hamiltonian                  GFN2-xTB          :
          :  restarted?                      false          :
          :  GBSA solvation                  false          :
          :  PC potential                    false          :
          :  electronic temp.          300.0000000     K    :
          :  accuracy                    1.0000000          :
          :  -> integral cutoff          0.2500000E+02      :
          :  -> integral neglect         0.1000000E-07      :
          :  -> SCF convergence          0.1000000E-05 Eh   :
          :  -> wf. convergence          0.1000000E-03 e    :
          :  Broyden damping             0.4000000          :
          ...................................................

 iter      E             dE          RMSdq      gap      omega  full diag
   1  -1291.0220500 -0.129102E+04  0.406E+00    8.46       0.0  T
   2  -1291.0929120 -0.708620E-01  0.241E+00    8.36       1.0  T
   3  -1291.1236003 -0.306883E-01  0.207E-01    7.91       1.0  T
   4  -1291.1286007 -0.500037E-02  0.452E-02    8.06       1.0  T
   5  -1291.1286723 -0.716462E-04  0.306E-02    8.05       1.0  T
   6  -1291.1287108 -0.384671E-04  0.420E-03    8.06       1.0  T
   7  -1291.1287131 -0.226075E-05  0.803E-04    8.06       4.5  T
   8  -1291.1287131 -0.382599E-07  0.416E-04    8.06       8.7  T
   9  -1291.1287131 -0.170753E-07  0.656E-05    8.06      55.5  T

   *** convergence criteria satisfied after 9 iterations ***

         #    Occupation            Energy/Eh            Energy/eV
      -------------------------------------------------------------
         1        2.0000           -0.6898099             -18.7707
       ...           ...                  ...                  ...
      1002        2.0000           -0.4136531             -11.2561
      1003        2.0000           -0.4130073             -11.2385
      1004        2.0000           -0.4112465             -11.1906
      1005        2.0000           -0.4108180             -11.1789
      1006        2.0000           -0.4081891             -11.1074
      1007        2.0000           -0.4059804             -11.0473
      1008        2.0000           -0.4057118             -11.0400 (HOMO)
      1009                         -0.1094572              -2.9785 (LUMO)
      1010                         -0.0977061              -2.6587
      1011                         -0.0873848              -2.3779
      1012                         -0.0834244              -2.2701
      1013                         -0.0750740              -2.0429
       ...                                ...                  ...
      1512                          0.4305090              11.7147
      -------------------------------------------------------------
                  HL-Gap            0.2962546 Eh            8.0615 eV
             Fermi-level           -0.2575845 Eh           -7.0092 eV

 SCC (total)                   0 d,  0 h,  0 min, 22.437 sec
 SCC setup                      ...        0 min,  0.042 sec (  0.188%)
 Dispersion                     ...        0 min,  0.118 sec (  0.525%)
 classical contributions        ...        0 min,  0.023 sec (  0.104%)
 integral evaluation            ...        0 min,  0.622 sec (  2.774%)
 iterations                     ...        0 min,  8.829 sec ( 39.349%)
 molecular gradient             ...        0 min, 12.733 sec ( 56.750%)
 printout                       ...        0 min,  0.069 sec (  0.309%)

         :::::::::::::::::::::::::::::::::::::::::::::::::::::
         ::                     SUMMARY                     ::
         :::::::::::::::::::::::::::::::::::::::::::::::::::::
         :: total energy           -1283.352216522592 Eh    ::
         :: gradient norm              0.047006046534 Eh/a0 ::
         :: HOMO-LUMO gap              8.061497519959 eV    ::
         ::.................................................::
         :: SCC energy             -1291.128713119509 Eh    ::
         :: -> isotropic ES            7.163440646686 Eh    ::
         :: -> anisotropic ES         -1.627350901995 Eh    ::
         :: -> anisotropic XC         -0.126700559484 Eh    ::
         :: -> dispersion             -0.792413115425 Eh    ::
         :: repulsion energy           7.620189766245 Eh    ::
         :: add. restraining           0.000000000000 Eh    ::
         :: total charge              -0.000000000000 e     ::
         :::::::::::::::::::::::::::::::::::::::::::::::::::::

      ----------------------------------------------------------- 
     |                       L-ANC optimizer                     |
      ----------------------------------------------------------- 
          low memory version by Sebastian Ehlert

          ...................................................
          :                      SETUP                      :
          :.................................................:
          :   energy convergence        0.1000000E-05 Eh    :
          :   grad. convergence         0.8000000E-03 Eh/a0 :
          :   optimization log               true           :
          :   writing optlog all                1     steps :
          :   Hessian reset                    20     steps :
          :   maximium step len.        1.0000000     a0    :
          :   LBFGS images                     20           :
          ...................................................
 * calculating model hessian...
Using Lindh-Hessian (1995)
 Shifting diagonal of input Hessian by   1.000018526628764E-002
 Lowest  eigenvalues of input Hessian
    0.010000    0.010000   -0.000000   -0.000000   -0.000000   -0.000000
   -0.000000   -0.000000   -0.000000   -0.000000   -0.000000   -0.000000
   -0.000000   -0.000000   -0.000000   -0.000000   -0.000000   -0.000000
 Highest eigenvalues
    0.316924    0.329702    1.226541    1.247410    1.438022    1.458491
 

........................................................................
.............................. CYCLE    1 ..............................
........................................................................
   1  -1291.1244257 -0.129112E+04  0.433E-02    8.02       0.0  T
   2  -1291.1244773 -0.515718E-04  0.259E-02    8.02       1.0  T
   3  -1291.1244883 -0.110440E-04  0.411E-03    8.03       1.0  T
   4  -1291.1244898 -0.150751E-05  0.776E-04    8.03       4.7  T
   5  -1291.1244898 -0.128218E-07  0.123E-04    8.03      29.4  T
   6  -1291.1244898 -0.499767E-09  0.452E-05    8.03      80.5  T
     SCC iter.                  ...        0 min,  4.458 sec
     gradient                   ...        0 min, 12.414 sec
 * total energy  : -1283.3569135 Eh     change       -0.4696956E-02 Eh
   gradient norm :     0.0396480 Eh/a0  converged?    E=F G=F D=F
   step length   :     0.5301283 a0

........................................................................
.............................. CYCLE    2 ..............................
........................................................................
   1  -1291.1312946 -0.129113E+04  0.300E-02    8.05       0.0  T
   2  -1291.1313091 -0.144520E-04  0.182E-02    8.06       1.0  T
   3  -1291.1313140 -0.491742E-05  0.210E-03    8.06       1.7  T
   4  -1291.1313144 -0.400503E-06  0.577E-04    8.06       6.3  T
   5  -1291.1313144 -0.716818E-08  0.793E-05    8.06      45.9  T
     SCC iter.                  ...        0 min,  3.707 sec
     gradient                   ...        0 min, 12.378 sec
 * total energy  : -1283.3605879 Eh     change       -0.3674390E-02 Eh
   gradient norm :     0.0252866 Eh/a0  converged?    E=F G=F D=F
   step length   :     0.6833119 a0

........................................................................
.............................. CYCLE    3 ..............................
........................................................................
   1  -1291.1321087 -0.129113E+04  0.236E-02    8.04       0.0  T
   2  -1291.1321441 -0.353743E-04  0.138E-02    8.04       1.0  T
   3  -1291.1321490 -0.492646E-05  0.343E-03    8.05       1.1  T
   4  -1291.1321497 -0.723885E-06  0.460E-04    8.05       7.9  T
   5  -1291.1321498 -0.619389E-08  0.926E-05    8.05      39.3  T
     SCC iter.                  ...        0 min,  3.576 sec
     gradient                   ...        0 min, 12.793 sec
 * total energy  : -1283.3632528 Eh     change       -0.2664956E-02 Eh
   gradient norm :     0.0268046 Eh/a0  converged?    E=F G=F D=F
   step length   :     0.8241029 a0

........................................................................
.............................. CYCLE    4 ..............................
........................................................................
   1  -1291.1343621 -0.129113E+04  0.142E-02    8.05       0.0  T
   2  -1291.1343859 -0.238216E-04  0.824E-03    8.05       1.0  T
   3  -1291.1343890 -0.306101E-05  0.277E-03    8.06       1.3  T
   4  -1291.1343892 -0.229098E-06  0.262E-04    8.06      13.9  T
   5  -1291.1343892 -0.323575E-08  0.534E-05    8.06      68.1  T
     SCC iter.                  ...        0 min,  3.406 sec
     gradient                   ...        0 min, 12.776 sec
 * total energy  : -1283.3643088 Eh     change       -0.1056023E-02 Eh
   gradient norm :     0.0153758 Eh/a0  converged?    E=F G=F D=F
   step length   :     0.5727350 a0

........................................................................
.............................. CYCLE    5 ..............................
........................................................................
   1  -1291.1385227 -0.129114E+04  0.927E-03    8.06       0.0  T
   2  -1291.1385253 -0.266351E-05  0.557E-03    8.06       1.0  T
   3  -1291.1385259 -0.567812E-06  0.886E-04    8.06       4.1  T
   4  -1291.1385260 -0.838584E-07  0.198E-04    8.06      18.3  T
     SCC iter.                  ...        0 min,  2.719 sec
     gradient                   ...        0 min, 12.809 sec
 * total energy  : -1283.3645825 Eh     change       -0.2736526E-03 Eh
   gradient norm :     0.0100362 Eh/a0  converged?    E=F G=F D=F
   step length   :     0.1530150 a0

........................................................................
.............................. CYCLE    6 ..............................
........................................................................
   1  -1291.1366834 -0.129114E+04  0.769E-03    8.06       0.0  T
   2  -1291.1366841 -0.706513E-06  0.468E-03    8.06       1.0  T
   3  -1291.1366843 -0.249652E-06  0.440E-04    8.06       8.3  T
   4  -1291.1366844 -0.191621E-07  0.133E-04    8.06      27.3  T
     SCC iter.                  ...        0 min,  2.682 sec
     gradient                   ...        0 min, 12.574 sec
 * total energy  : -1283.3647718 Eh     change       -0.1893265E-03 Eh
   gradient norm :     0.0123040 Eh/a0  converged?    E=F G=F D=F
   step length   :     0.1337366 a0

........................................................................
.............................. CYCLE    7 ..............................
........................................................................
   1  -1291.1370603 -0.129114E+04  0.471E-03    8.06       0.0  T
   2  -1291.1370617 -0.137423E-05  0.279E-03    8.06       1.3  T
   3  -1291.1370620 -0.365339E-06  0.685E-04    8.06       5.3  T
   4  -1291.1370621 -0.417915E-07  0.174E-04    8.06      21.0  T
     SCC iter.                  ...        0 min,  2.562 sec
     gradient                   ...        0 min, 12.579 sec
 * total energy  : -1283.3648649 Eh     change       -0.9306199E-04 Eh
   gradient norm :     0.0067304 Eh/a0  converged?    E=F G=F D=F
   step length   :     0.0939821 a0

........................................................................
.............................. CYCLE    8 ..............................
........................................................................
   1  -1291.1373751 -0.129114E+04  0.404E-03    8.06       0.0  T
   2  -1291.1373754 -0.230414E-06  0.246E-03    8.06       1.5  T
   3  -1291.1373755 -0.121458E-06  0.267E-04    8.07      13.6  T
   4  -1291.1373755 -0.499222E-08  0.857E-05    8.06      42.4  T
     SCC iter.                  ...        0 min,  2.522 sec
     gradient                   ...        0 min, 12.566 sec
 * total energy  : -1283.3649355 Eh     change       -0.7057433E-04 Eh
   gradient norm :     0.0037745 Eh/a0  converged?    E=F G=F D=F
   step length   :     0.0617790 a0

........................................................................
.............................. CYCLE    9 ..............................
........................................................................
   1  -1291.1371261 -0.129114E+04  0.370E-03    8.06       0.0  T
   2  -1291.1371263 -0.197336E-06  0.222E-03    8.06       1.6  T
   3  -1291.1371264 -0.529938E-07  0.246E-04    8.06      14.8  T
   4  -1291.1371264 -0.646787E-08  0.610E-05    8.06      59.6  T
     SCC iter.                  ...        0 min,  2.472 sec
     gradient                   ...        0 min, 12.600 sec
 * total energy  : -1283.3649585 Eh     change       -0.2308151E-04 Eh
   gradient norm :     0.0025373 Eh/a0  converged?    E=F G=F D=F
   step length   :     0.0692031 a0

........................................................................
.............................. CYCLE   10 ..............................
........................................................................
   1  -1291.1376805 -0.129114E+04  0.138E-03    8.07       0.0  T
   2  -1291.1376806 -0.501448E-07  0.822E-04    8.07       4.4  T
   3  -1291.1376806 -0.144348E-07  0.131E-04    8.07      27.8  T
     SCC iter.                  ...        0 min,  1.861 sec
     gradient                   ...        0 min, 12.908 sec
 * total energy  : -1283.3649664 Eh     change       -0.7835982E-05 Eh
   gradient norm :     0.0022135 Eh/a0  converged?    E=F G=F D=F
   step length   :     0.0204066 a0

........................................................................
.............................. CYCLE   11 ..............................
........................................................................
   1  -1291.1378755 -0.129114E+04  0.576E-04    8.07       0.0  T
   2  -1291.1378755 -0.466844E-08  0.345E-04    8.07      10.5  T
   3  -1291.1378755 -0.175919E-08  0.390E-05    8.06      93.2  T
     SCC iter.                  ...        0 min,  2.010 sec
     gradient                   ...        0 min, 12.700 sec
 * total energy  : -1283.3649709 Eh     change       -0.4499246E-05 Eh
   gradient norm :     0.0014809 Eh/a0  converged?    E=F G=F D=F
   step length   :     0.0093709 a0

........................................................................
.............................. CYCLE   12 ..............................
........................................................................
   1  -1291.1380155 -0.129114E+04  0.226E-03    8.06       0.0  T
   2  -1291.1380155 -0.336149E-07  0.137E-03    8.06       2.7  T
   3  -1291.1380155 -0.138787E-07  0.993E-05    8.06      36.6  T
   4  -1291.1380155 -0.945647E-09  0.338E-05    8.06     107.5  T
     SCC iter.                  ...        0 min,  2.662 sec
     gradient                   ...        0 min, 13.173 sec
 * total energy  : -1283.3649768 Eh     change       -0.5959534E-05 Eh
   gradient norm :     0.0012045 Eh/a0  converged?    E=F G=F D=F
   step length   :     0.0409695 a0

........................................................................
.............................. CYCLE   13 ..............................
........................................................................
   1  -1291.1379432 -0.129114E+04  0.476E-04    8.06       0.0  T
   2  -1291.1379432 -0.689761E-08  0.277E-04    8.06      13.1  T
   3  -1291.1379432 -0.136606E-08  0.466E-05    8.06      78.0  T
     SCC iter.                  ...        0 min,  2.016 sec
     gradient                   ...        0 min, 13.160 sec
 * total energy  : -1283.3649792 Eh     change       -0.2358510E-05 Eh
   gradient norm :     0.0006039 Eh/a0  converged?    E=F G=T D=F
   step length   :     0.0115880 a0

........................................................................
.............................. CYCLE   14 ..............................
........................................................................
   1  -1291.1377590 -0.129114E+04  0.738E-04    8.06       0.0  T
   2  -1291.1377590 -0.920409E-08  0.443E-04    8.06       8.2  T
   3  -1291.1377590 -0.248065E-08  0.525E-05    8.06      69.3  T
     SCC iter.                  ...        0 min,  1.985 sec
     gradient                   ...        0 min, 13.140 sec
 * total energy  : -1283.3649811 Eh     change       -0.1872284E-05 Eh
   gradient norm :     0.0004664 Eh/a0  converged?    E=F G=T D=F
   step length   :     0.0150236 a0

........................................................................
.............................. CYCLE   15 ..............................
........................................................................
   1  -1291.1377996 -0.129114E+04  0.343E-04    8.06       0.0  T
   2  -1291.1377996 -0.254067E-08  0.207E-04    8.06      17.5  T
   3  -1291.1377996 -0.703267E-09  0.276E-05    8.06     132.0  T
     SCC iter.                  ...        0 min,  1.976 sec
     gradient                   ...        0 min, 12.649 sec
 * total energy  : -1283.3649815 Eh     change       -0.4185606E-06 Eh
   gradient norm :     0.0002636 Eh/a0  converged?    E=T G=T D=F
   step length   :     0.0076423 a0

   *** GEOMETRY OPTIMIZATION CONVERGED AFTER 15 CYCLES ***

------------------------------------------------------------------------
 total energy gain   :        -0.0127650 Eh       -8.0101 kcal/mol
 total RMSD          :         0.0920034 a0        0.0487 Å
 total power (kW/mol):        -2.2342943 (step)   -0.1311 (real)
------------------------------------------------------------------------

 L-ANCopt (total)              0 d,  0 h,  4 min, 15.569 sec
 setup                          ...        0 min,  0.030 sec (  0.012%)
 model hessian                  ...        0 min,  7.800 sec (  3.052%)
 ANC generation                 ...        0 min,  2.672 sec (  1.045%)
 coordinate transformation      ...        0 min,  0.002 sec (  0.001%)
 Rational function              ...        0 min,  0.000 sec (  0.000%)
 singlepoint calculation        ...        4 min,  4.953 sec ( 95.846%)
 optimization log               ...        0 min,  0.106 sec (  0.041%)
 hessian update                 ...        0 min,  0.000 sec (  0.000%)

================
 final structure:
================
$coord
       -6.62720175579700      -11.61253635029600       -5.49140374928400      o
       -7.54582516886700      -12.92889079738600       -4.52594132786400      h
       -5.07316181349100      -11.30382403034500       -4.53195178417200      h
        0.81201880670400       -4.47962804977700       -4.61045490957000      o
        1.02232587224200       -2.75729991156500       -5.27540353434700      h
        2.29599996606100       -4.76871103323700       -3.54267123439900      h
        6.09356741841100        2.78119634411400       -3.97378272528200      o
        6.98446472643200        4.31842734398700       -3.42221572087200      h
        6.88332361938600        1.38413865440900       -3.07690592297900      h
       10.97152807246500        2.92632082886600        0.62585912667500      o
        9.68573858615900        1.97580371896600       -0.24195699414600      h
       10.42039094669300        3.17242427065000        2.37545235881800      h
        1.81893155405100        0.19620667486700       -6.15353341827300      o
        0.46878945195000        1.34194737525200       -5.61784064398400      h
        3.26769313140900        0.65951916811400       -5.14515123495700      h
       -6.57965990432000       -9.11148957099900        0.64466929682500      o
       -8.10552591375500      -10.11705435774000        0.88836123853800      h
       -7.11214900882200       -7.34918271866000        0.59248523491000      h
        8.94548973249500       -1.20842650098000        3.88405124437900      o
        7.50197514439700       -0.37769866849500        4.69026108170300      h
       10.50954324114400       -0.44128628921100        4.51239404051500      h
       -2.24622962899000       -5.89323416353900        2.64038307485100      o
       -0.90162456962000       -6.93278461909000        1.97326841614500      h
       -3.14696882401900       -5.34382997107600        1.12850130200200      h
        7.62052446017800       -5.96866003463600        3.52821159605400      o
        5.91836000794900       -5.51956865077700        2.92729961884600      h
        8.40704836164000       -4.31824561886900        3.83819363968900      h
        5.65853013430700        3.98515051251400        1.43077745649900      o
        6.82451595765800        4.57192301876300        2.71092297843600      h
        4.77799785916700        5.50858388775100        0.82158651545200      h
        3.85162696673700        4.96115446816400        8.11205990843200      o
        2.09872224195700        5.03245775735000        7.54311428801800      h
        4.79927636270700        6.07092423756100        6.97666685034800      h
       -4.40616419515100        1.56041990712100        7.23202478409600      o
       -3.10728485044900        2.82757716535300        6.92630390674800      h
       -3.60399923817600       -0.05995754390500        7.05190996359100      h
        0.32709332256600       -7.67143499779300      -12.66520140907000      o
       -1.40475494619700       -8.27283077904700      -12.83233083919700      h
        1.33465362400500       -9.14545625713400      -12.19396789631500      h
       -0.94862263847100        5.23113261764100        6.16976785283600      o
       -0.89515992920800        5.69195962199900        4.38380443804400      h
       -2.13925088580000        6.42611189056000        6.91033736143500      h
        8.19079295470900        7.25462431756800       -3.16014991139300      o
        8.89888693062900        7.64686721723500       -1.49890468498200      h
        7.16388665378400        8.70483949083500       -3.67095610722200      h
       -5.91987662149400       -3.67345758527100      -12.02752364302300      o
       -4.63258973203000       -2.87556204323700      -13.12503864980900      h
       -5.45085478162800       -3.20606862963100      -10.29981703012000      h
       -1.63323928583000        3.58864041285500       -5.11336829156300      o
       -2.65485396897100        4.01017381661500       -6.58809222622300      h
       -2.71359640983100        4.01082036575000       -3.66234283291000      h
      -12.74487512596400       -2.58391366722700       -8.20284906894900      o
      -13.39314363961900       -1.46278647650100       -9.51430492856000      h
      -12.01808733145500       -4.00474894726200       -9.12617806101500      h
       -9.81333122553300       -1.65901548547300       -4.17737059846400      o
      -11.13917274903300       -0.91890078326500       -3.11004564595200      h
      -10.71860793734800       -2.30160858310500       -5.64173893205500      h
       -6.39385641420000        5.81098438621500        3.40147420318100      o
       -7.35313605652700        6.88778975196300        2.26402062382700      h
       -6.02614367159300        6.76871559976000        4.91464618793300      h
       -5.00575647014800        4.61900469287000       -8.67659869341300      o
       -6.45440312004300        3.68150210460700       -7.95792894955500      h
       -5.05287626437300        6.29447876086000       -7.87631428172100      h
        4.72924419201200       -0.35147389477800      -15.02844381824000      o
        3.68281075456600       -1.67509201378000      -15.74751437353900      h
        4.76290843166600       -0.73291813994400      -13.22484500297700      h
       -7.99424758501500       -4.15362335373200        0.04768997008700      o
       -9.59415663156000       -3.80593981646200        0.93189742809400      h
       -8.20455259056300       -3.31205930220800       -1.56542488843900      h
       -4.96078244310800       -0.00563575256400       -2.76262506782700      o
       -6.71641732885500        0.49174703803400       -2.77407997104800      h
       -4.35155466298800        0.53182748158900       -1.03926527285000      h
       -6.41332393440300       -2.65781007237500        4.57997503728700      o
       -6.78221154949100       -4.17459579083200        5.53469666591500      h
       -6.61577010168600       -3.17981321986500        2.82687335960000      h
       -8.94365674103200        2.82604380373400       -1.12681370548700      o
       -9.06169312774300        2.14892473932100        0.57399918753100      h
      -10.44820718127600        3.86402024739300       -1.32134511089900      h
       -2.37161890781200       -1.29166413443400      -14.52078158895200      o
       -1.00665608495700       -2.28903242044100      -15.23001417596800      h
       -1.65510710702100       -0.37151555870000      -13.08130525128800      h
        7.83659276080800       -1.00924458904400       -0.87852937407000      o
        6.67070739944500       -2.35780242106400       -1.31481735685300      h
        8.08224921475300       -1.08421240493200        0.96589054318000      h
      -11.83637978737000       -7.14460360428200       -2.23278020506800      o
      -13.18754490262900       -5.97795595657300       -2.78078695180500      h
      -10.32951452203400       -6.67778568754100       -3.16985546827900      h
       10.07335506933900        8.20348645480300        1.41398398487500      o
        8.76200170033800        7.98532934540700        2.69548265736100      h
       11.52880715490300        7.18346588362500        1.83938069863400      h
      -15.64111483229600       -7.13821703978700      -11.81304737338900      o
      -13.92568104343700       -6.53498781996000      -12.01083704503900      h
      -15.46890957880500       -8.71827489809400      -10.91733064814600      h
      -11.69006080401100       -3.59776112866200        7.18727543092100      o
      -10.45458022704900       -2.47892992567400        7.95408733984500      h
      -11.61495144840500       -3.34608183144500        5.37731713641700      h
        9.68555828797300        6.11804160159900      -11.70495596749600      o
       10.29554539890800        5.86077444389800       -9.96607369560800      h
        8.17010637664200        5.11907150450900      -11.80046128645100      h
        7.64161600632700       -8.07699028110200        8.18649695699300      o
        7.46317891777900       -7.41833720198000        6.46149363088700      h
        6.15924302850800       -9.08843966613400        8.54526670004700      h
       12.13887297386900       -3.54747215158100       -1.00138839960700      o
       13.46749869221500       -2.28579712514500       -0.77496461242500      h
       10.62185354922500       -2.55891886529700       -1.36892565054700      h
      -11.64540746648900       -7.60755070711100        3.05267585364500      o
      -11.74476825421400       -7.54194529504200        1.22312945703700      h
      -13.31026678111600       -8.04710793657300        3.65228565736200      h
        3.15870357543300        7.91970478380000       -0.21401188535600      o
        1.48440331752000        7.74841674527000        0.55534810018100      h
        2.89674331055000        7.64008046944400       -2.02036756001200      h
       -1.75100633746100       -3.40370676207800        7.36836494580300      o
       -2.12354713295900       -4.16090204254100        5.73638272646100      h
       -0.79223224992700       -4.64791140496100        8.35635247289300      h
       -4.77341733373000        5.57792994789700       -1.85786381334700      o
       -6.32160139647700        4.61365521300000       -1.50767252016800      h
       -5.19773191274300        6.87067393561100       -3.08797647635100      h
        7.95991241158000       -3.22324423426700       -6.75170530457000      o
        9.04146937379700       -1.80539428565000       -6.18913084927300      h
        9.03189816433200       -4.36368128101300       -7.72557600736700      h
       11.86012890897800      -12.20082300248500       -3.43661576708700      o
       11.17757526617800      -10.63930244111400       -2.77294106496600      h
       11.76035701647500      -12.04865075721500       -5.27909885205600      h
        6.21970765882900        2.85994076635100       -8.98339455705300      o
        5.28582558763000        1.33903798492800       -9.43835600910000      h
        6.36981716920300        2.83597418623000       -7.13611235108600      h
      -10.55304591773300       -6.05147457526800      -11.09655133499100      o
      -10.05798733811800       -7.74765843339500      -10.54569499358300      h
       -9.05374052241000       -5.25770310576100      -11.76304519075500      h
       -5.65863005810200        2.84644990659700      -15.00544078292400      o
       -4.53915122959000        1.44452920596000      -15.34065554555400      h
       -4.57131000394800        4.22058547602700      -14.40845627229000      h
       14.35151466240300       -3.08314411223900       -7.60321906103800      o
       14.98843729282700       -1.61428330820600       -6.70095242395700      h
       15.75622979812100       -3.70865527630600       -8.59122778499600      h
       10.63752454404400        0.58864131255400       -4.93670916717000      o
       12.42976239398500        0.25908736422300       -4.81860726385000      h
       10.54095033996700        2.24367006152200       -5.74701010394900      h
        4.62906454918300       -1.82407594763200      -10.18056561765300      o
        5.77457457109900       -2.36823990584900       -8.81038264531600      h
        2.89845740725900       -2.25919181958000       -9.70912471125500      h
      -15.37514155426900       -4.17778679246300       -4.14460279037700      o
      -16.55199914146000       -5.40852783318800       -4.81923282115300      h
      -14.62991155836900       -3.36557380319000       -5.61707902357700      h
        0.49022562231800        9.00544191619300        9.84211461505400      o
        2.09950239566200        9.13483658424800       10.74261067057200      h
        0.88878149922800        9.16442298068500        8.05509889899700      h
      -13.32012621611900        4.76114045320100      -10.77230637896300      o
      -13.37740696642900        4.17837914010100       -9.00842618331700      h
      -11.57194490916000        5.16734067994500      -11.16229419665500      h
        7.83568150075100       -8.92543386974000       -5.28498286585500      o
        9.46196868380200       -8.07152183693600       -5.46152927829900      h
        6.61744209076600       -8.07283756694300       -6.36540916648600      h
       -0.90893597260800        1.75939435417200      -10.72358221061900      o
       -0.09520809227500        0.98680461911800       -9.28427707135400      h
       -2.33148518154400        2.75819187336200      -10.14664216126700      h
       11.94218085977500       12.82970949998900        1.59910403727500      o
       10.93678258226700       11.26587849126400        1.68657337240800      h
       10.95234842007400       13.97165570663400        0.57676479654500      h
        8.73060467432000        6.73761291764500       10.33995199132300      o
        9.25644557553400        5.61005493924700       11.70554934692400      h
        8.00324791734200        5.64009154626200        9.07927001851900      h
        4.39098646718100        3.85311836642400       13.27732082213800      o
        4.15355409338600        2.03162079602600       13.30392696145000      h
        4.17186944238700        4.31483451556500       11.50745266831800      h
       15.09855018770100        0.30699700720300        0.04971108452400      o
       13.59925010931100        1.34411584050300        0.43986526669700      h
       16.22432896039400        0.35572511883800        1.48884240471700      h
      -14.06671952853800        6.57594118046600        4.27592859621400      o
      -13.82655403068500        6.65879779660200        6.09351933074400      h
      -15.45438135890400        5.37123735305600        4.04882108501800      h
       -9.05677847929400        1.66838688665500        3.94568230785300      o
       -7.82971723633800        3.06729093196500        3.81249161783700      h
       -8.12902021621300        0.12646576782200        4.36764516317300      h
       -9.24261451144000      -14.78728232879800       -2.79946656097800      o
       -9.05509854826300      -14.43468408317500       -1.01491106893000      h
      -10.85257941129200      -14.00976035289200       -3.25053856244700      h
      -22.34857015038800       -0.52353139078600        2.30336087533300      o
      -21.97920846712100       -0.39899488065700        4.12254712211200      h
      -23.00584147814700        1.10598626346900        1.80355871622300      h
       13.19844832580300       -4.55048593698100        3.94148568761300      o
       12.51235752458400       -4.37419289067700        2.23734581565400      h
       14.84538813988300       -3.74505405258700        3.83553944570500      h
      -14.42187058094700        3.13423356627200       -6.11230108451800      o
      -15.41994603623000        4.63722359989500       -5.71097172070500      h
      -15.64103627771200        1.83035473406400       -6.60051591502600      h
       -8.51996301787400        6.46038648656200      -11.95843649970900      o
       -7.07215695304100        5.76632773090100      -11.03819699111800      h
       -8.07202135254300        6.37365009014200      -13.71015960682100      h
        3.80140165622400       -8.44617459204500       14.39925829730500      o
        2.34150531846400       -7.37431687843100       14.17598116102000      h
        3.77503134375000       -9.64070848603700       13.00279319183100      h
      -14.92435264943200        6.37088616978700        9.42179131072300      o
      -13.61968674731000        6.64415111091500       10.67896227513600      h
      -15.41508077784700        4.61943449610800        9.64451697641000      h
      -13.66531802670400        0.52199512182400       -1.79129973385500      o
      -13.84462114868700        1.60218432156400       -3.27845683448300      h
      -15.30938266886200       -0.26673810019700       -1.57140299925200      h
       14.08561425012900       10.38044893576900       -2.30532959277200      o
       12.85280127343300       10.75240146090200       -3.60754418245400      h
       13.55495890431900       11.33674325990500       -0.81504306950000      h
       -2.43538935289800       -9.15836561986800        6.46155216344700      o
       -0.72741765887700       -8.45610333218000        6.35534576277900      h
       -3.38603616036000       -8.27156366828800        5.17655140321000      h
      -17.87888573027500        3.77534319596400       -1.94235773906800      o
      -18.70847226371700        5.42391788452900       -1.86107645876500      h
      -19.16477676365000        2.60643704039700       -2.52778562196700      h
        1.55858138462000       -4.29914162108900      -16.16451095083000      o
        1.64648301591800       -5.19983364213300      -17.72776549468500      h
        1.35628123438300       -5.58477341089800      -14.82756936985500      h
       -2.67521255032800       -7.66349309851300       -7.23307150386600      o
       -4.26378621258200       -7.28832668471100       -6.38922177740600      h
       -1.39414835002500       -6.73169791252900       -6.31642355852600      h
       -3.54961960553600       -4.75742620327300       -2.06088644285300      o
       -4.13691465842700       -3.00542539205100       -2.21576434255700      h
       -1.87662777686300       -4.79365335483200       -2.82462192989900      h
        5.00978948188400       10.83014656790100       -4.97721311815300      o
        3.79918704310900        9.48747983275000       -5.27128980107700      h
        5.65088118809200       11.29482777056600       -6.61305612565400      h
        5.33633300852700       -3.40924286769200        7.85377895244400      o
        4.74618478069100       -1.97979415933300        6.87971054103900      h
        4.13052711429800       -4.75195806505400        7.58170409401200      h
       -8.97480842468600        8.75034829746800       -0.00977684736500      o
      -10.23789992052900        9.86908951888800        0.77044993108700      h
       -9.77712321859800        8.01309399066000       -1.47650175255100      h
       -2.79666377406300      -10.40180719254600       -2.46959818435900      o
       -4.04935080581500       -9.74725113433600       -1.27484650549800      h
       -2.61117311673600      -12.21811697936500       -2.09167423331800      h
       -4.85094890698800        8.14351134986400        7.80406782370100      o
       -5.57438613121800        7.32582047856700        9.25582596293000      h
       -4.28237155258700        9.81299125363000        8.33314088704400      h
        0.99505970551300        0.62325088043300        8.99326833753200      o
        2.15044370255100       -0.13609539136300       10.21418685168000      h
        0.07303308630500       -0.76543776673200        8.24445820309800      h
       -7.71651604209100       -7.36016978753000        6.28614161462600      o
       -7.19861553782600       -9.11600852897600        6.58885300003300      h
       -9.18048506619500       -7.44043298648200        5.16515357084700      h
      -18.16394311142500       -0.05146283610100       -7.40572399407300      o
      -19.32146474321300        1.35110116031800       -7.63875876317900      h
      -18.14926675326100       -1.02374596123000       -9.00094211739200      h
      -10.79120917043900       10.12426192916900       -9.16221224585500      o
       -9.93774839058700        8.97227263469300      -10.31821600365100      h
       -9.66612345889500       11.53024225663100       -8.91022618035400      h
      -14.16742578885600      -10.92067097781200       -8.43656081329000      o
      -12.51879194808900      -11.04622153075900       -9.20929793562900      h
      -13.90473949693200      -11.47116060599400       -6.69115785776600      h
      -20.91388532417300       -0.22748887641200        7.10900739253200      o
      -21.58254090699200       -1.50908153914200        8.27107301133800      h
      -19.21416405081400       -0.79614942977700        6.73795554442400      h
        7.25523459473700       10.35231275263000       -9.90323696108900      o
        5.68941792434500        9.38909713675100      -10.07013591721600      h
        8.45309005549500        9.37484560995700      -10.88897580727500      h
        6.05126216307900       11.87294044192300        1.36963796592500      o
        4.96870467865500       10.57701501213400        0.63904246074400      h
        7.04933799026100       12.54972761603600       -0.01265429735200      h
        2.51900448065400        6.33388972458900       -4.96953946906200      o
        0.86454863612200        5.51650744005900       -5.09926567895200      h
        3.73869366230900        4.99741187669300       -4.75281816758300      h
        3.48744488170200        6.95281665466900      -10.31674463657000      o
        3.04695880204700        6.27852611334800      -11.97659892112500      h
        4.41667210888800        5.57932401970600       -9.50173221181100      h
       18.33089320826100       -4.60212374791000      -10.68701402305200      o
       19.52346366848800       -5.72924791515000       -9.89058771195100      h
       19.06144966527900       -2.93019991410800      -10.51551301391900      h
       13.06817326579800       -3.95280032516900      -12.70541353798900      o
       12.63430692203200       -2.61586053603300      -11.52431010395300      h
       14.88025180900600       -4.07196215461000      -12.67847920127900      h
      -11.04483694858700        6.35320983936500       13.13393576020300      o
      -11.52534705402900        4.64242517053700       13.56392994173600      h
       -9.25939204020200        6.21962306486900       12.76485831004900      h
       17.96640687262300       -3.59319024876500        2.33699011915200      o
       19.46841235449200       -4.57112621657200        2.81289921207100      h
       17.31662600921300       -4.48260025534700        0.85149115591200      h
       13.14630920913000        0.84266523981000        5.72213483927900      o
       13.29449395255600        0.38002206122800        7.49425844791600      h
       14.85420529332600        1.14900124638800        5.15328541063900      h
        9.25233798992000        4.09361398295900        5.28517400199700      o
        8.89210314214900        2.86979802004300        6.61359982003000      h
       10.62149457234800        5.11584368610200        5.95212681474600      h
       -8.87870020775300        0.54121637313000      -11.93408410728000      o
       -7.87181302518600        1.61274758216200      -13.06711376165300      h
       -8.04039237135800       -1.08931146455500      -11.97430195885600      h
      -16.10765371323800       -5.54673654268500        1.05856166325100      o
      -16.90253427310900       -4.06594316600100        0.26355979979200      h
      -16.88511781723200       -7.00419036675900        0.26205602580100      h
      -12.15898993203100       -2.51723230624100        2.03044076629400      o
      -12.54750176642100       -1.08057747303800        0.96931956203100      h
      -13.37823958667500       -3.82280371477000        1.59450410114000      h
        0.65931662672000       12.84962096670600        0.37862215130000      o
        0.20802764880700       11.68136933246100       -0.95671254770100      h
       -0.64643598971000       14.12843884674900        0.50603242191500      h
      -10.92809480777800        0.95172344593900       13.47843258400800      o
       -9.61270031010000        0.90673960744300       14.73964338754800      h
      -10.03665302719200        0.65247250514900       11.86322971928200      h
       18.00383261990500        1.49657251107100        4.15223536211700      o
       19.17088104315000        2.96144546895300        4.21688493870700      h
       18.72654256439500        0.25854272630700        5.27026855084400      h
        4.55902305703800        0.84901903041000        5.19519926253100      o
        4.63825754020500        1.93746936423500        3.71627250498300      h
        4.17007526740700        1.98293409206600        6.59873032488200      h
       19.76761708997100       -2.82214011614900       -4.63435962346500      o
       19.92963555709100       -1.62688962125800       -3.21053946498000      h
       19.53009656650800       -1.74068334739100       -6.12490339645400      h
       13.15407367202400        3.87744108014000      -14.83332455990300      o
       12.11644941942500        2.54505897929200      -15.52462018152500      h
       11.99459957689800        4.97751950376700      -13.91157302791100      h
        5.45314222213600       -5.02103969943800       -2.80795758740700      o
        6.31839661231900       -4.36085955110800       -4.31575655745300      h
        6.00143544131100       -6.75380026534000       -2.65991528075100      h
      -22.57162801364500        1.88053563696200       -3.29118133080800      o
      -23.32477889053700        2.81306396386000       -1.90925664039300      h
      -22.52509750381200        2.97221644161400       -4.75381130001700      h
      -20.87510063187500        4.47780821628700       -7.49719427456100      o
      -19.59394283609200        5.59131606940200       -6.74946899059900      h
      -21.27850445028600        5.18972168626400       -9.10949684950600      h
       -7.35540428154500       12.84176406068500        6.22112675514400      o
       -8.55418550732900       11.65238092789600        6.97124449130700      h
       -6.33157837337900       13.45993355251100        7.59411744204600      h
       -5.17076948147800       11.70008695441700       -1.16784872785300      o
       -6.62851405198300       10.54437123356400       -1.06290296941300      h
       -4.33314649801800       11.55758474296500        0.48648565114100      h
        5.67920095659400       -6.58133757599500      -12.06514715692800      o
        4.64789374414900       -7.42804929977500      -10.80896173599700      h
        5.29469971404300       -4.80023501954700      -11.84850250500200      h
      -12.20458831904500       12.12324977078600        1.88380166865100      o
      -11.13950382807500       13.60337663262400        1.94074773054300      h
      -13.07525054610200       12.08197820329600        3.51860076678300      h
       -3.82209054637000       15.82702095003100       -4.04954544947800      o
       -4.28165932375900       14.34970766374200       -3.05003779281800      h
       -2.12984351538500       15.48558351449200       -4.73637132215400      h
       10.07079321001100       -6.88545076653500       -9.79208298652100      o
       11.28330887801200       -6.03025883897600      -10.88247971256400      h
        8.48894010430500       -6.94122681745600      -10.78320855189400      h
       -9.14969929225600        2.43489993636500       -7.19421232575300      o
       -9.39312215456900        1.68129471512100       -8.86183746217700      h
       -9.27968164183800        1.05716834015100       -5.97367509386200      h
       -5.91473275514500        0.76508593018500       15.06809302897900      o
       -5.31089117113600       -0.61352818335400       14.01418799345200      h
       -4.43885508855800        1.38384913478700       15.94474609245300      h
       -8.93759891987800      -10.71076307795200       -9.95777305699000      o
       -7.48145529968500      -10.48082159539500      -11.05280526245600      h
       -8.23094162644100      -11.15582326459000       -8.31771015009200      h
       -7.27894618714300       -6.68338213418300       -4.87997584457800      o
       -7.39215122414700       -8.52871402694100       -4.99379543898000      h
       -6.18964824660100       -6.27221777708300       -3.43743147712000      h
      -13.15099647611500        5.71506085919100       -0.61988397536200      o
      -13.14954908720000        5.96058800863800        1.20219200651200      h
      -14.61936054319500        4.71144165340700       -1.04989448034900      h
      -13.26357604878900      -11.73467950266800       -3.53776225701800      o
      -12.67199384720300      -10.02426715993000       -3.05942108888100      h
      -14.40869123117600      -12.22457528163600       -2.20694515312300      h
       14.17354289411500       -0.44822685067800       10.52947382243900      o
       12.77945620679200       -0.98997376776900       11.61619420588900      h
       15.17696303484400       -1.95170081477000       10.21107030411700      h
       -1.15222253238900        8.14947352518500       -8.56566207512400      o
       -1.49631367001700        9.86689965249100       -9.17151730745200      h
        0.60923385029800        7.78636341780800       -8.98344957396700      h
       10.91811352986000        5.29357635454700       -6.89773388164900      o
       12.68794794867000        5.63296763867000       -6.57931912361500      h
        9.98543312254200        6.27451366938900       -5.63195199090800      h
      -22.51956319343700       -5.27230667640600        0.06542088165300      o
      -22.79175601820100       -3.69663912731200        0.96843451436300      h
      -22.29948162719600       -4.75344211673000       -1.67545951615500      h
        6.38747368641700        8.06470793605200        4.98793965447400      o
        4.84538842731100        8.97350847294500        4.52223551990900      h
        7.43288709420400        9.26894669736900        5.89928742346200      h
       -0.96751421990400        2.38761169574800       16.00623746606200      o
       -0.98856234582000        3.19180612296200       14.31828171150100      h
        0.52924449342400        3.00123856777200       16.81483681063700      h
       -4.43085101181400       -2.99364129705800       11.73430599228700      o
       -3.50065455382600       -3.05523955583400       10.14156524545300      h
       -5.51492970673000       -4.50269734568700       11.75947682823700      h
        3.70517582558300      -11.17890637779900        9.87095267548000      o
        2.08901538380500      -11.99776047254900        9.41318302887800      h
        4.94857374615800      -12.48710646863400        9.60385035592800      h
       -1.40749494413300        7.10465303346600        1.55120428852100      o
       -2.68392212016100        6.53470062262300        0.34055413813500      h
       -2.09061271793900        8.62352632594200        2.34040438944800      h
        3.98717223979000       -1.21958546177900       12.60136468449200      o
        5.13455650683100       -2.64708821369200       12.33229515588000      h
        2.56118171102100       -1.91991739478800       13.56577948379700      h
       -2.84550552909200      -15.26969016563600       -1.57414053846500      o
       -3.65206519758600      -15.14685995180500        0.07434126988000      h
       -1.19583872954000      -15.99702964503800       -1.31778494015400      h
       -7.91353815846100       15.23092823962200        1.64417512460800      o
       -7.22759043293000       13.97622791085200        0.48360769603000      h
       -7.74279807356000       14.53361080236100        3.33653573530400      h
        4.89295040021200       13.13191076596900        8.47495678990400      o
        4.52578813061600       12.49164410144900       10.13639634930600      h
        6.64227519583900       12.65407139584900        8.17120407441500      h
       15.17608047103200        1.93314549495200      -10.72488675325900      o
       13.53757239077100        1.23693565989600      -10.19826572026200      h
       14.81982123305900        2.66790045570000      -12.39760867332100      h
       16.64169806843200       -5.99453510889700       -1.98560184181000      o
       14.92379014907000       -5.92244870707400       -2.65095122851700      h
       17.65221673357600       -4.91503211759300       -3.07416703166700      h
      -17.64701086437500        3.25412234116000        3.03135350903000      o
      -16.48228374495900        1.98281886527000        3.67268251870800      h
      -17.72734727735700        3.11674937505800        1.18570943827000      h
        2.35147569171800      -12.11669071966500       -4.76633797737300      o
        3.67928370901700      -12.87708739090600       -5.75446349168500      h
        0.75614806860700      -12.48936755993600       -5.63140330652200      h
      -10.33268086935600        9.55123317373800        8.67878693634700      o
      -10.56409149025000        9.58430214745100       10.47674063016200      h
      -10.22318622610500        7.73680688849000        8.22902420447900      h
        1.35278700373500       -8.32397827941400       -0.49547187571900      o
       -0.04522736955900       -9.05187849908700       -1.45794991549700      h
        2.77519324432000       -9.45551408822800       -0.70328514135300      h
      -14.65267892048100       10.16234484981500       -2.38449047394800      o
      -15.18695160256900       10.93739847494600       -0.81989860751000      h
      -13.88522647269500        8.54398031824000       -1.86440291538600      h
      -13.97210112637900        0.98801767029800        5.46920790284900      o
      -12.23593388366700        1.16248039664400        4.91003770834700      h
      -14.05761271034200        1.32165800510800        7.27979072097700      h
       18.37797477484200        9.36951221316700        3.08049105587000      o
       16.97971056938500        8.21190173326800        2.68545595553400      h
       18.97516997461300        9.94996070522800        1.43332119864700      h
      -21.15797391274900       -2.88147437779200       -4.44820703425500      o
      -19.92161577464600       -2.23774487097200       -5.66633832338100      h
      -22.23606855082900       -1.43554410293400       -4.12514111585200      h
        8.77302267656000       14.19825474586700       -2.34449586514700      o
        7.16014255714600       14.95146250369900       -2.78009880016400      h
        9.35007000905500       13.27051720079600       -3.82106889192500      h
       10.78228190002000       11.34473935425700       -6.23166151395100      o
       12.37868886278300       11.38460327225700       -7.15817804604800      h
        9.49259695947600       10.99446424644200       -7.49111542869400      h
        9.94200407629000       -8.02322648974000       -0.26772897686500      o
       10.88957199672600       -6.67953050514700       -1.08393185187100      h
        9.08989180052800       -7.21190920600000        1.19814554597500      h
        3.20193751390600       -4.35149664027500        1.94707854339800      o
        3.13610200956100       -2.69722383100900        1.12159614455100      h
        2.59815900573700       -5.59189561717000        0.73159796964800      h
       -6.54681247640900      -12.16133965639400        7.39819617589000      o
       -5.74611993739100      -12.83901811408100        5.87657721384300      h
       -8.24276392810200      -12.82077834939500        7.43848623124900      h
      -16.79597322606000       -3.13701626747900        5.42130817431600      o
      -15.53937632826500       -1.77746767444200        5.35749908660100      h
      -16.37509329747100       -4.24290269710400        4.00629159102600      h
       15.81364079401300       -8.27542009533800        6.18317247154600      o
       14.75425928298600       -7.16476382413000        5.15136387984600      h
       14.64634076075000       -9.41446625503100        7.03067369334800      h
       22.12817042742900       -6.31348839914200        2.72798733868500      o
       22.75052276509400       -6.29218314010700        1.00022360994900      h
       21.42096160859200       -8.01142145223700        3.02839240257600      h
       16.88973557650600       -4.85227925326900        9.74343211592300      o
       16.84491695599300       -6.01881955717400        8.30480740763500      h
       15.61627663762400       -5.56838079399000       10.88858237993800      h
      -20.70113448374600       -6.55627126286600        5.07972449572000      o
      -19.71709910418300       -5.01207657505900        5.16139655094000      h
      -21.54350005799600       -6.52652788273600        3.46429436971600      h
       -9.93966297625900        4.65160706036400        8.13639447545400      o
       -9.74460415211300        3.64978635722200        6.62009161693800      h
       -8.48874079982200        4.32253873513000        9.20525514229400      h
       -7.85537236426200       -6.54745538498800       11.20557443587100      o
       -8.04853389939700       -6.68841851178600        9.35108898273500      h
       -6.83716571437700       -7.99762599776100       11.67079391544500      h
       -4.30314640334300      -13.23147066637000        2.95080125022800      o
       -2.48480153984700      -13.08852958893200        3.23631251029200      h
       -4.88347475097500      -11.62797099576800        2.27621674880700      h
      -15.73587135263500      -12.08950306859400        1.06798309643900      o
      -17.15368138079100      -11.35256192509100        0.17359286224800      h
      -15.83625057584700      -11.30794513203400        2.72820704124700      h
       11.55724799776900      -11.63264690153200       -8.56207527114800      o
       13.35332584132600      -11.53672573194100       -8.83106961928000      h
       10.91982921979700       -9.94330577186900       -9.00929417375200      h
       14.78973250135500        5.84028346153800        2.58990160971800      o
       15.83244799880500        4.37641961485600        2.34687157380900      h
       14.31717609653100        5.86338169520000        4.37887237860500      h
        9.51980597257700       11.06810712614500        7.76816598903000      o
       11.19837717705400       11.56614995890000        7.26628301072500      h
        9.69120423560900        9.62792317152900        8.90050447424700      h
      -16.30285421694000       -9.28669945208900        5.30254868945000      o
      -17.95289006334100       -8.47294349042900        5.24874086067100      h
      -15.50141610884800       -8.78372526665300        6.87460541350500      h
       14.27939379103300        4.50502515565400       11.64448989947100      o
       14.30366607741200        2.70726620093200       11.22324588664300      h
       12.96050402732700        4.67394546281100       12.88854408879900      h
        7.78723396050700      -15.14224433718100       -2.84407875841100      o
        9.46037054237700      -14.33256461417100       -2.89925275681700      h
        7.20430848256800      -15.04122914257500       -4.57879345061000      h
      -18.26451572711200       -1.36655551223000       -0.52291680995500      o
      -19.63128465610900       -0.93268553130900        0.64923017440300      h
      -19.09204467648500       -1.99594039774100       -2.04646939231700      h
      -12.99870525899000       -8.02433150415400        8.97915200324400      o
      -12.39779473044600       -6.41581753966500        8.23017762951500      h
      -12.99151107362400       -7.75892370507400       10.77118384584400      h
       -0.47317785272900      -13.49785969166600        8.35880861585000      o
       -1.56083116515600      -12.16989484771100        7.70107318084700      h
        0.07221744675900      -14.38377727965900        6.85966930684100      h
        4.93110481863900      -10.94310586796600        4.33158187957700      o
        5.50436223450000      -11.02764010683300        2.57350454363800      h
        5.92687261372500      -12.12904723608100        5.32873261201700      h
       12.56961954714400       -6.93006136355900       -5.02991951430400      o
       13.66697549248400       -8.07800537026100       -5.95219269758500      h
       12.84308577167500       -5.31006089037200       -5.89064504359100      h
       10.49205377627100       -3.56928542073000        8.37364504703000      o
        8.69082668782900       -3.80659683278900        8.06122722204700      h
       11.38232400916100       -3.88210716745500        6.79837529602100      h
      -12.17582956758200       -4.29693771081500       13.07087746854400      o
      -10.58559295707500       -5.01893728993600       12.50384898077400      h
      -11.83769401788000       -2.54189650137300       13.46022965650500      h
       -7.07767771313500       13.46610652619500       -7.09394821085100      o
       -5.95006599584400       14.69099335863400       -6.28859315969100      h
       -8.45701299409600       13.32625119832200       -5.86441040512600      h
       20.72108294884000       -7.40608270109700       -6.74983260391800      o
       22.01948687402000       -8.19544004404100       -5.76432305632300      h
       20.40165963235100       -5.78605348026500       -5.93075635808700      h
       -6.17798677025500        4.64306474658400       11.72596886532900      o
       -6.40617121151400        3.28558407574100       12.95226636363800      h
       -4.34412214614100        4.57792071091600       11.42334787987700      h
       -5.95371875654700        8.64011343363500       -5.79415274420500      o
       -6.07834121386800       10.38875457743600       -6.35981046502300      h
       -7.71200948752000        8.11368533201900       -5.47206502637700      h
        8.64123542213400      -15.10926321852900        2.57535544932500      o
        8.43809158447200      -15.73042062994200        0.88461597556200      h
       10.06902882391400      -13.94497886398200        2.52961145193600      h
      -17.36241946526600        9.93856298927100        2.34050825804600      o
      -15.92051626179100        8.89525557371800        2.86081626088800      h
      -18.29472561878400       10.14442717058600        3.90539866660200      h
      -11.66997149008300      -12.44604392883400        6.76629218950200      o
      -11.97120040645700      -10.78729858025300        7.53219902023000      h
      -13.29648840390500      -13.22433336118800        6.61404160734300      h
      -15.19993079048800        1.31632209365900       10.39316771812900      o
      -13.87767380442600        1.27912276162400       11.64613821387600      h
      -16.04640152734500       -0.32836587044600       10.52344064142100      h
       -2.94369489497700       12.74084453912500        9.25612577267600      o
       -2.09669959325200       13.83883089326200        8.05331343981000      h
       -1.61370671804800       11.65532102796700        9.92275083948200      h
       -8.31159415485800       -0.47738008715600        9.49115186468900      o
       -7.16514639820300        0.56823986692100        8.48813958823600      h
       -7.15870948725200       -1.55827904528600       10.42690414474700      h
      -17.16902695403000        7.50571664133900       -5.90763571019700      o
      -16.72894879742200        8.26265195012300       -7.55821618109600      h
      -16.39035877694400        8.59472297184500       -4.63910623634900      h
      -18.79642627859700        9.09059183174300        7.25615145707500      o
      -17.51563403423600        8.18805698907000        8.21773466815300      h
      -20.07953183079000        7.82627885389500        6.90392169308300      h
        4.10160257793400       15.76033347804900        3.90020774192000      o
        4.86227075233700       15.63848202944300        5.54439611482900      h
        4.80337170762000       14.33512474666800        2.91776739159200      h
       16.13238547060800        5.66110533340000       -7.55603571703000      o
       15.76785793422000        4.45420619680400       -8.92219842950200      h
       17.92146883258000        5.47738154035600       -7.19230358575900      h
       -4.62051481482800       -8.59752569696600      -11.91108482722800      o
       -5.23394897184400       -6.89874625640600      -12.29051087021400      h
       -3.95626049029400       -8.45849208354100      -10.20201760805100      h
      -20.32158852668800        8.11844749054400       -1.15487236129500      o
      -19.23607136954400        8.83189484105900        0.20701017368000      h
      -20.27255012942200        9.29397505138400       -2.52859715249300      h
      -19.04324893193600       -8.98498563940600       -1.41894761010700      o
      -18.87767450419200       -8.72237339544800       -3.22478957240200      h
      -20.51666225075500       -8.04917053314000       -0.87605619542300      h
      -21.73807343138700       -4.34202706594000        9.90024430471600      o
      -20.01505344145000       -4.27684936178100       10.52991025067900      h
      -21.74326108722100       -5.57311853253100        8.55156538264700      h
      -23.56007205449500        4.62083488413700        1.07865470145100      o
      -23.23749986970300        4.83506563660700        2.88223572834600      h
      -22.62418658636200        5.99028053435300        0.29867231577600      h
      -18.13339616086300       -2.65549983988400      -11.62676269101200      o
      -17.48588500344900       -4.37737585965100      -11.65979704456700      h
      -16.82594898106500       -1.67323207029000      -12.45305609938700      h
      -13.87880936361500        0.08368357362900      -12.47753213205000      o
      -12.07387082600600       -0.04643854783200      -12.80434597680900      h
      -14.09773670981300        1.87199498160600      -12.07447714911300      h
        9.47211763729200        3.52328268603200       14.19448217616200      o
        9.82468517883800        1.73617537949400       13.98504961853400      h
        7.62743929831800        3.64073047866800       14.20698773488500      h
        7.13847986778600       -5.19648390730200       12.55203676099000      o
        6.12893120596300       -6.37500181168000       13.56571136182200      h
        7.41227562291700       -6.04464213144800       10.94506728766100      h
       -2.71749378743100        6.61122258163500      -13.32440776782400      o
       -1.10797179644500        6.36803209835600      -14.13143879047300      h
       -2.36399345561400        7.03275992490700      -11.56431163595400      h
        2.49036979612500      -11.98502121765400      -11.00171550361000      o
        1.03969964658000      -12.53783410893400      -10.03586411044900      h
        3.97733248325900      -12.34927756514000      -10.00578601450100      h
       -0.10733487603000       -3.44170895608800       -9.72070414647100      o
       -0.05886957330700       -5.03423145185800      -10.63585462799400      h
       -1.68044641487400       -3.34350868100400       -8.80137110956000      h
       13.20905091273200        6.73428699751800        7.19379292092000      o
       13.64885449650700        6.07127602535300        8.85925983988800      h
       13.74751122960200        8.49053922555200        7.07683111609900      h
       16.21639751715700      -11.00902260728300       -0.71215051436600      o
       16.49747488072300       -9.25498373607400       -1.19254591835600      h
       15.03296073720200      -11.69531831016300       -1.93193703845100      h
       -0.18959011182800       -2.64122485856600       14.97875757888800      o
       -0.58101367451100       -0.94475669986300       15.57046359569600      h
       -1.51858927214700       -3.09132974194700       13.80346200439500      h
       12.69231501331000       -6.66354519787900       11.78379022711600      o
       12.35425566321600       -8.36969117134800       11.27522384427500      h
       11.70244780095000       -5.57889364747100       10.64571190304000      h
        4.85872100040700        9.27364082746100       12.37832031841300      o
        6.29520262510900        8.45343407689100       11.52317466003700      h
        4.48600458379500        8.17879443175600       13.77542479281900      h
       10.55241177729400       -1.72563333862800       13.88361941233100      o
       11.47406927727800       -2.56144761983900       15.19574171082100      h
        9.29396162828300       -2.96735985253800       13.31082555002500      h
       -1.20173586824200        4.37340889345800       11.43803323502600      o
       -0.50128414512700        5.99025640746500       10.90104620557600      h
       -0.42594986696900        3.04452485902400       10.38021090173100      h
        7.50750789631400      -14.13798331753700        7.48971090424400      o
        7.83713198144600      -15.18500675236900        6.02735292574700      h
        9.12202170516500      -13.35962300137400        7.90886202782000      h
       19.97565738104500       -1.04336897564300        8.62156552040800      o
       18.88844424229400       -2.49580951664500        8.99916065629900      h
       21.11715940836200       -0.89841850498300       10.01986369444500      h
       21.05145926829900        5.35845432265900        4.71138124812800      o
       20.76006797835600        5.35947791086100        6.52484182521400      h
       20.32053802633200        6.94667191632500        4.08647940880900      h
       -3.79263616032900       -9.64323465373400       11.33286643949900      o
       -3.61571423458400      -11.40181045818200       11.72063866198600      h
       -3.76452989949000       -9.56006190950100        9.47840180112800      h
       19.14442447432500        4.30301018396000        9.39092929994800      o
       19.06384232591600        2.49453214561800        9.16077590862500      h
       17.65732428430500        4.76688841391300       10.33544064554100      h
       23.91826315779300       -2.15585417786100        5.27647766043500      o
       22.51456382158200       -1.82178748799600        6.40144560104500      h
       23.54220349793600       -3.75647625164400        4.46417731083200      h
        2.18387934432400       -7.12141244221300        6.01358744856100      o
        2.18166762362400       -5.94989673876000        4.59141894457100      h
        3.22037142506800       -8.54898098758100        5.47287700930300      h
       19.52552767460200        0.09643787886900       -8.79720240435100      o
[...]
   385   8 o      387   1 h                                       0.9728069
   388   8 o      389   1 h                                       0.9620453
   388   8 o      390   1 h                                       0.9729861
   391   8 o      392   1 h                                       0.9824396
   391   8 o      393   1 h                                       0.9850069
   394   8 o      395   1 h                                       0.9756246
   394   8 o      396   1 h                                       0.9716491
   397   8 o      398   1 h                                       0.9734711
   397   8 o      399   1 h                                       0.9802967
   400   8 o      401   1 h                                       0.9638683
   400   8 o      402   1 h                                       0.9803780
   403   8 o      404   1 h                                       0.9594440
   403   8 o      405   1 h                                       0.9909073
   406   8 o      407   1 h                                       0.9772812
   406   8 o      408   1 h                                       0.9680906
   409   8 o      410   1 h                                       0.9662526
   409   8 o      411   1 h                                       0.9869657
   412   8 o      413   1 h                                       0.9696204
   412   8 o      414   1 h                                       0.9753009
   415   8 o      416   1 h                                       0.9830823
   415   8 o      417   1 h                                       0.9767200
   418   8 o      419   1 h                                       0.9795946
   418   8 o      420   1 h                                       0.9696188
   421   8 o      422   1 h                                       0.9697748
   421   8 o      423   1 h                                       0.9720092
   424   8 o      425   1 h                                       0.9769789
   424   8 o      426   1 h                                       0.9717579
   427   8 o      428   1 h                                       0.9713814
   427   8 o      429   1 h                                       0.9946730
   430   8 o      431   1 h                                       0.9789599
   430   8 o      432   1 h                                       0.9729570
   433   8 o      434   1 h                                       0.9780022
   433   8 o      435   1 h                                       0.9631512
   436   8 o      437   1 h                                       0.9802614
   436   8 o      438   1 h                                       0.9760985
   439   8 o      440   1 h                                       0.9786883
   439   8 o      441   1 h                                       0.9726321
   442   8 o      443   1 h                                       0.9718645
   442   8 o      444   1 h                                       0.9862257
   445   8 o      446   1 h                                       0.9804022
   445   8 o      447   1 h                                       0.9823144
   448   8 o      449   1 h                                       0.9699306
   448   8 o      450   1 h                                       0.9642183
   451   8 o      452   1 h                                       0.9672322
   451   8 o      453   1 h                                       0.9694094
   454   8 o      455   1 h                                       0.9894763
   454   8 o      456   1 h                                       0.9694448
   457   8 o      458   1 h                                       0.9769488
   457   8 o      459   1 h                                       0.9704390
   460   8 o      461   1 h                                       0.9690161
   460   8 o      462   1 h                                       0.9724850
   463   8 o      464   1 h                                       0.9623834
   463   8 o      465   1 h                                       0.9843523
   466   8 o      467   1 h                                       0.9597263
   466   8 o      468   1 h                                       0.9792295
   469   8 o      470   1 h                                       0.9638488
   469   8 o      471   1 h                                       0.9737002
   472   8 o      473   1 h                                       0.9739899
   472   8 o      474   1 h                                       0.9709571
   475   8 o      476   1 h                                       0.9771847
   475   8 o      477   1 h                                       0.9635786
   478   8 o      479   1 h                                       0.9840437
   478   8 o      480   1 h                                       0.9698884
   481   8 o      482   1 h                                       0.9800827
   481   8 o      483   1 h                                       0.9760620
   484   8 o      485   1 h                                       0.9913248
   484   8 o      486   1 h                                       0.9586541
   487   8 o      488   1 h                                       0.9727505
   487   8 o      489   1 h                                       0.9656180
   490   8 o      491   1 h                                       0.9795650
   490   8 o      492   1 h                                       0.9746520
   493   8 o      494   1 h                                       0.9718083
   493   8 o      495   1 h                                       0.9814824
   496   8 o      497   1 h                                       0.9755165
   496   8 o      498   1 h                                       0.9717160
   499   8 o      500   1 h                                       0.9716791
   499   8 o      501   1 h                                       0.9679895
   502   8 o      503   1 h                                       0.9786851
   502   8 o      504   1 h                                       0.9806054
   505   8 o      506   1 h                                       0.9584052
   505   8 o      507   1 h                                       0.9753832
   508   8 o      509   1 h                                       0.9755577
   508   8 o      510   1 h                                       0.9841677
   511   8 o      512   1 h                                       0.9747849
   511   8 o      513   1 h                                       0.9860964
   514   8 o      515   1 h                                       0.9592137
   514   8 o      516   1 h                                       0.9752156
   517   8 o      518   1 h                                       0.9812344
   517   8 o      519   1 h                                       0.9700639
   520   8 o      521   1 h                                       0.9798769
   520   8 o      522   1 h                                       0.9575728
   523   8 o      524   1 h                                       0.9641607
   523   8 o      525   1 h                                       0.9812611
   526   8 o      527   1 h                                       0.9714018
   526   8 o      528   1 h                                       0.9745513
   529   8 o      530   1 h                                       0.9777181
   529   8 o      531   1 h                                       0.9718896
   532   8 o      533   1 h                                       0.9887314
   532   8 o      534   1 h                                       0.9759592
   535   8 o      536   1 h                                       0.9728288
   535   8 o      537   1 h                                       0.9712836
   538   8 o      539   1 h                                       0.9608348
   538   8 o      540   1 h                                       0.9884273
   541   8 o      542   1 h                                       0.9837413
   541   8 o      543   1 h                                       0.9709898
   544   8 o      545   1 h                                       0.9766320
   544   8 o      546   1 h                                       0.9730928
   547   8 o      548   1 h                                       0.9959333
   547   8 o      549   1 h                                       0.9571220
   550   8 o      551   1 h                                       0.9696291
   550   8 o      552   1 h                                       0.9673134
   553   8 o      554   1 h                                       0.9713719
   553   8 o      555   1 h                                       0.9663171
   556   8 o      557   1 h                                       0.9761638
   556   8 o      558   1 h                                       0.9699453
   559   8 o      560   1 h                                       0.9736314
   559   8 o      561   1 h                                       0.9695690
   562   8 o      563   1 h                                       0.9731025
   562   8 o      564   1 h                                       0.9769650
   565   8 o      566   1 h                                       0.9702748
   565   8 o      567   1 h                                       0.9781607
   568   8 o      569   1 h                                       0.9808539
   568   8 o      570   1 h                                       0.9724037
   571   8 o      572   1 h                                       0.9614441
   571   8 o      573   1 h                                       0.9758400
   574   8 o      575   1 h                                       0.9675286
   574   8 o      576   1 h                                       0.9664719
   577   8 o      578   1 h                                       0.9723014
   577   8 o      579   1 h                                       0.9655849
   580   8 o      581   1 h                                       0.9767286
   580   8 o      582   1 h                                       0.9740372
   583   8 o      584   1 h                                       0.9738065
   583   8 o      585   1 h                                       0.9699118
   586   8 o      587   1 h                                       0.9730723
   586   8 o      588   1 h                                       0.9685755
   589   8 o      590   1 h                                       0.9589442
   589   8 o      591   1 h                                       0.9831208
   592   8 o      593   1 h                                       0.9853918
   592   8 o      594   1 h                                       0.9597687
   595   8 o      596   1 h                                       0.9568753
   595   8 o      597   1 h                                       0.9834264
   598   8 o      599   1 h                                       0.9747761
   598   8 o      600   1 h                                       0.9881264
   601   8 o      602   1 h                                       0.9675990
   601   8 o      603   1 h                                       0.9740581
   604   8 o      605   1 h                                       0.9806490
   604   8 o      606   1 h                                       0.9582749
   607   8 o      608   1 h                                       0.9719517
   607   8 o      609   1 h                                       0.9825018
   610   8 o      611   1 h                                       0.9575415
   610   8 o      612   1 h                                       0.9824396
   613   8 o      614   1 h                                       0.9656661
   613   8 o      615   1 h                                       0.9640256
   616   8 o      617   1 h                                       0.9681956
   616   8 o      618   1 h                                       0.9704660
   619   8 o      620   1 h                                       0.9750394
   619   8 o      621   1 h                                       0.9764196
   622   8 o      623   1 h                                       0.9794658
   622   8 o      624   1 h                                       0.9699499
   625   8 o      626   1 h                                       0.9748905
   625   8 o      627   1 h                                       0.9659032
   628   8 o      629   1 h                                       0.9716815
   628   8 o      630   1 h                                       0.9732493
   631   8 o      632   1 h                                       0.9711938
   631   8 o      633   1 h                                       0.9714488
   634   8 o      635   1 h                                       0.9621724
   634   8 o      636   1 h                                       0.9726004
   637   8 o      638   1 h                                       0.9761012
   637   8 o      639   1 h                                       0.9891120
   640   8 o      641   1 h                                       0.9591583
   640   8 o      642   1 h                                       0.9829742
   643   8 o      644   1 h                                       0.9823204
   643   8 o      645   1 h                                       0.9576815
   646   8 o      647   1 h                                       0.9725528
   646   8 o      648   1 h                                       0.9737064
   649   8 o      650   1 h                                       0.9587807
   649   8 o      651   1 h                                       0.9727573
   652   8 o      653   1 h                                       0.9757298
   652   8 o      654   1 h                                       0.9741229
   655   8 o      656   1 h                                       0.9795377
   655   8 o      657   1 h                                       0.9678059
   658   8 o      659   1 h                                       0.9683950
   658   8 o      660   1 h                                       0.9817448
   661   8 o      662   1 h                                       0.9680465
   661   8 o      663   1 h                                       0.9726754
   664   8 o      665   1 h                                       0.9692711
   664   8 o      666   1 h                                       0.9721075
   667   8 o      668   1 h                                       0.9822506
   667   8 o      669   1 h                                       0.9653265
   670   8 o      671   1 h                                       0.9783023
   670   8 o      672   1 h                                       0.9572703
   673   8 o      674   1 h                                       0.9771347
   673   8 o      675   1 h                                       0.9719469
   676   8 o      677   1 h                                       0.9759676
   676   8 o      678   1 h                                       0.9679471
   679   8 o      680   1 h                                       0.9787622
   679   8 o      681   1 h                                       0.9759903
   682   8 o      683   1 h                                       0.9859641
   682   8 o      684   1 h                                       0.9647584
   685   8 o      686   1 h                                       0.9629432
   685   8 o      687   1 h                                       0.9730465
   688   8 o      689   1 h                                       0.9693591
   688   8 o      690   1 h                                       0.9756013
   691   8 o      692   1 h                                       0.9784885
   691   8 o      693   1 h                                       0.9709088
   694   8 o      695   1 h                                       0.9702013
   694   8 o      696   1 h                                       0.9605806
   697   8 o      698   1 h                                       0.9777480
   697   8 o      699   1 h                                       0.9588425
   700   8 o      701   1 h                                       0.9731610
   700   8 o      702   1 h                                       0.9615084
   703   8 o      704   1 h                                       0.9618790
   703   8 o      705   1 h                                       0.9690821
   706   8 o      707   1 h                                       0.9616184
   706   8 o      708   1 h                                       0.9788505
   709   8 o      710   1 h                                       0.9846034
   709   8 o      711   1 h                                       0.9770887
   712   8 o      713   1 h                                       0.9715832
   712   8 o      714   1 h                                       0.9715697
   715   8 o      716   1 h                                       0.9738750
   715   8 o      717   1 h                                       0.9708779
   718   8 o      719   1 h                                       0.9699784
   718   8 o      720   1 h                                       0.9740119
   721   8 o      722   1 h                                       0.9557955 (min)
   721   8 o      723   1 h                                       0.9977483 (max)
   724   8 o      725   1 h                                       0.9909553
   724   8 o      726   1 h                                       0.9795181
   727   8 o      728   1 h                                       0.9796672
   727   8 o      729   1 h                                       0.9723026
   730   8 o      731   1 h                                       0.9707926
   730   8 o      732   1 h                                       0.9583254
   733   8 o      734   1 h                                       0.9786144
   733   8 o      735   1 h                                       0.9691430
   736   8 o      737   1 h                                       0.9677430
   736   8 o      738   1 h                                       0.9709848
   739   8 o      740   1 h                                       0.9713217
   739   8 o      741   1 h                                       0.9752646
   742   8 o      743   1 h                                       0.9832551
   742   8 o      744   1 h                                       0.9602145
   745   8 o      746   1 h                                       0.9613013
   745   8 o      747   1 h                                       0.9944857
   748   8 o      749   1 h                                       0.9687312
   748   8 o      750   1 h                                       0.9771202
   751   8 o      752   1 h                                       0.9639900
   751   8 o      753   1 h                                       0.9633556
   754   8 o      755   1 h                                       0.9656119
   754   8 o      756   1 h                                       0.9683808

 * 1 distinct bonds (by element types)

   Z      Z             #   av. dist./Å        max./Å        min./Å
   1 H    8 O         503     0.9738313     0.9977483     0.9557955


optimized geometry written to: xtbopt.coord


           -------------------------------------------------
          | TOTAL ENERGY            -1283.364981489085 Eh   |
          | GRADIENT NORM               0.006548312281 Eh/α |
          | HOMO-LUMO GAP               8.064139648155 eV   |
           -------------------------------------------------

------------------------------------------------------------------------
 * finished run on 2022/11/24 at 09:12:47.257     
------------------------------------------------------------------------
 total:
 * wall-time:     0 d,  0 h,  4 min, 54.892 sec
 *  cpu-time:     0 d,  0 h,  7 min, 16.883 sec
 * ratio c/w:     1.482 speedup
 SCF:
 * wall-time:     0 d,  0 h,  0 min, 22.447 sec
 *  cpu-time:     0 d,  0 h,  0 min, 36.386 sec
 * ratio c/w:     1.621 speedup
 ANC optimizer:
 * wall-time:     0 d,  0 h,  4 min, 31.362 sec
 *  cpu-time:     0 d,  0 h,  6 min, 38.725 sec
 * ratio c/w:     1.469 speedup

