      -----------------------------------------------------------      
     |                   =====================                   |     
     |                           x T B                           |     
     |                   =====================                   |     
     |                         S. Grimme                         |     
     |          Mulliken Center for Theoretical Chemistry        |     
     |                    University of Bonn                     |     
      -----------------------------------------------------------      

   * xtb version 6.5.1 (579679a) compiled by 'ehlert@majestix' on 2022-07-11

   xtb is free software: you can redistribute it and/or modify it under
   the terms of the GNU Lesser General Public License as published by
   the Free Software Foundation, either version 3 of the License, or
   (at your option) any later version.
   
   xtb is distributed in the hope that it will be useful,
   but WITHOUT ANY WARRANTY; without even the implied warranty of
   MERCHANTABILITY or FITNESS FOR A PARTICULAR PURPOSE.  See the
   GNU Lesser General Public License for more details.
   
   Cite this work as:
   * C. Bannwarth, E. Caldeweyher, S. Ehlert, A. Hansen, P. Pracht,
     J. Seibert, S. Spicher, S. Grimme, WIREs Comput. Mol. Sci., 2020, 11,
     e01493. DOI: 10.1002/wcms.1493
   
   for GFN2-xTB:
   * C. Bannwarth, S. Ehlert and S. Grimme., J. Chem. Theory Comput., 2019,
     15, 1652-1671. DOI: 10.1021/acs.jctc.8b01176
   for GFN1-xTB:
   * S. Grimme, C. Bannwarth, P. Shushkov, J. Chem. Theory Comput., 2017,
     13, 1989-2009. DOI: 10.1021/acs.jctc.7b00118
   for GFN0-xTB:
   * P. Pracht, E. Caldeweyher, S. Ehlert, S. Grimme, ChemRxiv, 2019, preprint.
     DOI: 10.26434/chemrxiv.8326202.v1
   for GFN-FF:
   * S. Spicher and S. Grimme, Angew. Chem. Int. Ed., 2020, 59, 15665-15673.
     DOI: 10.1002/anie.202004239
   
   for ALPB and GBSA implicit solvation:
   * S. Ehlert, M. Stahn, S. Spicher, S. Grimme, J. Chem. Theory Comput.,
     2021, 17, 4250-4261. DOI: 10.1021/acs.jctc.1c00471
   
   for DFT-D4:
   * E. Caldeweyher, C. Bannwarth and S. Grimme, J. Chem. Phys., 2017,
     147, 034112. DOI: 10.1063/1.4993215
   * E. Caldeweyher, S. Ehlert, A. Hansen, H. Neugebauer, S. Spicher,
     C. Bannwarth and S. Grimme, J. Chem. Phys., 2019, 150, 154122.
     DOI: 10.1063/1.5090222
   * E. Caldeweyher, J.-M. Mewes, S. Ehlert and S. Grimme, Phys. Chem. Chem. Phys.
     2020, 22, 8499-8512. DOI: 10.1039/D0CP00502A
   
   for sTDA-xTB:
   * S. Grimme and C. Bannwarth, J. Chem. Phys., 2016, 145, 054103.
     DOI: 10.1063/1.4959605
   
   in the mass-spec context:
   * V. Asgeirsson, C. Bauer and S. Grimme, Chem. Sci., 2017, 8, 4879.
     DOI: 10.1039/c7sc00601b
   * J. Koopman and S. Grimme, ACS Omega 2019, 4, 12, 15120-15133.
     DOI: 10.1021/acsomega.9b02011
   
   for metadynamics refer to:
   * S. Grimme, J. Chem. Theory Comput., 2019, 155, 2847-2862
     DOI: 10.1021/acs.jctc.9b00143
   
   for SPH calculations refer to:
   * S. Spicher and S. Grimme, J. Chem. Theory Comput., 2021, 17, 1701-1714
     DOI: 10.1021/acs.jctc.0c01306
   
   with help from (in alphabetical order)
   P. Atkinson, C. Bannwarth, F. Bohle, G. Brandenburg, E. Caldeweyher
   M. Checinski, S. Dohm, S. Ehlert, S. Ehrlich, I. Gerasimov, C. Hölzer
   A. Katbashev, J. Koopman, C. Lavigne, S. Lehtola, F. März, M. Müller,
   F. Musil, H. Neugebauer, J. Pisarek, C. Plett, P. Pracht, F. Pultar,
   J. Seibert, P. Shushkov, S. Spicher, M. Stahn, M. Steiner, T. Strunk,
   J. Stückrath, T. Rose, and J. Unsleber
   
 * started run on 2022/11/24 at 09:28:10.076     

           -------------------------------------------------
          |                Calculation Setup                |
           -------------------------------------------------

          program call               : xtb solvent_cluster.coord --gfn2 --sp --lmo --chrg 0
          hostname                   : cn0341
          coordinate file            : solvent_cluster.coord
          omp threads                :                     2

   ID    Z sym.   atoms
    1    8 o      1, 4, 7, 10, 13, 16, 19, 22, 25, 28, 31, 34, 37, 40, 43,
                  46, 49, 52, 55, 58, 61, 64, 67, 70, 73, 76, 79, 82, 85, 88,
                  91, 94, 97, 100, 103, 106, 109, 112, 115, 118, 121, 124,
                  127, 130, 133, 136, 139, 142, 145, 148, 151, 154, 157, 160,
                  163, 166, 169, 172, 175, 178, 181, 184, 187, 190, 193, 196,
                  199, 202, 205, 208, 211, 214, 217, 220, 223, 226, 229, 232,
                  235, 238, 241, 244, 247, 250, 253, 256, 259, 262, 265, 268,
                  271, 274, 277, 280, 283, 286, 289, 292, 295, 298, 301, 304,
                  307, 310, 313, 316, 319, 322, 325, 328, 331, 334, 337, 340,
                  343, 346, 349, 352, 355, 358, 361, 364, 367, 370, 373, 376,
                  379, 382, 385, 388, 391, 394, 397, 400, 403, 406, 409, 412,
                  415, 418, 421, 424, 427, 430, 433, 436, 439, 442, 445, 448,
                  451, 454, 457, 460, 463, 466, 469, 472, 475, 478, 481, 484,
                  487, 490, 493, 496, 499, 502, 505, 508, 511, 514, 517, 520,
                  523, 526, 529, 532, 535, 538, 541, 544, 547, 550, 553, 556,
                  559, 562, 565, 568, 571, 574, 577, 580, 583, 586, 589, 592,
                  595, 598, 601, 604, 607, 610, 613, 616, 619, 622, 625, 628,
                  631, 634, 637, 640, 643, 646, 649, 652, 655, 658, 661, 664,
                  667, 670, 673, 676, 679, 682, 685, 688, 691, 694, 697, 700,
                  703, 706, 709, 712, 715, 718, 721, 724, 727, 730, 733, 736,
                  739, 742, 745, 748, 751, 754
    2    1 h      2, 3, 5, 6, 8, 9, 11, 12, 14, 15, 17, 18, 20, 21, 23, 24,
                  26, 27, 29, 30, 32, 33, 35, 36, 38, 39, 41, 42, 44, 45, 47,
                  48, 50, 51, 53, 54, 56, 57, 59, 60, 62, 63, 65, 66, 68, 69,
                  71, 72, 74, 75, 77, 78, 80, 81, 83, 84, 86, 87, 89, 90, 92,
                  93, 95, 96, 98, 99, 101, 102, 104, 105, 107, 108, 110, 111,
                  113, 114, 116, 117, 119, 120, 122, 123, 125, 126, 128, 129,
                  131, 132, 134, 135, 137, 138, 140, 141, 143, 144, 146, 147,
                  149, 150, 152, 153, 155, 156, 158, 159, 161, 162, 164, 165,
                  167, 168, 170, 171, 173, 174, 176, 177, 179, 180, 182, 183,
                  185, 186, 188, 189, 191, 192, 194, 195, 197, 198, 200, 201,
                  203, 204, 206, 207, 209, 210, 212, 213, 215, 216, 218, 219,
                  221, 222, 224, 225, 227, 228, 230, 231, 233, 234, 236, 237,
                  239, 240, 242, 243, 245, 246, 248, 249, 251, 252, 254, 255,
                  257, 258, 260, 261, 263, 264, 266, 267, 269, 270, 272, 273,
                  275, 276, 278, 279, 281, 282, 284, 285, 287, 288, 290, 291,
                  293, 294, 296, 297, 299, 300, 302, 303, 305, 306, 308, 309,
                  311, 312, 314, 315, 317, 318, 320, 321, 323, 324, 326, 327,
                  329, 330, 332, 333, 335, 336, 338, 339, 341, 342, 344, 345,
                  347, 348, 350, 351, 353, 354, 356, 357, 359, 360, 362, 363,
                  365, 366, 368, 369, 371, 372, 374, 375, 377, 378, 380, 381,
                  383, 384, 386, 387, 389, 390, 392, 393, 395, 396, 398, 399,
                  401, 402, 404, 405, 407, 408, 410, 411, 413, 414, 416, 417,
                  419, 420, 422, 423, 425, 426, 428, 429, 431, 432, 434, 435,
                  437, 438, 440, 441, 443, 444, 446, 447, 449, 450, 452, 453,
                  455, 456, 458, 459, 461, 462, 464, 465, 467, 468, 470, 471,
                  473, 474, 476, 477, 479, 480, 482, 483, 485, 486, 488, 489,
                  491, 492, 494, 495, 497, 498, 500, 501, 503, 504, 506, 507,
                  509, 510, 512, 513, 515, 516, 518, 519, 521, 522, 524, 525,
                  527, 528, 530, 531, 533, 534, 536, 537, 539, 540, 542, 543,
                  545, 546, 548, 549, 551, 552, 554, 555, 557, 558, 560, 561,
                  563, 564, 566, 567, 569, 570, 572, 573, 575, 576, 578, 579,
                  581, 582, 584, 585, 587, 588, 590, 591, 593, 594, 596, 597,
                  599, 600, 602, 603, 605, 606, 608, 609, 611, 612, 614, 615,
                  617, 618, 620, 621, 623, 624, 626, 627, 629, 630, 632, 633,
                  635, 636, 638, 639, 641, 642, 644, 645, 647, 648, 650, 651,
                  653, 654, 656, 657, 659, 660, 662, 663, 665, 666, 668, 669,
                  671, 672, 674, 675, 677, 678, 680, 681, 683, 684, 686, 687,
                  689, 690, 692, 693, 695, 696, 698, 699, 701, 702, 704, 705,
                  707, 708, 710, 711, 713, 714, 716, 717, 719, 720, 722, 723,
                  725, 726, 728, 729, 731, 732, 734, 735, 737, 738, 740, 741,
                  743, 744, 746, 747, 749, 750, 752, 753, 755, 756

molecular fragmentation (1/2 indicates fragments):
111222222222222222222222222222222222222222222222222222222222222222222222
222222222222222222222222222222222222222222222222222222222222222222222222
222222222222222222222222222222222222222222222222222222222222222222222222
222222222222222222222222222222222222222222222222222222222222222222222222
222222222222222222222222222222222222222222222222222222222222222222222222
222222222222222222222222222222222222222222222222222222222222222222222222
222222222222222222222222222222222222222222222222222222222222222222222222
222222222222222222222222222222222222222222222222222222222222222222222222
222222222222222222222222222222222222222222222222222222222222222222222222
222222222222222222222222222222222222222222222222222222222222222222222222
222222222222222222222222222222222222
# atoms in fragment 1/2:     3   753
 fragment masses (1/2) :       18.02     4521.84
CMA distance (Bohr)    :  14.500
constraining FC (au)   :  0.0500

           -------------------------------------------------
          |                 G F N 2 - x T B                 |
           -------------------------------------------------

        Reference                      10.1021/acs.jctc.8b01176
      * Hamiltonian:
        H0-scaling (s, p, d)           1.850000    2.230000    2.230000
        zeta-weighting                 0.500000
      * Dispersion:
        s8                             2.700000
        a1                             0.520000
        a2                             5.000000
        s9                             5.000000
      * Repulsion:
        kExp                           1.500000    1.000000
        rExp                           1.000000
      * Coulomb:
        alpha                          2.000000
        third order                    shell-resolved
        anisotropic                    true
        a3                             3.000000
        a5                             4.000000
        cn-shift                       1.200000
        cn-exp                         4.000000
        max-rad                        5.000000


          ...................................................
          :                      SETUP                      :
          :.................................................:
          :  # basis functions                1512          :
          :  # atomic orbitals                1512          :
          :  # shells                         1008          :
          :  # electrons                      2016          :
          :  max. iterations                   250          :
          :  Hamiltonian                  GFN2-xTB          :
          :  restarted?                      false          :
          :  GBSA solvation                  false          :
          :  PC potential                    false          :
          :  electronic temp.          300.0000000     K    :
          :  accuracy                    1.0000000          :
          :  -> integral cutoff          0.2500000E+02      :
          :  -> integral neglect         0.1000000E-07      :
          :  -> SCF convergence          0.1000000E-05 Eh   :
          :  -> wf. convergence          0.1000000E-03 e    :
          :  Broyden damping             0.4000000          :
          ...................................................

 iter      E             dE          RMSdq      gap      omega  full diag
   1  -1291.0322375 -0.129103E+04  0.406E+00    8.45       0.0  T
   2  -1291.1021981 -0.699605E-01  0.241E+00    8.36       1.0  T
   3  -1291.1327429 -0.305448E-01  0.207E-01    7.90       1.0  T
   4  -1291.1376901 -0.494721E-02  0.451E-02    8.07       1.0  T
   5  -1291.1377591 -0.689924E-04  0.306E-02    8.05       1.0  T
   6  -1291.1377973 -0.382666E-04  0.419E-03    8.07       1.0  T
   7  -1291.1377996 -0.225093E-05  0.808E-04    8.06       4.5  T
   8  -1291.1377996 -0.393254E-07  0.416E-04    8.06       8.7  T
   9  -1291.1377996 -0.170176E-07  0.644E-05    8.06      56.5  T

   *** convergence criteria satisfied after 9 iterations ***

         #    Occupation            Energy/Eh            Energy/eV
      -------------------------------------------------------------
         1        2.0000           -0.6892964             -18.7567
       ...           ...                  ...                  ...
      1002        2.0000           -0.4133098             -11.2467
      1003        2.0000           -0.4127481             -11.2314
      1004        2.0000           -0.4125420             -11.2258
      1005        2.0000           -0.4117772             -11.2050
      1006        2.0000           -0.4111867             -11.1890
      1007        2.0000           -0.4089045             -11.1269
      1008        2.0000           -0.4063049             -11.0561 (HOMO)
      1009                         -0.1099548              -2.9920 (LUMO)
      1010                         -0.0982332              -2.6731
      1011                         -0.0871310              -2.3710
      1012                         -0.0835274              -2.2729
      1013                         -0.0750742              -2.0429
       ...                                ...                  ...
      1512                          0.4315525              11.7431
      -------------------------------------------------------------
                  HL-Gap            0.2963501 Eh            8.0641 eV
             Fermi-level           -0.2581298 Eh           -7.0241 eV
 
 localization/xTB-IFF output generation
 averaging CT terms over           15  occ. levels
 averaging CT terms over            1  virt. levels
 dipole moment from electron density (au)
     X       Y       Z   
   0.4747  -1.8263  -1.2040  total (Debye):    5.689
cpu  time for init local    0.84 s
wall time for init local    0.46 s
 doing rotations ...
 initialization of trafo matrix to unity

 converged in     16 iterations, threshold :   0.99997392D-06
 doing transformations ...
 lmo centers(Z=2) and atoms on file <lmocent.coord>
 LMO Fii/eV  ncent    charge center   contributions...
    1 LP   *******   0.00   1.81353  -6.71815  -1.12840  406O : 26.08  724O : 20.23   67O : 19.34  175O : 19.15  610O : 18.17  115O : 17.60  532O : 17.49   19O : 16.56  424O : 16.46  655O : 16.12  694O : 15.64  388O : 15.51
  283O : 13.51  415O : 13.47  241O : 13.00  247O : 12.42  451O : 11.86  565O : 11.84  421O : 11.70  673O : 11.53  691O : 11.33  607O : 11.01    4O : 10.81  604O : 10.39
  463O :  9.92   88O :  9.75  187O :  9.71  364O :  9.64   91O :  9.57   31O :  9.41  577O :  9.24  436O :  9.21   55O :  9.13  325O :  9.06  748O :  9.06  202O :  8.85
   28O :  8.82  349O :  8.79  298O :  8.68  454O :  8.44  142O :  8.36  538O :  8.33  511O :  8.23  661O :  8.09  619O :  8.01  727O :  7.89  709O :  7.85  109O :  7.65
  190O :  7.56  499O :  7.53  262O :  7.51  685O :  7.50  442O :  7.29  571O :  7.24  274O :  7.20  172O :  7.10  223O :  6.97  598O :  6.95  586O :  6.91  235O :  6.90
  328O :  6.88   22O :  6.81  280O :  6.70  370O :  6.66  304O :  6.65  700O :  6.63  112O :  6.61  703O :  6.51  391O :  6.32  358O :  6.11  556O :  6.10  322O :  6.07
  688O :  6.01  340O :  6.00  121O :  5.86  553O :  5.85  376O :  5.76   70O :  5.75  508O :  5.74  721O :  5.70  220O :  5.67  133O :  5.63   16O :  5.45  697O :  5.44
  580O :  5.30  589O :  5.22  160O :  5.20  253O :  5.09  601O :  5.09  523O :  5.01  145O :  4.96  178O :  4.96  457O :  4.91  148O :  4.86  196O :  4.79  547O :  4.76
  484O :  4.70  517O :  4.68   46O :  4.65  502O :  4.54  130O :  4.36  529O :  4.34  226O :  4.29  367O :  4.24  616O :  4.21  514O :  4.11   13O :  4.11  535O :  4.04
  634O :  4.03  184O :  4.02  679O :  4.01  568O :  3.99  244O :  3.99  739O :  3.90    1O :  3.85  217O :  3.83  487O :  3.79  730O :  3.78  559O :  3.77  400O :  3.65
   52O :  3.63    7O :  3.62  622O :  3.62  682O :  3.55   10O :  3.49  313O :  3.46  379O :  3.42  346O :  3.41  163O :  3.39  136O :  3.37  124O :  3.37   73O :  3.34
  676O :  3.33  181O :  3.30  658O :  3.27   82O :  3.27  520O :  3.26  157O :  3.22  628O :  3.22  259O :  3.21   79O :  3.20  745O :  3.19   34O :  3.16  751O :  3.15
  211O :  3.13  412O :  3.07   25O :  3.00   85O :  2.97  544O :  2.96  574O :  2.95   76O :  2.94  127O :  2.89   61O :  2.89  643O :  2.85  664O :  2.80  169O :  2.80
  417H :  2.75  625O :  2.73  118O :  2.63  583O :  2.60  229O :  2.57   37O :  2.56  100O :  2.54  466O :  2.50  439O :  2.48  496O :  2.43  706O :  2.41  657H :  2.39
  265O :  2.32  652O :  2.31  382O :  2.27  592O :  2.25  693H :  2.25  550O :  2.22  271O :  2.21  631O :  2.20  199O :  2.19  646O :  2.17  214O :  2.16  403O :  2.12
  327H :  2.10  640O :  2.04  754O :  2.04  425H :  2.04   43O :  2.04  208O :  2.01  736O :  2.00  649O :  1.98  301O :  1.96  409O :  1.96  526O :  1.94  418O :  1.91
  430O :  1.87   49O :  1.86  238O :  1.82  445O :  1.82  394O :  1.76  427O :  1.72  176H :  1.71  355O :  1.70  541O :  1.61   64O :  1.60  343O :  1.56   40O :  1.52
  475O :  1.52  292O :  1.51  490O :  1.50  533H :  1.47  286O :  1.44   30H :  1.42  674H :  1.42  248H :  1.40  352O :  1.37  319O :  1.37  600H :  1.37  620H :  1.35
  613O :  1.34  250O :  1.33  151O :  1.33   23H :  1.32  256O :  1.30  742O :  1.26  204H :  1.22  626H :  1.21  513H :  1.21  282H :  1.21  188H :  1.19  371H :  1.18
  331O :  1.17  718O :  1.17  154O :  1.14  605H :  1.14  106O :  1.11  715O :  1.11  432H :  1.09  684H :  1.07  493O :  1.05  741H :  1.04  385O :  1.04  307O :  1.03
  295O :  1.03  460O :  0.99  193O :  0.98  448O :  0.96  268O :  0.95  481O :  0.93  205O :  0.91  733O :  0.91  144H :  0.91  289O :  0.91   29H :  0.90  635H :  0.89
  422H :  0.89  712O :  0.87  708H :  0.87  611H :  0.86  170H :  0.86  505O :  0.82   97O :  0.82  728H :  0.82  334O :  0.82  698H :  0.82  433O :  0.79  725H :  0.79
   58O :  0.75  365H :  0.74  624H :  0.73  316O :  0.72  128H :  0.72  277O :  0.70  139O :  0.69  667O :  0.69  670O :  0.69  722H :  0.66  165H :  0.66    5H :  0.65
  534H :  0.65  177H :  0.64   24H :  0.64  545H :  0.63  103O :  0.63  191H :  0.63  215H :  0.62   89H :  0.59  219H :  0.58  348H :  0.58  594H :  0.58   33H :  0.58
   20H :  0.57  287H :  0.56  351H :  0.56  510H :  0.56  420H :  0.56   92H :  0.55  711H :  0.54  663H :  0.54  488H :  0.54  591H :  0.53  162H :  0.53  135H :  0.52
  515H :  0.52  656H :  0.52  159H :  0.51  114H :  0.51  585H :  0.51  539H :  0.50  485H :  0.50  552H :  0.49  366H :  0.49  341H :  0.49  467H :  0.49  723H :  0.48
  332H :  0.48  666H :  0.48  264H :  0.47  393H :  0.47  373O :  0.46  102H :  0.46  578H :  0.45  201H :  0.45  225H :  0.45    3H :  0.45  246H :  0.45  166O :  0.44
  281H :  0.43  350H :  0.43  239H :  0.42  249H :  0.42  245H :  0.42  557H :  0.42  337O :  0.41  221H :  0.41  384H :  0.40  291H :  0.40  198H :  0.40  261H :  0.39
  681H :  0.39  753H :  0.39  122H :  0.38  192H :  0.38  183H :  0.38  275H :  0.37  618H :  0.37   41H :  0.36  732H :  0.35  621H :  0.35  252H :  0.35  378H :  0.34
  644H :  0.34  686H :  0.34  705H :  0.34  126H :  0.33  729H :  0.33  180H :  0.33  158H :  0.32  647H :  0.32  336H :  0.32  554H :  0.32   87H :  0.31  453H :  0.31
  595O :  0.30  701H :  0.30  630H :  0.30  637O :  0.29  233H :  0.29   94O :  0.28  117H :  0.28  266H :  0.28  606H :  0.28  428H :  0.27   57H :  0.27  213H :  0.27
  232O :  0.27  469O :  0.27    6H :  0.26  530H :  0.26  390H :  0.26  627H :  0.26  536H :  0.25   35H :  0.25  284H :  0.25  504H :  0.25  588H :  0.25  137H :  0.24
  443H :  0.24  294H :  0.24  310O :  0.24  638H :  0.23  242H :  0.23   75H :  0.23  353H :  0.22   95H :  0.22   93H :  0.22  695H :  0.22  472O :  0.22  548H :  0.22
   77H :  0.21  381H :  0.21  416H :  0.21  447H :  0.21   80H :  0.21  450H :  0.21  360H :  0.20    9H :  0.20   38H :  0.20  380H :  0.20   42H :  0.20  459H :  0.19
  207H :  0.19  518H :  0.19  227H :  0.19   98H :  0.18  194H :  0.18  659H :  0.18  231H :  0.18  750H :  0.18  555H :  0.18  608H :  0.17  107H :  0.17  407H :  0.17
  218H :  0.17  230H :  0.17  641H :  0.17  156H :  0.17  411H :  0.17   26H :  0.17  462H :  0.16   60H :  0.16  653H :  0.16  438H :  0.16   56H :  0.16  482H :  0.16
  303H :  0.16  540H :  0.16  315H :  0.16  735H :  0.16  434H :  0.16  542H :  0.15  603H :  0.15  573H :  0.15  660H :  0.15  720H :  0.15   17H :  0.15  521H :  0.15
  342H :  0.15   78H :  0.14  562O :  0.14  486H :  0.14  590H :  0.14  257H :  0.13  599H :  0.13  302H :  0.13  719H :  0.13  710H :  0.13  222H :  0.13   53H :  0.13
   72H :  0.13  408H :  0.13  318H :  0.13  431H :  0.12  477H :  0.12  320H :  0.12  120H :  0.12  743H :  0.12  480H :  0.12  662H :  0.12  478O :  0.12  525H :  0.11
   21H :  0.11  692H :  0.11  507H :  0.11  410H :  0.11   27H :  0.11  396H :  0.11  639H :  0.11  272H :  0.11  258H :  0.10  237H :  0.10  273H :  0.10  476H :  0.10
  269H :  0.10  285H :  0.10  561H :  0.10  195H :  0.10  143H :  0.10  744H :  0.10  161H :  0.10  397O :  0.10  560H :  0.10  338H :  0.09  206H :  0.09  185H :  0.09
  333H :  0.09  203H :  0.08  305H :  0.08    8H :  0.08  335H :  0.08  464H :  0.08  309H :  0.08   14H :  0.08  440H :  0.08  345H :  0.08  386H :  0.08  243H :  0.08
  491H :  0.08  752H :  0.08  339H :  0.07  678H :  0.07  456H :  0.07  344H :  0.07   12H :  0.07
    2 LP   *******   0.00 -57.04517  40.72074 -17.71904  406O : 23.14  532O : 20.91  724O : 19.38   67O : 18.54  175O : 18.35  610O : 17.41  115O : 16.86   19O : 15.87  424O : 15.77  655O : 15.44  694O : 14.99  388O : 14.86
  283O : 12.95  415O : 12.91  241O : 12.47  247O : 11.90  451O : 11.36  565O : 11.35  421O : 11.21  673O : 11.05  691O : 10.82  607O : 10.55    4O : 10.49  604O :  9.95
  463O :  9.50   88O :  9.34  187O :  9.30  364O :  9.24   91O :  9.17   31O :  9.02  577O :  8.88  436O :  8.82   55O :  8.75  748O :  8.68  325O :  8.67  202O :  8.47
   28O :  8.45  349O :  8.42  298O :  8.32  454O :  8.09  142O :  8.01  538O :  7.98  511O :  7.89  661O :  7.75  619O :  7.68  727O :  7.56  709O :  7.52  109O :  7.33
  190O :  7.25  499O :  7.22  262O :  7.20  685O :  7.19  442O :  6.99  571O :  6.94  274O :  6.90  172O :  6.80  223O :  6.68  598O :  6.67  586O :  6.62  235O :  6.62
  328O :  6.59   22O :  6.47  280O :  6.42  370O :  6.38  304O :  6.38  700O :  6.36  112O :  6.33  703O :  6.23  391O :  6.06  358O :  5.86  556O :  5.85  322O :  5.82
  688O :  5.76  340O :  5.75  121O :  5.61  553O :  5.61  376O :  5.52   70O :  5.52  508O :  5.50  721O :  5.46  220O :  5.43  133O :  5.40   16O :  5.23  697O :  5.21
  580O :  5.08  589O :  5.00  160O :  4.98  601O :  4.88  253O :  4.88  523O :  4.80  145O :  4.75  178O :  4.75  457O :  4.70  148O :  4.67  196O :  4.58  547O :  4.54
  484O :  4.50  517O :  4.50   46O :  4.45  502O :  4.35  226O :  4.30  130O :  4.18  529O :  4.16  367O :  4.06  616O :  4.04   13O :  3.97  514O :  3.94  184O :  3.90
  535O :  3.87  634O :  3.87  679O :  3.84  568O :  3.82  244O :  3.82  739O :  3.74    1O :  3.72  217O :  3.67  487O :  3.63  730O :  3.63  559O :  3.62  400O :  3.52
   52O :  3.48    7O :  3.46  622O :  3.46  682O :  3.40   10O :  3.34  313O :  3.34  379O :  3.27  346O :  3.26  163O :  3.25  136O :  3.23  124O :  3.22   73O :  3.20
  676O :  3.20  181O :  3.16  628O :  3.15  658O :  3.14   82O :  3.13  520O :  3.12  157O :  3.09  259O :  3.07   79O :  3.07  745O :  3.06   34O :  3.03  751O :  3.01
  211O :  3.01  412O :  2.95   25O :  2.87   85O :  2.85  544O :  2.84  574O :  2.83   76O :  2.82   61O :  2.78  127O :  2.77  643O :  2.73  664O :  2.69  169O :  2.68
  417H :  2.64  625O :  2.62  118O :  2.53  583O :  2.49  229O :  2.46   37O :  2.46  100O :  2.44  466O :  2.40  439O :  2.37  496O :  2.33  706O :  2.31  657H :  2.29
  265O :  2.22  652O :  2.21  382O :  2.18  592O :  2.16  693H :  2.15  550O :  2.12  271O :  2.12  631O :  2.10  199O :  2.10  646O :  2.08  214O :  2.06  403O :  2.03
  327H :  2.01  754O :  1.96  425H :  1.95  640O :  1.95   43O :  1.95  208O :  1.92  736O :  1.92  649O :  1.90  301O :  1.88  526O :  1.86  409O :  1.86  418O :  1.83
   49O :  1.78  238O :  1.75  445O :  1.74  394O :  1.69  427O :  1.65  176H :  1.64  430O :  1.64  355O :  1.62  541O :  1.54   64O :  1.53  343O :  1.49   40O :  1.45
  475O :  1.45  292O :  1.45  490O :  1.44  286O :  1.38  674H :  1.36   30H :  1.36  248H :  1.34  352O :  1.32  319O :  1.32  600H :  1.31   23H :  1.30  620H :  1.29
  613O :  1.28  151O :  1.28  250O :  1.28  533H :  1.27  256O :  1.24  742O :  1.21  204H :  1.17  626H :  1.16  513H :  1.16  282H :  1.16  188H :  1.15  371H :  1.13
  331O :  1.12  718O :  1.12  154O :  1.10  605H :  1.09  106O :  1.07  715O :  1.06  684H :  1.03  493O :  1.01  307O :  1.00  385O :  0.99  741H :  0.99  295O :  0.99
  460O :  0.94  733O :  0.94  193O :  0.94  448O :  0.92  268O :  0.91  481O :  0.89  144H :  0.87  289O :  0.87  205O :  0.86   29H :  0.86  635H :  0.86  422H :  0.85
  432H :  0.83  708H :  0.83  712O :  0.83  611H :  0.82  170H :  0.82  505O :  0.79   97O :  0.79  728H :  0.78  698H :  0.78  334O :  0.78  433O :  0.76  725H :  0.76
   58O :  0.72  365H :  0.71  624H :  0.70  316O :  0.69  128H :  0.69  277O :  0.67  139O :  0.67  670O :  0.66  667O :  0.66  722H :  0.63  165H :  0.63    5H :  0.63
   24H :  0.62  177H :  0.61  545H :  0.61  103O :  0.61  191H :  0.60  215H :  0.59   89H :  0.56  219H :  0.56  594H :  0.56   33H :  0.55  348H :  0.55   20H :  0.55
  351H :  0.54  287H :  0.54  510H :  0.54  420H :  0.54   92H :  0.53  534H :  0.52  711H :  0.52  663H :  0.51  488H :  0.51  591H :  0.51  162H :  0.51  135H :  0.50
  515H :  0.50  656H :  0.50  159H :  0.49  114H :  0.49  585H :  0.49  539H :  0.48  485H :  0.48  552H :  0.47  366H :  0.47  341H :  0.47  467H :  0.47  723H :  0.46
  332H :  0.46  666H :  0.46  264H :  0.45  393H :  0.45  373O :  0.44  102H :  0.44  578H :  0.44  201H :  0.43  225H :  0.43  246H :  0.43    3H :  0.43  166O :  0.42
  281H :  0.41  350H :  0.41  239H :  0.41  249H :  0.41  245H :  0.41  557H :  0.40  337O :  0.39  221H :  0.39  384H :  0.38  198H :  0.38  291H :  0.38  261H :  0.38
  681H :  0.37  753H :  0.37  122H :  0.37  192H :  0.36  183H :  0.36  275H :  0.36  618H :  0.35   41H :  0.35  732H :  0.34  621H :  0.33  252H :  0.33  378H :  0.33
  644H :  0.33  686H :  0.32  705H :  0.32  126H :  0.32  729H :  0.32  180H :  0.31  158H :  0.31  647H :  0.31  336H :  0.31  554H :  0.30   87H :  0.30  453H :  0.30
  630H :  0.29  595O :  0.29  701H :  0.28    6H :  0.28  637O :  0.28  233H :  0.28   94O :  0.27  117H :  0.27  266H :  0.27  606H :  0.27  428H :  0.26  213H :  0.26
   57H :  0.26  232O :  0.25  469O :  0.25  530H :  0.25  390H :  0.25  627H :  0.25  536H :  0.24   35H :  0.24  284H :  0.24  504H :  0.24  588H :  0.24  137H :  0.23
  443H :  0.23  294H :  0.23  310O :  0.23  638H :  0.22   75H :  0.22  242H :  0.22  353H :  0.21   95H :  0.21   93H :  0.21  695H :  0.21  548H :  0.21  472O :  0.21
   77H :  0.21  381H :  0.20  416H :  0.20  447H :  0.20   80H :  0.20  450H :  0.20  360H :  0.20    9H :  0.19   38H :  0.19  380H :  0.19  407H :  0.19   42H :  0.19
  459H :  0.19  207H :  0.18  518H :  0.18  227H :  0.18  185H :  0.18   98H :  0.18  194H :  0.17  659H :  0.17  231H :  0.17  750H :  0.17  555H :  0.17  608H :  0.17
  107H :  0.17  408H :  0.17  218H :  0.16  641H :  0.16  230H :  0.16  156H :  0.16   26H :  0.16  462H :  0.16   60H :  0.16  653H :  0.16  438H :  0.16   56H :  0.16
  482H :  0.16  303H :  0.15  540H :  0.15  411H :  0.15  315H :  0.15  434H :  0.15  735H :  0.15  542H :  0.15  603H :  0.15  573H :  0.15  660H :  0.14  720H :  0.14
   17H :  0.14  342H :  0.14  521H :  0.14   78H :  0.14  562O :  0.14  486H :  0.13  590H :  0.13  257H :  0.13  599H :  0.13  302H :  0.13  719H :  0.12  710H :  0.12
  222H :  0.12   53H :  0.12   72H :  0.12  318H :  0.12  431H :  0.12  477H :  0.12  120H :  0.11  320H :  0.11  743H :  0.11  480H :  0.11  662H :  0.11  525H :  0.11
  478O :  0.11   21H :  0.11  410H :  0.11  507H :  0.11   27H :  0.10  692H :  0.10  396H :  0.10  639H :  0.10  272H :  0.10  258H :  0.10  237H :  0.10  273H :  0.10
  476H :  0.10  269H :  0.10  285H :  0.10  561H :  0.10  195H :  0.10  143H :  0.10  744H :  0.10  161H :  0.10  397O :  0.09  560H :  0.09  338H :  0.09  333H :  0.09
  309H :  0.08  206H :  0.08  203H :  0.08  305H :  0.08    8H :  0.08  335H :  0.08  464H :  0.08  491H :  0.07   14H :  0.07  440H :  0.07  345H :  0.07  386H :  0.07
  243H :  0.07  752H :  0.07  339H :  0.07  678H :  0.07  456H :  0.07
    3 LP   *******   0.00  24.47802  22.94629  32.01992  406O : 21.75  724O : 18.22   67O : 17.43  175O : 17.25  694O : 16.47  610O : 16.37  115O : 15.85  532O : 15.76   19O : 14.93  424O : 14.83  655O : 14.52  388O : 13.97
  283O : 12.17  415O : 12.14  241O : 11.72  247O : 11.19  451O : 10.68  421O : 10.54  565O : 10.42  673O : 10.39  691O : 10.17  607O :  9.92    4O :  9.86  604O :  9.36
  463O :  8.93   88O :  8.79  187O :  8.74  364O :  8.68   91O :  8.62   31O :  8.49  577O :  8.35  436O :  8.29   55O :  8.22  325O :  8.16  748O :  8.16  202O :  7.96
   28O :  7.95  349O :  7.92  298O :  7.67  454O :  7.60  142O :  7.53  538O :  7.50  511O :  7.42  661O :  7.29  619O :  7.20  727O :  7.10  709O :  7.07  109O :  6.88
  190O :  6.81  499O :  6.79  262O :  6.77  685O :  6.76  442O :  6.57  571O :  6.52  274O :  6.49  172O :  6.40  223O :  6.28  598O :  6.26  235O :  6.22  586O :  6.21
  328O :  6.20   22O :  6.08  280O :  6.03  370O :  6.00  304O :  6.00  700O :  5.97  112O :  5.95  703O :  5.86  391O :  5.70  358O :  5.50  556O :  5.50  322O :  5.47
  688O :  5.41  340O :  5.40  121O :  5.28  553O :  5.27  376O :  5.19   70O :  5.19  508O :  5.17  721O :  5.14  220O :  5.09  133O :  5.08   16O :  4.91  697O :  4.90
  580O :  4.78  589O :  4.72  160O :  4.66  601O :  4.59  253O :  4.59  523O :  4.51  145O :  4.47  178O :  4.47  457O :  4.42  148O :  4.38  196O :  4.31  547O :  4.29
  484O :  4.23  517O :  4.22   46O :  4.19  502O :  4.09  226O :  4.05  130O :  3.93  529O :  3.91  367O :  3.81  616O :  3.80   13O :  3.73  514O :  3.71  535O :  3.64
  634O :  3.63  184O :  3.62  679O :  3.61  244O :  3.59  568O :  3.59  739O :  3.51    1O :  3.50  217O :  3.46  487O :  3.42  730O :  3.41  559O :  3.40  400O :  3.31
   52O :  3.27    7O :  3.26  622O :  3.26  682O :  3.19   10O :  3.13  313O :  3.12  379O :  3.09  346O :  3.07  163O :  3.06  136O :  3.03  124O :  3.03   73O :  3.01
  676O :  3.00  181O :  2.98  628O :  2.96   82O :  2.95  658O :  2.95  520O :  2.94  157O :  2.90  259O :  2.89   79O :  2.89  745O :  2.87   34O :  2.85  751O :  2.83
  211O :  2.82  412O :  2.77   25O :  2.70   85O :  2.68  544O :  2.67  574O :  2.66   76O :  2.65  127O :  2.61   61O :  2.61  643O :  2.57  664O :  2.53  169O :  2.52
  417H :  2.48  625O :  2.46  118O :  2.38  583O :  2.34  229O :  2.31   37O :  2.31  100O :  2.28  466O :  2.25  439O :  2.23  706O :  2.17  657H :  2.15  265O :  2.09
  652O :  2.08  496O :  2.07  382O :  2.05  592O :  2.03  693H :  2.02  550O :  2.00  271O :  2.00  631O :  1.98  199O :  1.97  646O :  1.96  214O :  1.94  403O :  1.91
  327H :  1.89  754O :  1.84  425H :  1.84  640O :  1.84   43O :  1.83  208O :  1.81  736O :  1.80  649O :  1.78  301O :  1.77  409O :  1.76  526O :  1.75  418O :  1.72
   49O :  1.67  238O :  1.64  445O :  1.64  394O :  1.58  427O :  1.55  176H :  1.54  430O :  1.54  355O :  1.53  541O :  1.45   64O :  1.44  343O :  1.40  475O :  1.37
   40O :  1.37  292O :  1.36  490O :  1.35  533H :  1.32  286O :  1.30  674H :  1.28   30H :  1.28  248H :  1.26  352O :  1.24  319O :  1.24  600H :  1.23   23H :  1.22
  620H :  1.21  613O :  1.21  151O :  1.20  250O :  1.20  256O :  1.17  742O :  1.13  204H :  1.10  626H :  1.09  513H :  1.09  282H :  1.09  188H :  1.08  371H :  1.06
  331O :  1.05  718O :  1.05  154O :  1.03  605H :  1.03  106O :  1.00  715O :  0.99  684H :  0.97  493O :  0.95  307O :  0.94  385O :  0.93  741H :  0.93  295O :  0.93
  460O :  0.89  193O :  0.88  448O :  0.87  268O :  0.85  481O :  0.84  205O :  0.82  733O :  0.82  144H :  0.82  289O :  0.82   29H :  0.81  635H :  0.80  422H :  0.80
  712O :  0.78  432H :  0.78  708H :  0.78  611H :  0.77  170H :  0.77  505O :  0.74   97O :  0.74  728H :  0.74  334O :  0.74  698H :  0.73  433O :  0.71  725H :  0.71
   58O :  0.68  365H :  0.66  624H :  0.66  277O :  0.66  316O :  0.65  128H :  0.65  139O :  0.63  670O :  0.62  667O :  0.62  165H :  0.60  722H :  0.60    5H :  0.59
   24H :  0.58  534H :  0.58  177H :  0.58  545H :  0.57  103O :  0.57  191H :  0.57  215H :  0.56   89H :  0.53  219H :  0.53  348H :  0.52  594H :  0.52   33H :  0.52
  351H :  0.51  287H :  0.51  510H :  0.51  420H :  0.50   92H :  0.50   20H :  0.49  711H :  0.49  663H :  0.48  488H :  0.48  591H :  0.48  135H :  0.47  515H :  0.47
  656H :  0.47  159H :  0.46  114H :  0.46  585H :  0.46  539H :  0.45  485H :  0.45  552H :  0.44  366H :  0.44  341H :  0.44  162H :  0.44  467H :  0.44  723H :  0.43
  332H :  0.43  666H :  0.43  264H :  0.43  393H :  0.42  373O :  0.41  102H :  0.41  578H :  0.41  201H :  0.41  225H :  0.41  246H :  0.40    3H :  0.40  166O :  0.39
  281H :  0.39  350H :  0.39  239H :  0.38  249H :  0.38  245H :  0.38  221H :  0.38  557H :  0.37  337O :  0.37  384H :  0.36  291H :  0.36  198H :  0.36  261H :  0.35
  681H :  0.35  753H :  0.35  122H :  0.34  192H :  0.34  183H :  0.34  275H :  0.34  618H :  0.33   41H :  0.33  732H :  0.32  621H :  0.31  252H :  0.31  378H :  0.31
  644H :  0.31  686H :  0.30  705H :  0.30  126H :  0.30  729H :  0.30  180H :  0.29  158H :  0.29  647H :  0.29  336H :  0.29  554H :  0.29   87H :  0.28  453H :  0.28
  630H :  0.27  595O :  0.27  701H :  0.27    6H :  0.27  637O :  0.26  233H :  0.26   94O :  0.26  117H :  0.26  266H :  0.25  606H :  0.25  428H :  0.24  213H :  0.24
   57H :  0.24  469O :  0.24  232O :  0.24  530H :  0.23  390H :  0.23  627H :  0.23  536H :  0.23   35H :  0.23  284H :  0.23  504H :  0.22  588H :  0.22  137H :  0.22
  443H :  0.22  294H :  0.22  310O :  0.21  638H :  0.21  242H :  0.21   75H :  0.21  353H :  0.21   95H :  0.20   93H :  0.20  381H :  0.19  472O :  0.19  548H :  0.19
   77H :  0.19  416H :  0.19  447H :  0.19   80H :  0.19  450H :  0.18  360H :  0.18    9H :  0.18   38H :  0.18  407H :  0.18   42H :  0.18  380H :  0.18  459H :  0.17
  207H :  0.17  518H :  0.17  227H :  0.17   98H :  0.16  194H :  0.16  659H :  0.16  231H :  0.16  750H :  0.16  555H :  0.16  608H :  0.16  107H :  0.16  408H :  0.16
  218H :  0.15  641H :  0.15  230H :  0.15  156H :  0.15  411H :  0.15   26H :  0.15  462H :  0.15   60H :  0.15  653H :  0.15  438H :  0.15   56H :  0.15  482H :  0.15
  303H :  0.15  540H :  0.14  315H :  0.14  735H :  0.14  434H :  0.14  542H :  0.14  603H :  0.14  573H :  0.14  660H :  0.14  720H :  0.13  695H :  0.13   17H :  0.13
  342H :  0.13  521H :  0.13   78H :  0.13  562O :  0.13  486H :  0.13  590H :  0.12  257H :  0.12  222H :  0.12  599H :  0.12  302H :  0.12  719H :  0.12  710H :  0.12
   53H :  0.11   72H :  0.11  318H :  0.11  431H :  0.11  477H :  0.11  120H :  0.11  320H :  0.11  743H :  0.11  480H :  0.11  662H :  0.10  525H :  0.10  161H :  0.10
  478O :  0.10  507H :  0.10   21H :  0.10  410H :  0.10  692H :  0.10   27H :  0.10  396H :  0.10  639H :  0.10  272H :  0.09  476H :  0.09  258H :  0.09  237H :  0.09
  273H :  0.09  269H :  0.09  285H :  0.09  561H :  0.09  195H :  0.09  143H :  0.09  744H :  0.09  397O :  0.09  560H :  0.09  338H :  0.08  206H :  0.08  185H :  0.08
  333H :  0.08  309H :  0.08  203H :  0.08  305H :  0.08    8H :  0.07  335H :  0.07  464H :  0.07
    4 LP   *******   0.00  61.28116  19.37387  -0.96549  406O : 21.27  724O : 20.76   67O : 17.05  175O : 16.88  610O : 16.01  115O : 15.50  532O : 15.41   19O : 14.58  424O : 14.50  655O : 13.94  694O : 13.78  388O : 13.67
  283O : 11.91  415O : 11.87  241O : 11.46  247O : 10.94  451O : 10.45  565O : 10.43  421O : 10.31  673O : 10.16  691O :  9.95  607O :  9.71    4O :  9.65  604O :  9.15
  463O :  8.74   88O :  8.59  187O :  8.55  364O :  8.50   91O :  8.43   31O :  8.29  577O :  8.16  436O :  8.11   55O :  8.04  325O :  7.98  748O :  7.98  202O :  7.79
   28O :  7.77  349O :  7.75  298O :  7.65  454O :  7.44  142O :  7.36  538O :  7.34  511O :  7.25  661O :  7.17  619O :  7.06  727O :  6.95  709O :  6.92  109O :  6.74
  190O :  6.66  499O :  6.64  262O :  6.62  685O :  6.61  442O :  6.43  571O :  6.38  274O :  6.35  172O :  6.26  223O :  6.14  598O :  6.13  586O :  6.09  235O :  6.08
  328O :  6.06   22O :  5.95  280O :  5.90  370O :  5.87  304O :  5.86  700O :  5.84  112O :  5.82  703O :  5.73  391O :  5.57  358O :  5.38  556O :  5.38  322O :  5.35
  688O :  5.33  340O :  5.28  121O :  5.16  553O :  5.16  376O :  5.07   70O :  5.07  508O :  5.06  721O :  5.02  220O :  4.99  133O :  4.96   16O :  4.80  697O :  4.79
  580O :  4.67  589O :  4.60  160O :  4.58  253O :  4.49  601O :  4.49  523O :  4.41  145O :  4.37  178O :  4.37  457O :  4.32  148O :  4.28  196O :  4.22  547O :  4.20
  484O :  4.14  517O :  4.13   46O :  4.09  502O :  4.00  226O :  3.96  130O :  3.84  529O :  3.82  367O :  3.73  616O :  3.70   13O :  3.65  514O :  3.62  535O :  3.56
  634O :  3.55  184O :  3.54  679O :  3.53  568O :  3.51  244O :  3.51  739O :  3.44    1O :  3.42  217O :  3.38  730O :  3.35  487O :  3.34  559O :  3.33  400O :  3.24
   52O :  3.20  622O :  3.20    7O :  3.19  682O :  3.12   10O :  3.10  313O :  3.05  379O :  3.01  346O :  3.00  163O :  2.99  136O :  2.97  124O :  2.97   73O :  2.95
  676O :  2.94  181O :  2.93  628O :  2.89  658O :  2.88   82O :  2.88  520O :  2.87  157O :  2.84  259O :  2.83   79O :  2.82  745O :  2.81   34O :  2.78  751O :  2.77
  211O :  2.76  412O :  2.71   25O :  2.64   85O :  2.62  544O :  2.61  574O :  2.60   76O :  2.59  127O :  2.55   61O :  2.55  643O :  2.51  664O :  2.47  169O :  2.47
  417H :  2.42  625O :  2.41  118O :  2.33  583O :  2.29  229O :  2.26   37O :  2.26  100O :  2.24  466O :  2.21  439O :  2.18  496O :  2.14  706O :  2.12  657H :  2.08
  271O :  2.06  265O :  2.04  652O :  2.03  382O :  2.00  592O :  1.99  693H :  1.97  550O :  1.95  631O :  1.93  199O :  1.93  646O :  1.91  214O :  1.90  403O :  1.86
  327H :  1.85  754O :  1.80  425H :  1.80  640O :  1.80   43O :  1.79  301O :  1.77  208O :  1.77  736O :  1.76  649O :  1.75  409O :  1.73  526O :  1.71  418O :  1.68
   49O :  1.64  238O :  1.61  445O :  1.60  394O :  1.55  427O :  1.52  176H :  1.51  430O :  1.51  355O :  1.49  541O :  1.42   64O :  1.41  343O :  1.37   40O :  1.34
  475O :  1.34  292O :  1.33  490O :  1.32  533H :  1.29  286O :  1.27   30H :  1.25  674H :  1.25  248H :  1.23  352O :  1.21  319O :  1.21  600H :  1.21   23H :  1.19
  620H :  1.19  613O :  1.18  151O :  1.18  250O :  1.18  256O :  1.14  742O :  1.11  204H :  1.08  626H :  1.07  513H :  1.07  282H :  1.07  188H :  1.05  371H :  1.04
  331O :  1.03  718O :  1.03  154O :  1.01  605H :  1.00  106O :  0.98  715O :  0.98  684H :  0.95  295O :  0.93  493O :  0.93  307O :  0.92  385O :  0.91  741H :  0.91
  460O :  0.87  193O :  0.86  448O :  0.85  268O :  0.83  481O :  0.82  205O :  0.81  733O :  0.80  144H :  0.80  289O :  0.80   29H :  0.79  635H :  0.79  422H :  0.79
  432H :  0.77  712O :  0.77  708H :  0.77  611H :  0.76  170H :  0.76  505O :  0.72   97O :  0.72  728H :  0.72  334O :  0.72  698H :  0.72  433O :  0.70   58O :  0.66
  365H :  0.65  624H :  0.64  316O :  0.64  128H :  0.63  277O :  0.62  139O :  0.61  667O :  0.60  670O :  0.60  722H :  0.58  165H :  0.58  725H :  0.58    5H :  0.58
   24H :  0.57  534H :  0.57  177H :  0.56  545H :  0.56  103O :  0.56  191H :  0.55  215H :  0.54   89H :  0.52  219H :  0.51  348H :  0.51  594H :  0.51   33H :  0.51
   20H :  0.50  351H :  0.50  287H :  0.50  510H :  0.50  420H :  0.49   92H :  0.49  711H :  0.48  663H :  0.47  488H :  0.47  591H :  0.47  162H :  0.47  656H :  0.46
  135H :  0.46  515H :  0.46  159H :  0.45  114H :  0.45  585H :  0.45  539H :  0.44  485H :  0.44  552H :  0.43  366H :  0.43  341H :  0.43  467H :  0.43  723H :  0.43
  332H :  0.42  666H :  0.42  264H :  0.42  393H :  0.42  373O :  0.40  102H :  0.40  578H :  0.40  201H :  0.40  225H :  0.40  246H :  0.39    3H :  0.39  281H :  0.38
  350H :  0.38  239H :  0.37  249H :  0.37  245H :  0.37  166O :  0.37  557H :  0.37  337O :  0.36  221H :  0.36  384H :  0.35  291H :  0.35  198H :  0.35  261H :  0.35
  681H :  0.34  753H :  0.34  638H :  0.34  122H :  0.34  192H :  0.33  183H :  0.33  275H :  0.33   41H :  0.32  618H :  0.32  732H :  0.31  621H :  0.31  252H :  0.31
  378H :  0.30  644H :  0.30  686H :  0.30  705H :  0.30  126H :  0.29  729H :  0.29  180H :  0.29  158H :  0.28  647H :  0.28  336H :  0.28  554H :  0.28   87H :  0.28
  453H :  0.27  595O :  0.27  630H :  0.27  701H :  0.26    6H :  0.26  233H :  0.25   94O :  0.25  117H :  0.25  266H :  0.25  606H :  0.25  428H :  0.24  213H :  0.24
   57H :  0.24  469O :  0.23  232O :  0.23  530H :  0.23  390H :  0.23  627H :  0.23  536H :  0.22   35H :  0.22  284H :  0.22  504H :  0.22  588H :  0.22  137H :  0.22
  637O :  0.21  443H :  0.21  294H :  0.21  310O :  0.21  242H :  0.20   75H :  0.20  353H :  0.20   95H :  0.19   93H :  0.19  695H :  0.19  472O :  0.19  548H :  0.19
   77H :  0.19  381H :  0.19  416H :  0.19  447H :  0.18   80H :  0.18  450H :  0.18  360H :  0.18    9H :  0.18   38H :  0.18  380H :  0.18  407H :  0.18   42H :  0.18
  459H :  0.17  207H :  0.17  518H :  0.17  227H :  0.16   98H :  0.16  194H :  0.16  659H :  0.16  231H :  0.16  750H :  0.16  555H :  0.16  107H :  0.15  608H :  0.15
  408H :  0.15  218H :  0.15  641H :  0.15  230H :  0.15  156H :  0.15  411H :  0.15   26H :  0.15  462H :  0.15   60H :  0.14  653H :  0.14  438H :  0.14   56H :  0.14
  482H :  0.14  540H :  0.14  315H :  0.14  735H :  0.14  434H :  0.14  303H :  0.14  542H :  0.13  603H :  0.13  573H :  0.13  660H :  0.13  720H :  0.13   17H :  0.13
  342H :  0.13  521H :  0.13   78H :  0.13  562O :  0.13  486H :  0.12  590H :  0.12  257H :  0.12  599H :  0.12  719H :  0.11  710H :  0.11  222H :  0.11   53H :  0.11
   72H :  0.11  318H :  0.11  431H :  0.11  477H :  0.11  120H :  0.10  320H :  0.10  743H :  0.10  480H :  0.10  302H :  0.10  662H :  0.10  525H :  0.10  478O :  0.10
   21H :  0.10  507H :  0.10  410H :  0.10   27H :  0.10  692H :  0.10  396H :  0.10  258H :  0.09  237H :  0.09  273H :  0.09  476H :  0.09  269H :  0.09  285H :  0.09
  561H :  0.09  272H :  0.09  195H :  0.09  143H :  0.09  744H :  0.09  639H :  0.09  161H :  0.09  397O :  0.09  560H :  0.08  338H :  0.08  206H :  0.08  185H :  0.08
  333H :  0.08  309H :  0.07  203H :  0.07  305H :  0.07    8H :  0.07  335H :  0.07  464H :  0.07
    5 LP   *******   0.00 -16.71017 -11.90765  37.91750  406O : 20.11  610O : 18.68  724O : 16.85   67O : 16.11  175O : 15.95  115O : 14.65  532O : 14.57   19O : 13.80  424O : 13.71  655O : 13.42  694O : 13.03  388O : 12.92
  283O : 11.25  415O : 11.22  241O : 10.83  247O : 10.35  451O :  9.88  565O :  9.86  421O :  9.74  673O :  9.60  691O :  9.41  607O :  9.17    4O :  9.12  604O :  8.65
  463O :  8.26   88O :  8.12  187O :  8.08  364O :  8.03   91O :  7.97   31O :  7.84  577O :  7.72  436O :  7.67   55O :  7.60  325O :  7.54  748O :  7.54  202O :  7.47
   28O :  7.35  349O :  7.32  298O :  7.23  142O :  6.96  538O :  6.93  511O :  6.86  454O :  6.78  661O :  6.73  619O :  6.68  727O :  6.57  709O :  6.54  109O :  6.37
  190O :  6.29  499O :  6.28  262O :  6.26  685O :  6.16  442O :  6.08  571O :  6.03  274O :  6.00  172O :  5.91  223O :  5.81  598O :  5.79  586O :  5.75  235O :  5.74
  328O :  5.73   22O :  5.64  280O :  5.58  370O :  5.54  304O :  5.54  700O :  5.52  112O :  5.50  703O :  5.42  391O :  5.27  358O :  5.09  556O :  5.08  322O :  5.06
  688O :  5.00  340O :  4.99  121O :  4.88  553O :  4.87  376O :  4.80   70O :  4.80  508O :  4.78  721O :  4.75  220O :  4.72  133O :  4.69   16O :  4.54  697O :  4.53
  580O :  4.42  589O :  4.35  160O :  4.33  253O :  4.24  601O :  4.24  523O :  4.17  145O :  4.13  178O :  4.13  457O :  4.07  148O :  4.05  196O :  3.99  547O :  3.97
  484O :  3.91  517O :  3.90   46O :  3.87  502O :  3.78  226O :  3.74  130O :  3.63  529O :  3.61  367O :  3.53  616O :  3.51   13O :  3.45  514O :  3.43  535O :  3.36
  634O :  3.36  184O :  3.35  679O :  3.34  568O :  3.32  244O :  3.32  739O :  3.25    1O :  3.23  217O :  3.19  487O :  3.18  730O :  3.15  559O :  3.14  400O :  3.06
   52O :  3.03    7O :  3.01  622O :  3.01  682O :  2.95   10O :  2.90  313O :  2.88  379O :  2.85  346O :  2.84  163O :  2.83  136O :  2.80  124O :  2.80   73O :  2.79
  676O :  2.78  181O :  2.75  628O :  2.73  658O :  2.73   82O :  2.72  520O :  2.72  157O :  2.68  259O :  2.67   79O :  2.67  745O :  2.66   34O :  2.63  751O :  2.62
  211O :  2.61  412O :  2.56   25O :  2.50   85O :  2.48  544O :  2.47  574O :  2.46   76O :  2.45  127O :  2.41   61O :  2.41  643O :  2.37  664O :  2.34  169O :  2.33
  417H :  2.29  625O :  2.28  118O :  2.20  583O :  2.17  229O :  2.14   37O :  2.13  100O :  2.12  466O :  2.08  439O :  2.06  496O :  2.03  706O :  2.01  657H :  1.99
  265O :  1.93  652O :  1.92  382O :  1.89  592O :  1.88  693H :  1.87  550O :  1.85  271O :  1.84  631O :  1.83  199O :  1.82  646O :  1.81  214O :  1.80  403O :  1.76
  327H :  1.75  754O :  1.70  425H :  1.70  640O :  1.70   43O :  1.70  208O :  1.67  736O :  1.67  649O :  1.65  301O :  1.63  409O :  1.63  526O :  1.62  418O :  1.59
   49O :  1.55  238O :  1.52  445O :  1.51  394O :  1.46  427O :  1.44  176H :  1.43  430O :  1.43  355O :  1.41  541O :  1.34   64O :  1.33  343O :  1.30   40O :  1.26
  475O :  1.26  292O :  1.26  490O :  1.25  533H :  1.22  286O :  1.20  674H :  1.18   30H :  1.18  248H :  1.16  352O :  1.15  319O :  1.14  600H :  1.14   23H :  1.13
  620H :  1.12  613O :  1.12  151O :  1.11  250O :  1.11  256O :  1.08  742O :  1.05  204H :  1.03  626H :  1.01  513H :  1.01  282H :  1.01  188H :  1.00  371H :  0.98
  331O :  0.98  718O :  0.97  154O :  0.95  605H :  0.95  106O :  0.93  715O :  0.92  684H :  0.90  493O :  0.88  307O :  0.87  385O :  0.86  741H :  0.86  295O :  0.86
  460O :  0.82  193O :  0.82  448O :  0.80  268O :  0.79  481O :  0.77  205O :  0.76  733O :  0.76  144H :  0.76  289O :  0.76   29H :  0.75  635H :  0.74  422H :  0.74
  432H :  0.73  712O :  0.72  708H :  0.72  170H :  0.71  505O :  0.69   97O :  0.68  728H :  0.68  334O :  0.68  698H :  0.68  725H :  0.66  433O :  0.66  611H :  0.63
   58O :  0.63  365H :  0.61  624H :  0.61  316O :  0.60  128H :  0.60  277O :  0.58  139O :  0.58  667O :  0.57  670O :  0.57  722H :  0.55  165H :  0.55    5H :  0.55
   24H :  0.54  534H :  0.54  177H :  0.53  545H :  0.53  103O :  0.53  191H :  0.52  215H :  0.51   89H :  0.49  219H :  0.49  348H :  0.48  594H :  0.48   33H :  0.48
   20H :  0.48  488H :  0.47  351H :  0.47  287H :  0.47  510H :  0.47  420H :  0.47   92H :  0.46  711H :  0.45  663H :  0.45  591H :  0.44  162H :  0.44  135H :  0.43
  515H :  0.43  656H :  0.43  159H :  0.43  114H :  0.42  585H :  0.42  539H :  0.42  485H :  0.42  552H :  0.41  366H :  0.41  341H :  0.41  467H :  0.41  723H :  0.40
  332H :  0.40  666H :  0.40  264H :  0.39  393H :  0.39  373O :  0.38  102H :  0.38  578H :  0.38  201H :  0.38  225H :  0.38  246H :  0.37    3H :  0.37  166O :  0.37
  281H :  0.36  350H :  0.36  239H :  0.35  249H :  0.35  245H :  0.35  557H :  0.35  337O :  0.34  221H :  0.34  384H :  0.33  291H :  0.33  198H :  0.33  261H :  0.33
  681H :  0.32  753H :  0.32  122H :  0.32  192H :  0.32  183H :  0.31  275H :  0.31  618H :  0.30   41H :  0.30  732H :  0.29  621H :  0.29  252H :  0.29  378H :  0.29
  644H :  0.29  686H :  0.28  705H :  0.28  126H :  0.28  729H :  0.27  180H :  0.27  158H :  0.27  647H :  0.27  336H :  0.27  554H :  0.26   87H :  0.26  453H :  0.26
  595O :  0.25  630H :  0.25  701H :  0.25    6H :  0.25  637O :  0.24  233H :  0.24  117H :  0.24   94O :  0.24  266H :  0.23  606H :  0.23  428H :  0.23  213H :  0.23
   57H :  0.23  232O :  0.22  469O :  0.22  530H :  0.22  390H :  0.22  627H :  0.21  536H :  0.21   35H :  0.21  284H :  0.21  504H :  0.21  588H :  0.21  137H :  0.20
  443H :  0.20  294H :  0.20  310O :  0.20  638H :  0.19  242H :  0.19   75H :  0.19  353H :  0.19   95H :  0.18   93H :  0.18  695H :  0.18  472O :  0.18  548H :  0.18
   77H :  0.18  381H :  0.18  416H :  0.18  447H :  0.17   80H :  0.17  450H :  0.17  360H :  0.17    9H :  0.17   38H :  0.17  380H :  0.17  407H :  0.17   42H :  0.17
  459H :  0.16  207H :  0.16  518H :  0.16  227H :  0.16   98H :  0.15  194H :  0.15  659H :  0.15  231H :  0.15  750H :  0.15  555H :  0.15  608H :  0.15  107H :  0.14
  408H :  0.14  218H :  0.14  641H :  0.14  230H :  0.14  156H :  0.14  411H :  0.14   26H :  0.14  462H :  0.14   60H :  0.14  438H :  0.14  653H :  0.14   56H :  0.14
  482H :  0.14  303H :  0.13  540H :  0.13  315H :  0.13  735H :  0.13  434H :  0.13  542H :  0.13  603H :  0.13  573H :  0.13  660H :  0.13  720H :  0.12   17H :  0.12
  521H :  0.12  342H :  0.12   78H :  0.12  562O :  0.12  486H :  0.12  590H :  0.12  257H :  0.11  599H :  0.11  302H :  0.11  719H :  0.11  710H :  0.11  222H :  0.11
   53H :  0.11   72H :  0.11  318H :  0.10  431H :  0.10  477H :  0.10  120H :  0.10  320H :  0.10  743H :  0.10  480H :  0.10  662H :  0.10  525H :  0.10  478O :  0.09
   21H :  0.09  507H :  0.09  410H :  0.09   27H :  0.09  692H :  0.09  396H :  0.09  639H :  0.09  272H :  0.09  237H :  0.09  258H :  0.09  273H :  0.09  476H :  0.09
  269H :  0.09  285H :  0.09  561H :  0.09  195H :  0.09  143H :  0.08  744H :  0.08  161H :  0.08  397O :  0.08  560H :  0.08  338H :  0.08  206H :  0.08  185H :  0.08
  333H :  0.08  203H :  0.07  309H :  0.07
    6 LP   *******   0.00 -31.22157 -27.99695  -8.82455  406O : 19.78  175O : 18.22  724O : 16.58   67O : 15.86  610O : 14.89  115O : 14.42  532O : 14.34   19O : 13.57  424O : 13.49  655O : 13.21  694O : 12.82  388O : 12.71
  283O : 11.08  415O : 11.04  241O : 10.66  247O : 10.18  451O :  9.72  565O :  9.70  421O :  9.59  673O :  9.45  691O :  9.26  607O :  9.03    4O :  8.97  604O :  8.51
  463O :  8.13   88O :  7.99  187O :  7.95  364O :  7.90   91O :  7.84   31O :  7.71  577O :  7.59  436O :  7.55   55O :  7.48  325O :  7.42  748O :  7.42  202O :  7.25
   28O :  7.23  298O :  7.11  349O :  7.09  454O :  6.92  142O :  6.85  538O :  6.82  511O :  6.75  661O :  6.63  619O :  6.57  727O :  6.46  709O :  6.43  109O :  6.27
  190O :  6.20  499O :  6.17  262O :  6.16  685O :  6.15  442O :  5.98  571O :  5.94  274O :  5.90  172O :  5.82  223O :  5.72  598O :  5.70  586O :  5.66  235O :  5.66
  328O :  5.64   22O :  5.53  280O :  5.49  370O :  5.46  304O :  5.45  700O :  5.44  112O :  5.42  703O :  5.33  391O :  5.18  358O :  5.01  556O :  5.00  322O :  4.98
  688O :  4.92  340O :  4.90  121O :  4.80  553O :  4.80  376O :  4.72   70O :  4.72  508O :  4.71  721O :  4.67  220O :  4.65  133O :  4.62   16O :  4.47  697O :  4.45
  580O :  4.35  589O :  4.28  160O :  4.26  601O :  4.17  253O :  4.17  523O :  4.10  145O :  4.06  178O :  4.06  457O :  4.02  148O :  3.98  196O :  3.92  547O :  3.90
  484O :  3.85  517O :  3.84   46O :  3.81  502O :  3.72  226O :  3.66  130O :  3.57  529O :  3.56  367O :  3.47  616O :  3.45   13O :  3.39  514O :  3.37  535O :  3.31
  634O :  3.31  184O :  3.29  679O :  3.29  244O :  3.27  568O :  3.27  739O :  3.20  217O :  3.14  487O :  3.11  730O :  3.10  559O :  3.09  400O :  3.01   52O :  2.98
    7O :  2.96  622O :  2.96  682O :  2.91   10O :  2.86    1O :  2.85  313O :  2.84  379O :  2.80  346O :  2.79  163O :  2.78  136O :  2.76  124O :  2.76   73O :  2.74
  676O :  2.73  181O :  2.70  628O :  2.69  658O :  2.68   82O :  2.68  520O :  2.68  157O :  2.64  259O :  2.63   79O :  2.63  745O :  2.61   34O :  2.59  211O :  2.58
  751O :  2.58  412O :  2.52   25O :  2.45   85O :  2.44  544O :  2.43  574O :  2.42   76O :  2.41  127O :  2.38   61O :  2.37  643O :  2.33  664O :  2.30  169O :  2.29
  417H :  2.26  625O :  2.24  118O :  2.17  583O :  2.13  229O :  2.11   37O :  2.10  100O :  2.08  466O :  2.05  439O :  2.03  496O :  1.99  706O :  1.97  657H :  1.96
  265O :  1.90  652O :  1.89  382O :  1.86  592O :  1.85  693H :  1.84  550O :  1.81  271O :  1.81  631O :  1.80  199O :  1.80  646O :  1.78  214O :  1.76  403O :  1.73
  327H :  1.72  754O :  1.67  425H :  1.67  640O :  1.67   43O :  1.67  208O :  1.64  649O :  1.62  301O :  1.61  409O :  1.61  526O :  1.59  736O :  1.58  418O :  1.57
   49O :  1.52  238O :  1.50  445O :  1.49  394O :  1.44  427O :  1.41  430O :  1.40  355O :  1.39  541O :  1.32   64O :  1.31  343O :  1.30  176H :  1.26   40O :  1.24
  475O :  1.24  292O :  1.24  490O :  1.23  533H :  1.20  286O :  1.18  674H :  1.16   30H :  1.16  248H :  1.14  352O :  1.13  319O :  1.13  600H :  1.12   23H :  1.11
  620H :  1.10  613O :  1.10  151O :  1.09  250O :  1.09  256O :  1.06  742O :  1.03  204H :  1.00  626H :  0.99  513H :  0.99  282H :  0.99  188H :  0.98  371H :  0.97
  331O :  0.96  718O :  0.96  154O :  0.94  605H :  0.93  106O :  0.91  715O :  0.91  684H :  0.88  493O :  0.86  307O :  0.85  385O :  0.85  741H :  0.85  295O :  0.85
  460O :  0.81  193O :  0.80  448O :  0.79  268O :  0.78  481O :  0.76  205O :  0.75  733O :  0.75  144H :  0.75  289O :  0.75   29H :  0.74  635H :  0.73  422H :  0.73
  432H :  0.71  712O :  0.71  708H :  0.71  611H :  0.70  170H :  0.70  505O :  0.68   97O :  0.67  728H :  0.67  334O :  0.67  698H :  0.67  433O :  0.65  725H :  0.65
   58O :  0.62  365H :  0.60  624H :  0.60  316O :  0.59  128H :  0.59  277O :  0.57  139O :  0.57  670O :  0.56  667O :  0.56  722H :  0.54  165H :  0.54    5H :  0.54
  534H :  0.53   24H :  0.53  545H :  0.52  103O :  0.52  191H :  0.52  215H :  0.51   89H :  0.48  219H :  0.48  348H :  0.48  594H :  0.48   33H :  0.47   20H :  0.47
  351H :  0.47  287H :  0.46  510H :  0.46  420H :  0.46   92H :  0.45  711H :  0.45  663H :  0.44  488H :  0.44  591H :  0.44  162H :  0.43  135H :  0.43  177H :  0.43
  515H :  0.43  656H :  0.42  159H :  0.42  114H :  0.42  585H :  0.42  539H :  0.41  485H :  0.41  552H :  0.40  366H :  0.40  341H :  0.40  467H :  0.40  723H :  0.40
  332H :  0.39  666H :  0.39  264H :  0.39  393H :  0.39  373O :  0.38  102H :  0.37  578H :  0.37  201H :  0.37  225H :  0.37  246H :  0.37    3H :  0.36  166O :  0.36
  281H :  0.35  249H :  0.35  239H :  0.35  245H :  0.35  350H :  0.35  557H :  0.34  337O :  0.34  221H :  0.33  384H :  0.33  291H :  0.33  198H :  0.33  261H :  0.32
  681H :  0.32  753H :  0.32  122H :  0.31  192H :  0.31  183H :  0.31  275H :  0.31  618H :  0.30   41H :  0.30  732H :  0.29  621H :  0.28  252H :  0.28  378H :  0.28
  644H :  0.28  686H :  0.28  705H :  0.28  126H :  0.27  729H :  0.27  180H :  0.27  158H :  0.26  647H :  0.26  336H :  0.26  554H :  0.26   87H :  0.26  453H :  0.25
  630H :  0.25  595O :  0.25  701H :  0.24    6H :  0.24  637O :  0.24  233H :  0.24   94O :  0.23  117H :  0.23  266H :  0.23  606H :  0.23  213H :  0.22  428H :  0.22
   57H :  0.22  232O :  0.22  469O :  0.22  530H :  0.21  390H :  0.21  627H :  0.21  536H :  0.21   35H :  0.21  284H :  0.21  504H :  0.20  588H :  0.20  137H :  0.20
  443H :  0.20  294H :  0.20  310O :  0.19  638H :  0.19   75H :  0.19  242H :  0.19  353H :  0.18   95H :  0.18   93H :  0.18  695H :  0.18  548H :  0.18  472O :  0.18
   77H :  0.18  381H :  0.17  416H :  0.17  447H :  0.17   80H :  0.17  450H :  0.17  360H :  0.17    9H :  0.17   38H :  0.17  407H :  0.16  380H :  0.16   42H :  0.16
  459H :  0.16  207H :  0.15  518H :  0.15  227H :  0.15   98H :  0.15  194H :  0.15  659H :  0.15  231H :  0.15  750H :  0.15  555H :  0.15  608H :  0.14  107H :  0.14
  408H :  0.14  218H :  0.14  641H :  0.14  230H :  0.14  156H :  0.14  411H :  0.14   26H :  0.14  462H :  0.14   60H :  0.13  653H :  0.13  438H :  0.13   56H :  0.13
  482H :  0.13  303H :  0.13  540H :  0.13  315H :  0.13  735H :  0.13  434H :  0.13  542H :  0.13  603H :  0.12  573H :  0.12  660H :  0.12   17H :  0.12  720H :  0.12
  342H :  0.12  521H :  0.12   78H :  0.12  562O :  0.12  486H :  0.12  590H :  0.11  257H :  0.11  599H :  0.11  302H :  0.11  719H :  0.11  710H :  0.11  222H :  0.10
   53H :  0.10   72H :  0.10  318H :  0.10  431H :  0.10  477H :  0.10  120H :  0.10  320H :  0.10  743H :  0.10  480H :  0.10  662H :  0.09  525H :  0.09  478O :  0.09
   21H :  0.09  507H :  0.09  410H :  0.09   27H :  0.09  692H :  0.09  396H :  0.09  639H :  0.09  272H :  0.09  258H :  0.09  237H :  0.09  273H :  0.09  476H :  0.08
  269H :  0.08  744H :  0.08  285H :  0.08  561H :  0.08  195H :  0.08  143H :  0.08  161H :  0.08  397O :  0.08  560H :  0.08  338H :  0.08  206H :  0.08  185H :  0.07
  333H :  0.07
    7 LP   *******   0.00  72.89989  23.34894   6.43011  406O : 19.07   67O : 15.29  724O : 15.16  175O : 15.13  655O : 15.06  610O : 14.35  115O : 13.90  532O : 13.82   19O : 13.08  424O : 13.01  694O : 12.36  388O : 12.25
  283O : 10.68  415O : 10.65  241O : 10.27  247O :  9.81  451O :  9.37  565O :  9.35  421O :  9.24  673O :  9.11  691O :  8.92  607O :  8.77    4O :  8.65  604O :  8.21
  463O :  7.84   88O :  7.70  187O :  7.67  364O :  7.62   91O :  7.56   31O :  7.43  577O :  7.32  436O :  7.27   55O :  7.21  325O :  7.16  748O :  7.15  202O :  6.99
   28O :  6.97  349O :  6.95  298O :  6.86  454O :  6.67  142O :  6.60  538O :  6.58  511O :  6.50  661O :  6.39  619O :  6.33  727O :  6.23  709O :  6.20  109O :  6.05
  190O :  5.97  499O :  5.95  262O :  5.93  685O :  5.92  442O :  5.77  571O :  5.72  274O :  5.69  172O :  5.61  223O :  5.51  598O :  5.50  586O :  5.46  235O :  5.46
  328O :  5.43   22O :  5.34  280O :  5.29  370O :  5.26  304O :  5.26  700O :  5.24  112O :  5.22  703O :  5.14  391O :  5.00  358O :  4.83  556O :  4.82  322O :  4.80
  688O :  4.75  340O :  4.74  121O :  4.63  553O :  4.62  376O :  4.55   70O :  4.55  508O :  4.54  721O :  4.50  220O :  4.48  133O :  4.45   16O :  4.31  697O :  4.29
  580O :  4.19  589O :  4.12  160O :  4.11  253O :  4.02  601O :  4.02  523O :  3.96  145O :  3.92  178O :  3.92  457O :  3.88  148O :  3.84  196O :  3.78  547O :  3.76
  484O :  3.71  517O :  3.70   46O :  3.67  502O :  3.58  226O :  3.55  130O :  3.44  529O :  3.43  616O :  3.37  367O :  3.35   13O :  3.27  514O :  3.25  535O :  3.19
  634O :  3.19  184O :  3.17  679O :  3.17  568O :  3.15  244O :  3.15  739O :  3.08    1O :  3.07  217O :  3.03  487O :  3.00  730O :  2.99  559O :  2.98  400O :  2.90
   52O :  2.87    7O :  2.86  622O :  2.85  682O :  2.80   10O :  2.76  313O :  2.74  379O :  2.70  346O :  2.69  163O :  2.68  136O :  2.66  124O :  2.66   73O :  2.64
  676O :  2.64  181O :  2.60  628O :  2.59  658O :  2.59   82O :  2.58  520O :  2.57  157O :  2.55  259O :  2.53   79O :  2.53  745O :  2.52   34O :  2.50  751O :  2.49
  211O :  2.48  412O :  2.43   25O :  2.37   85O :  2.35  544O :  2.34  574O :  2.33   76O :  2.33  127O :  2.29   61O :  2.29  643O :  2.25  664O :  2.22  169O :  2.21
  417H :  2.17  625O :  2.16  118O :  2.09  583O :  2.06  229O :  2.03   37O :  2.02  100O :  2.01  466O :  1.98  439O :  1.96  496O :  1.92  706O :  1.90  265O :  1.83
  652O :  1.82  382O :  1.79  592O :  1.78  693H :  1.77  550O :  1.75  631O :  1.73  271O :  1.73  199O :  1.73  646O :  1.72  657H :  1.72  214O :  1.70  403O :  1.67
  327H :  1.66  754O :  1.61  425H :  1.61  640O :  1.61   43O :  1.61  208O :  1.59  736O :  1.58  649O :  1.56  409O :  1.55  526O :  1.53  418O :  1.51  301O :  1.50
   49O :  1.47  238O :  1.44  445O :  1.44  394O :  1.39  427O :  1.36  176H :  1.35  430O :  1.35  355O :  1.34  541O :  1.27   64O :  1.26  343O :  1.23   40O :  1.20
  475O :  1.20  292O :  1.20  490O :  1.18  533H :  1.16  286O :  1.14   30H :  1.12  674H :  1.12  248H :  1.10  352O :  1.09  319O :  1.08  600H :  1.08   23H :  1.07
  620H :  1.06  151O :  1.06  613O :  1.06  250O :  1.05  256O :  1.03  742O :  0.99  204H :  0.97  626H :  0.96  513H :  0.96  282H :  0.96  188H :  0.94  371H :  0.93
  331O :  0.92  718O :  0.92  154O :  0.90  605H :  0.90  106O :  0.88  715O :  0.87  684H :  0.85  493O :  0.83  307O :  0.82  385O :  0.82  741H :  0.82  295O :  0.81
  460O :  0.78  193O :  0.77  448O :  0.76  268O :  0.75  481O :  0.73  205O :  0.72  733O :  0.72  144H :  0.72  289O :  0.72   29H :  0.71  635H :  0.71  422H :  0.70
  432H :  0.69  712O :  0.69  708H :  0.69  611H :  0.68  170H :  0.68  505O :  0.65   97O :  0.65  728H :  0.65  334O :  0.65  698H :  0.64  433O :  0.63   58O :  0.59
  365H :  0.58  624H :  0.58  316O :  0.57  128H :  0.57  277O :  0.55  139O :  0.55  670O :  0.54  667O :  0.54  722H :  0.52  165H :  0.52    5H :  0.52   24H :  0.51
  534H :  0.51  177H :  0.51  545H :  0.50  103O :  0.50  191H :  0.50  215H :  0.49   89H :  0.46  219H :  0.46  348H :  0.46  594H :  0.46   33H :  0.46   20H :  0.45
  351H :  0.45  287H :  0.45  510H :  0.44  420H :  0.44   92H :  0.44  711H :  0.43  663H :  0.42  488H :  0.42  591H :  0.42  162H :  0.42  135H :  0.41  515H :  0.41
  159H :  0.41  114H :  0.40  585H :  0.40  539H :  0.40  485H :  0.39  552H :  0.39  366H :  0.39  341H :  0.39  467H :  0.39  725H :  0.38  723H :  0.38  332H :  0.38
  666H :  0.38  264H :  0.37  393H :  0.37  373O :  0.36  102H :  0.36  578H :  0.36  201H :  0.36  225H :  0.36  246H :  0.35    3H :  0.35  166O :  0.34  281H :  0.34
  350H :  0.34  239H :  0.34  249H :  0.34  245H :  0.33  656H :  0.33  557H :  0.33  337O :  0.32  221H :  0.32  384H :  0.32  291H :  0.31  198H :  0.31  261H :  0.31
  681H :  0.31  753H :  0.31  122H :  0.30  192H :  0.30  183H :  0.30  618H :  0.30  275H :  0.29   41H :  0.29  732H :  0.28  621H :  0.27  252H :  0.27  378H :  0.27
  644H :  0.27  686H :  0.27  705H :  0.27  126H :  0.26  729H :  0.26  180H :  0.26  158H :  0.26  647H :  0.25  336H :  0.25  554H :  0.25   87H :  0.25  453H :  0.24
  630H :  0.24  595O :  0.24  701H :  0.23    6H :  0.23  637O :  0.23  233H :  0.23   94O :  0.22  117H :  0.22  266H :  0.22  606H :  0.22  428H :  0.21  213H :  0.21
   57H :  0.21  469O :  0.21  232O :  0.21  530H :  0.20  390H :  0.20  627H :  0.20  536H :  0.20   35H :  0.20  284H :  0.20  504H :  0.20  588H :  0.20  137H :  0.19
  443H :  0.19  294H :  0.19  638H :  0.19  310O :  0.19  242H :  0.18   75H :  0.18  353H :  0.18   95H :  0.17   93H :  0.17  695H :  0.17  472O :  0.17  548H :  0.17
   77H :  0.17  381H :  0.17  416H :  0.17  447H :  0.17   80H :  0.16  450H :  0.16  360H :  0.16    9H :  0.16   38H :  0.16  380H :  0.16  407H :  0.16   42H :  0.16
  459H :  0.15  207H :  0.15  518H :  0.15  227H :  0.15   98H :  0.14  194H :  0.14  659H :  0.14  231H :  0.14  750H :  0.14  555H :  0.14  107H :  0.14  408H :  0.14
  608H :  0.14  218H :  0.14  641H :  0.13  230H :  0.13  156H :  0.13  411H :  0.13   26H :  0.13  462H :  0.13   60H :  0.13  653H :  0.13  438H :  0.13   56H :  0.13
  303H :  0.13  482H :  0.13  540H :  0.13  315H :  0.12  735H :  0.12  434H :  0.12  542H :  0.12  603H :  0.12  573H :  0.12  660H :  0.12  720H :  0.12   17H :  0.12
  342H :  0.12  521H :  0.12   78H :  0.11  562O :  0.11  486H :  0.11  590H :  0.11  257H :  0.11  302H :  0.11  599H :  0.11  719H :  0.10  710H :  0.10  222H :  0.10
   53H :  0.10   72H :  0.10  318H :  0.10  431H :  0.10  477H :  0.10  120H :  0.09  320H :  0.09  743H :  0.09  480H :  0.09  662H :  0.09  525H :  0.09  478O :  0.09
   21H :  0.09  410H :  0.09  507H :  0.09   27H :  0.09  692H :  0.09  396H :  0.08  639H :  0.08  272H :  0.08  258H :  0.08  237H :  0.08  476H :  0.08  273H :  0.08
  269H :  0.08  285H :  0.08  561H :  0.08  195H :  0.08  143H :  0.08  744H :  0.08  161H :  0.08  397O :  0.08  560H :  0.08  338H :  0.07  206H :  0.07  185H :  0.07
  333H :  0.07
    8 LP   *******   0.00  25.60354  12.62110  13.92213  406O : 18.89  724O : 15.82   19O : 15.35   67O : 15.14  175O : 14.99  610O : 14.22  115O : 13.77  532O : 13.69  424O : 12.89  655O : 12.61  694O : 12.20  388O : 12.14
  283O : 10.58  415O : 10.55  241O : 10.18  247O :  9.72  451O :  9.28  565O :  9.26  421O :  9.16  673O :  9.02  691O :  8.84  607O :  8.61    4O :  8.57  604O :  8.13
  463O :  7.76   88O :  7.63  187O :  7.60  364O :  7.55   91O :  7.49   31O :  7.36  577O :  7.26  436O :  7.21   55O :  7.14  325O :  7.09  748O :  7.09  298O :  7.01
  202O :  6.92   28O :  6.90  349O :  6.88  454O :  6.61  142O :  6.54  538O :  6.52  511O :  6.44  661O :  6.33  619O :  6.27  727O :  6.18  709O :  6.15  109O :  5.99
  190O :  5.92  499O :  5.90  262O :  5.88  685O :  5.87  442O :  5.71  274O :  5.70  571O :  5.67  172O :  5.56  223O :  5.46  598O :  5.44  586O :  5.41  235O :  5.40
  328O :  5.38   22O :  5.29  280O :  5.24  370O :  5.21  304O :  5.21  700O :  5.19  112O :  5.17  703O :  5.09  391O :  4.95  358O :  4.80  556O :  4.78  322O :  4.75
  688O :  4.70  340O :  4.69  121O :  4.59  553O :  4.58  376O :  4.51   70O :  4.51  508O :  4.49  220O :  4.48  721O :  4.46  133O :  4.41   16O :  4.27  697O :  4.25
  580O :  4.16  589O :  4.11  160O :  4.07  601O :  3.99  253O :  3.99  523O :  3.92  178O :  3.88  145O :  3.88  457O :  3.84  148O :  3.80  196O :  3.75  547O :  3.73
  484O :  3.68  517O :  3.67   46O :  3.64  502O :  3.55  226O :  3.51  130O :  3.41  529O :  3.40  367O :  3.32  616O :  3.30   13O :  3.24  514O :  3.22  535O :  3.16
  634O :  3.16  184O :  3.14  679O :  3.14  568O :  3.12  244O :  3.12  739O :  3.05    1O :  3.04  217O :  3.00  487O :  2.97  730O :  2.96  559O :  2.95  400O :  2.88
   52O :  2.84  622O :  2.83    7O :  2.82  682O :  2.78  313O :  2.71   10O :  2.68  379O :  2.67  346O :  2.67  163O :  2.66  136O :  2.65  181O :  2.64  124O :  2.63
  676O :  2.62   73O :  2.62  628O :  2.57  658O :  2.56  520O :  2.55  157O :  2.52   82O :  2.52  259O :  2.51   79O :  2.51  745O :  2.50   34O :  2.47  751O :  2.46
  211O :  2.45  412O :  2.41   85O :  2.33  544O :  2.32  574O :  2.31   76O :  2.30   25O :  2.30  127O :  2.27   61O :  2.27  643O :  2.23  664O :  2.19  169O :  2.19
  417H :  2.15  625O :  2.14  118O :  2.07  583O :  2.04  229O :  2.01   37O :  2.01  100O :  1.99  466O :  1.96  439O :  1.93  706O :  1.88  657H :  1.87  265O :  1.82
  652O :  1.81  496O :  1.80  382O :  1.78  592O :  1.76  693H :  1.75  271O :  1.74  550O :  1.73  631O :  1.72  199O :  1.71  646O :  1.70  214O :  1.68  403O :  1.66
  327H :  1.64  754O :  1.60  425H :  1.60  640O :  1.60   43O :  1.59  208O :  1.57  736O :  1.57  649O :  1.55  301O :  1.54  409O :  1.53  526O :  1.52  418O :  1.50
   49O :  1.45  238O :  1.43  445O :  1.42  394O :  1.38  427O :  1.35  176H :  1.34  430O :  1.34  355O :  1.33  541O :  1.26   64O :  1.25  343O :  1.22   40O :  1.19
  475O :  1.19  292O :  1.19  490O :  1.18  533H :  1.15  286O :  1.13  674H :  1.11   30H :  1.11  248H :  1.09  352O :  1.08  319O :  1.07  600H :  1.07   23H :  1.06
  620H :  1.05  613O :  1.05  151O :  1.05  250O :  1.04  256O :  1.02  742O :  0.98  204H :  0.96  626H :  0.95  513H :  0.95  282H :  0.95  188H :  0.94  371H :  0.92
  331O :  0.92  718O :  0.91  154O :  0.89  605H :  0.89  106O :  0.87  715O :  0.87  684H :  0.84  493O :  0.82  307O :  0.82  385O :  0.81  741H :  0.81  295O :  0.81
  460O :  0.77  193O :  0.77  448O :  0.75  268O :  0.74  481O :  0.73  205O :  0.72  733O :  0.71  144H :  0.71  289O :  0.71   29H :  0.71  635H :  0.70  422H :  0.70
  432H :  0.68  712O :  0.68  708H :  0.68  611H :  0.67  170H :  0.67  505O :  0.64   97O :  0.64  728H :  0.64  334O :  0.64  698H :  0.64  433O :  0.62  725H :  0.62
   58O :  0.59  365H :  0.58  624H :  0.57  316O :  0.57  128H :  0.56  139O :  0.54  670O :  0.54  667O :  0.54  722H :  0.52  165H :  0.51    5H :  0.51   24H :  0.51
  534H :  0.50  277O :  0.50  177H :  0.50  545H :  0.50  103O :  0.49  191H :  0.49  215H :  0.48   89H :  0.46  219H :  0.46  348H :  0.46  594H :  0.45   33H :  0.45
  351H :  0.44  287H :  0.44  510H :  0.44  420H :  0.44   92H :  0.43  711H :  0.43  488H :  0.42  663H :  0.42  591H :  0.42  162H :  0.41  135H :  0.41  515H :  0.41
  656H :  0.41  159H :  0.40  114H :  0.40  585H :  0.40  539H :  0.39  485H :  0.39  552H :  0.39  366H :  0.39  341H :  0.38   20H :  0.38  467H :  0.38  723H :  0.38
  332H :  0.37  666H :  0.37  264H :  0.37  393H :  0.37  373O :  0.36  102H :  0.36  578H :  0.36  201H :  0.35  225H :  0.35  246H :  0.35    3H :  0.35  166O :  0.34
  281H :  0.34  350H :  0.34  239H :  0.33  249H :  0.33  245H :  0.33  557H :  0.33  221H :  0.32  337O :  0.32  384H :  0.31  291H :  0.31  198H :  0.31  261H :  0.31
  681H :  0.31  753H :  0.30  122H :  0.30  275H :  0.30  183H :  0.30  192H :  0.30  618H :  0.29   41H :  0.28  732H :  0.28  621H :  0.27  252H :  0.27  378H :  0.27
  644H :  0.27  686H :  0.26  705H :  0.26  126H :  0.26  729H :  0.26  180H :  0.25  158H :  0.25  647H :  0.25  336H :  0.25  554H :  0.25   87H :  0.24  453H :  0.24
  630H :  0.24  595O :  0.24  701H :  0.23    6H :  0.23  637O :  0.23  233H :  0.22   94O :  0.22  117H :  0.22  266H :  0.22  606H :  0.22  428H :  0.21  213H :  0.21
   57H :  0.21  469O :  0.21  232O :  0.21  530H :  0.20  390H :  0.20  627H :  0.20  536H :  0.20   35H :  0.20   27H :  0.20  284H :  0.20  504H :  0.20  588H :  0.20
  137H :  0.19  443H :  0.19  294H :  0.19  310O :  0.18  638H :  0.18  242H :  0.18   75H :  0.18  353H :  0.18   95H :  0.17   93H :  0.17  695H :  0.17  472O :  0.17
  548H :  0.17   77H :  0.17  381H :  0.17  416H :  0.17  447H :  0.16   80H :  0.16  450H :  0.16  360H :  0.16    9H :  0.16   38H :  0.16  407H :  0.16  380H :  0.16
   42H :  0.16  459H :  0.15  207H :  0.15  518H :  0.15  227H :  0.15   98H :  0.14  194H :  0.14  659H :  0.14  231H :  0.14  750H :  0.14  555H :  0.14  608H :  0.14
  107H :  0.14  408H :  0.14  218H :  0.13  641H :  0.13  230H :  0.13   26H :  0.13  156H :  0.13  411H :  0.13  462H :  0.13   60H :  0.13  653H :  0.13  438H :  0.13
   56H :  0.13  482H :  0.13  303H :  0.13  540H :  0.13  315H :  0.12  735H :  0.12  434H :  0.12  542H :  0.12  603H :  0.12  573H :  0.12  660H :  0.12  720H :  0.12
   17H :  0.12  342H :  0.12  521H :  0.11   78H :  0.11  562O :  0.11  486H :  0.11  590H :  0.11  257H :  0.11  599H :  0.10  302H :  0.10  719H :  0.10  710H :  0.10
  222H :  0.10   53H :  0.10   72H :  0.10  318H :  0.10  431H :  0.10  477H :  0.09  120H :  0.09  320H :  0.09  743H :  0.09  480H :  0.09  662H :  0.09  525H :  0.09
  478O :  0.09  507H :  0.09  410H :  0.09  692H :  0.09  396H :  0.08  639H :  0.08  272H :  0.08  258H :  0.08  237H :  0.08  273H :  0.08  476H :  0.08  269H :  0.08
  285H :  0.08  561H :  0.08  195H :  0.08  143H :  0.08  744H :  0.08  161H :  0.08  397O :  0.08  560H :  0.07  338H :  0.07  206H :  0.07  185H :  0.07  333H :  0.07
    9 LP   *******   0.00  12.54632  62.07064  28.17782  406O : 18.75  724O : 15.71   67O : 15.03  175O : 14.88  388O : 14.56  610O : 14.11  115O : 13.67  532O : 13.59   19O : 12.87  424O : 12.79  655O : 12.52  694O : 12.15
  283O : 10.50  415O : 10.46  241O : 10.10  247O :  9.65  451O :  9.21  565O :  9.19  421O :  9.08  673O :  8.96  691O :  8.77  607O :  8.56    4O :  8.51  604O :  8.07
  463O :  7.70   88O :  7.57  187O :  7.54  364O :  7.44   91O :  7.43   31O :  7.31  577O :  7.20  436O :  7.15   55O :  7.09  325O :  7.04  748O :  7.03  202O :  6.87
   28O :  6.85  349O :  6.83  298O :  6.74  454O :  6.55  142O :  6.49  538O :  6.43  511O :  6.39  661O :  6.28  619O :  6.22  727O :  6.13  709O :  6.10  109O :  5.94
  190O :  5.88  499O :  5.85  262O :  5.83  685O :  5.82  442O :  5.67  571O :  5.63  274O :  5.60  172O :  5.52  223O :  5.42  598O :  5.40  586O :  5.37  235O :  5.36
  328O :  5.34   22O :  5.25  280O :  5.20  370O :  5.17  304O :  5.17  700O :  5.15  112O :  5.13  703O :  5.05  391O :  4.91  358O :  4.75  556O :  4.74  322O :  4.72
  688O :  4.67  340O :  4.66  121O :  4.55  553O :  4.55  376O :  4.48   70O :  4.47  508O :  4.46  721O :  4.43  220O :  4.40  133O :  4.38   16O :  4.24  697O :  4.22
  580O :  4.13  589O :  4.06  160O :  4.04  253O :  3.96  601O :  3.96  523O :  3.89  145O :  3.89  178O :  3.85  457O :  3.81  148O :  3.77  196O :  3.72  547O :  3.70
  484O :  3.65  517O :  3.64   46O :  3.61  502O :  3.52  226O :  3.49  130O :  3.39  529O :  3.37  367O :  3.29  616O :  3.27   13O :  3.22  514O :  3.20  535O :  3.13
  634O :  3.13  184O :  3.12  679O :  3.11  568O :  3.10  244O :  3.10  739O :  3.03    1O :  3.02  217O :  2.98  487O :  2.95  730O :  2.94  559O :  2.93  400O :  2.85
   52O :  2.82  622O :  2.81    7O :  2.81  682O :  2.75   10O :  2.71  313O :  2.69  379O :  2.65  346O :  2.64  163O :  2.63  136O :  2.62  124O :  2.61   73O :  2.60
  676O :  2.59  181O :  2.56  628O :  2.55  658O :  2.54   82O :  2.54  520O :  2.53  157O :  2.50  259O :  2.49   79O :  2.49  745O :  2.48   34O :  2.45  751O :  2.44
  211O :  2.44  412O :  2.39   25O :  2.33   85O :  2.31  544O :  2.30  574O :  2.29   76O :  2.29  127O :  2.25   61O :  2.25  643O :  2.21  664O :  2.18  169O :  2.17
  417H :  2.14  625O :  2.12  118O :  2.05  583O :  2.02  229O :  2.00   37O :  1.99  100O :  1.97  466O :  1.95  439O :  1.92  496O :  1.89  706O :  1.87  657H :  1.86
  265O :  1.80  652O :  1.79  382O :  1.76  693H :  1.74  550O :  1.72  271O :  1.72  631O :  1.71  199O :  1.70  592O :  1.69  646O :  1.68  214O :  1.67  403O :  1.64
  327H :  1.63  754O :  1.59  425H :  1.58  640O :  1.58   43O :  1.58  208O :  1.56  736O :  1.56  649O :  1.54  301O :  1.52  409O :  1.52  526O :  1.51  418O :  1.48
   49O :  1.44  238O :  1.42  445O :  1.41  394O :  1.37  427O :  1.34  176H :  1.33  430O :  1.33  355O :  1.32  541O :  1.25   64O :  1.24  343O :  1.21   40O :  1.18
  475O :  1.18  292O :  1.18  490O :  1.16  533H :  1.14  286O :  1.12   30H :  1.10  674H :  1.10  248H :  1.09  352O :  1.07  319O :  1.07  600H :  1.06   23H :  1.05
  620H :  1.05  613O :  1.04  151O :  1.04  250O :  1.04  256O :  1.01  742O :  0.98  204H :  0.95  626H :  0.94  513H :  0.94  282H :  0.94  188H :  0.93  371H :  0.92
  331O :  0.91  718O :  0.91  154O :  0.89  605H :  0.88  106O :  0.87  684H :  0.83  715O :  0.83  493O :  0.82  307O :  0.81  385O :  0.81  741H :  0.81  295O :  0.80
  460O :  0.77  193O :  0.76  448O :  0.75  268O :  0.74  481O :  0.72  205O :  0.71  733O :  0.71  289O :  0.71  144H :  0.71   29H :  0.70  635H :  0.69  422H :  0.69
  432H :  0.68  712O :  0.68  708H :  0.68  611H :  0.67  170H :  0.67  505O :  0.64   97O :  0.64  728H :  0.64  334O :  0.64  698H :  0.63  433O :  0.62  725H :  0.61
   58O :  0.58  624H :  0.57  365H :  0.57  316O :  0.56  128H :  0.56  277O :  0.55  139O :  0.54  670O :  0.53  667O :  0.53  722H :  0.51  165H :  0.51    5H :  0.51
  534H :  0.50   24H :  0.50  177H :  0.50  545H :  0.49  103O :  0.49  191H :  0.49  215H :  0.48   89H :  0.46  219H :  0.45  348H :  0.45   33H :  0.45   20H :  0.44
  351H :  0.44  287H :  0.44  594H :  0.44  510H :  0.44  420H :  0.44   92H :  0.43  711H :  0.42  663H :  0.42  488H :  0.42  591H :  0.41  162H :  0.41  135H :  0.41
  515H :  0.40  656H :  0.40  159H :  0.40  114H :  0.40  585H :  0.39  485H :  0.39  552H :  0.38  341H :  0.38  467H :  0.38  723H :  0.37  332H :  0.37  666H :  0.37
  366H :  0.37  264H :  0.37  393H :  0.37  373O :  0.36  102H :  0.35  578H :  0.35  201H :  0.35  225H :  0.35  246H :  0.35    3H :  0.35  166O :  0.34  281H :  0.34
  350H :  0.34  239H :  0.33  249H :  0.33  245H :  0.33  539H :  0.32  557H :  0.32  337O :  0.32  221H :  0.31  384H :  0.31  291H :  0.31  198H :  0.31  261H :  0.31
  681H :  0.30  753H :  0.30  122H :  0.30  192H :  0.29  183H :  0.29  275H :  0.29  618H :  0.28   41H :  0.28  732H :  0.27  621H :  0.27  252H :  0.27  378H :  0.27
  644H :  0.27  686H :  0.26  705H :  0.26  126H :  0.26  729H :  0.26  180H :  0.25  158H :  0.25  647H :  0.25  336H :  0.25  554H :  0.25   87H :  0.24  453H :  0.24
  595O :  0.23  630H :  0.23  701H :  0.23    6H :  0.23  637O :  0.23  233H :  0.22   94O :  0.22  117H :  0.22  266H :  0.22  606H :  0.22  428H :  0.21  213H :  0.21
   57H :  0.21  232O :  0.21  530H :  0.20  627H :  0.20  536H :  0.20   35H :  0.20  284H :  0.19  504H :  0.19  588H :  0.19  137H :  0.19  443H :  0.19  294H :  0.19
  310O :  0.18  638H :  0.18  242H :  0.18   75H :  0.18  469O :  0.18  353H :  0.17   95H :  0.17   93H :  0.17  695H :  0.17  472O :  0.17  548H :  0.17   77H :  0.17
  381H :  0.16  416H :  0.16  447H :  0.16   80H :  0.16  450H :  0.16  360H :  0.16    9H :  0.16   38H :  0.16  407H :  0.16  380H :  0.16   42H :  0.15  459H :  0.15
  390H :  0.15  207H :  0.15  518H :  0.15  227H :  0.14   98H :  0.14  194H :  0.14  659H :  0.14  231H :  0.14  750H :  0.14  555H :  0.14  608H :  0.14  107H :  0.13
  408H :  0.13  218H :  0.13  641H :  0.13  230H :  0.13  156H :  0.13  411H :  0.13   26H :  0.13  462H :  0.13   60H :  0.13  653H :  0.13  438H :  0.13   56H :  0.13
  482H :  0.13  303H :  0.13  540H :  0.13  315H :  0.12  735H :  0.12  434H :  0.12  542H :  0.12  603H :  0.12  573H :  0.12  660H :  0.12  720H :  0.12   17H :  0.12
  342H :  0.11  521H :  0.11   78H :  0.11  562O :  0.11  486H :  0.11  590H :  0.11  257H :  0.10  599H :  0.10  302H :  0.10  719H :  0.10  710H :  0.10  222H :  0.10
   53H :  0.10   72H :  0.10  318H :  0.10  431H :  0.10  477H :  0.09  120H :  0.09  320H :  0.09  743H :  0.09  480H :  0.09  662H :  0.09  525H :  0.09  478O :  0.09
   21H :  0.09  507H :  0.09  410H :  0.09   27H :  0.08  692H :  0.08  396H :  0.08  639H :  0.08  272H :  0.08  258H :  0.08  237H :  0.08  273H :  0.08  476H :  0.08
  269H :  0.08  285H :  0.08  561H :  0.08  195H :  0.08  143H :  0.08  744H :  0.08  161H :  0.08  397O :  0.08  560H :  0.07  338H :  0.07  206H :  0.07  185H :  0.07
  333H :  0.07
   10 LP   *******   0.00  31.63950  53.29590 -17.69256  406O : 18.07  724O : 15.14   67O : 14.48  175O : 14.34  424O : 13.82  610O : 13.60  115O : 13.17  532O : 13.09   19O : 12.40  655O : 12.06  694O : 11.71  388O : 11.61
  283O : 10.11  415O : 10.08  241O :  9.73  247O :  9.30  451O :  8.88  565O :  8.86  421O :  8.75  673O :  8.63  691O :  8.45  607O :  8.24    4O :  8.20  604O :  7.77
  463O :  7.42   88O :  7.29  187O :  7.26  364O :  7.21   91O :  7.16   31O :  7.04  577O :  6.94  436O :  6.89   55O :  6.83  748O :  6.78  325O :  6.78  202O :  6.62
   28O :  6.60  349O :  6.58  298O :  6.50  454O :  6.32  142O :  6.25  538O :  6.24  511O :  6.16  661O :  6.08  619O :  6.00  727O :  5.90  709O :  5.88  109O :  5.72
  190O :  5.66  499O :  5.64  262O :  5.62  685O :  5.61  442O :  5.46  571O :  5.42  274O :  5.39  172O :  5.32  223O :  5.22  598O :  5.21  586O :  5.17  235O :  5.17
  328O :  5.15   22O :  5.06  280O :  5.01  370O :  4.99  304O :  4.98  700O :  4.96  112O :  4.95  703O :  4.87  391O :  4.73  358O :  4.61  556O :  4.57  322O :  4.54
  688O :  4.50  340O :  4.49  121O :  4.38  553O :  4.38  376O :  4.31   70O :  4.31  508O :  4.30  721O :  4.27  220O :  4.24  133O :  4.22   16O :  4.08  697O :  4.07
[...]
   369   1 h    0.915 --   367 o    0.906
   370   8 o    1.856 --   371 h    0.814   372 h    0.806
   371   1 h    0.876 --   370 o    0.814
   372   1 h    0.887 --   370 o    0.806
   373   8 o    1.831 --   375 h    0.872   374 h    0.797
   374   1 h    0.885 --   373 o    0.797
   375   1 h    0.898 --   373 o    0.872
   376   8 o    1.868 --   378 h    0.816   377 h    0.802
   377   1 h    0.875 --   376 o    0.802
   378   1 h    0.879 --   376 o    0.816
   379   8 o    1.842 --   381 h    0.812   380 h    0.805
   380   1 h    0.882 --   379 o    0.805
   381   1 h    0.888 --   379 o    0.812
   382   8 o    1.875 --   384 h    0.872   383 h    0.848
   383   1 h    0.890 --   382 o    0.848
   384   1 h    0.898 --   382 o    0.872
   385   8 o    1.845 --   387 h    0.844   386 h    0.835
   386   1 h    0.885 --   385 o    0.835
   387   1 h    0.889 --   385 o    0.844
   388   8 o    1.837 --   389 h    0.881   390 h    0.841
   389   1 h    0.901 --   388 o    0.881
   390   1 h    0.889 --   388 o    0.841
   391   8 o    1.868 --   393 h    0.809   392 h    0.808
   392   1 h    0.880 --   391 o    0.808
   393   1 h    0.889 --   391 o    0.809
   394   8 o    1.849 --   396 h    0.834   395 h    0.822
   395   1 h    0.879 --   394 o    0.822
   396   1 h    0.889 --   394 o    0.834
   397   8 o    1.861 --   398 h    0.817   399 h    0.796
   398   1 h    0.880 --   397 o    0.817
   399   1 h    0.878 --   397 o    0.796
   400   8 o    1.884 --   401 h    0.860   402 h    0.811
   401   1 h    0.892 --   400 o    0.860
   402   1 h    0.883 --   400 o    0.811
   403   8 o    1.864 --   404 h    0.889   405 h    0.778
   404   1 h    0.904 --   403 o    0.889
   405   1 h    0.868 --   403 o    0.778
   406   8 o    1.809 --   408 h    0.841   407 h    0.809
   407   1 h    0.882 --   406 o    0.809
   408   1 h    0.887 --   406 o    0.841
   409   8 o    1.874 --   410 h    0.862   411 h    0.796
   410   1 h    0.889 --   409 o    0.862
   411   1 h    0.874 --   409 o    0.796
   412   8 o    1.869 --   413 h    0.821   414 h    0.820
   413   1 h    0.876 --   412 o    0.821
   414   1 h    0.881 --   412 o    0.820
   415   8 o    1.861 --   417 h    0.838   416 h    0.815
   416   1 h    0.884 --   415 o    0.815
   417   1 h    0.895 --   415 o    0.838
   418   8 o    1.849 --   420 h    0.859   419 h    0.817
   419   1 h    0.885 --   418 o    0.817
   420   1 h    0.896 --   418 o    0.859
   421   8 o    1.841 --   422 h    0.853   423 h    0.842
   422   1 h    0.896 --   421 o    0.853
   423   1 h    0.889 --   421 o    0.842
   424   8 o    1.822 --   425 h    0.832   426 h    0.831
   425   1 h    0.893 --   424 o    0.832
   426   1 h    0.889 --   424 o    0.831
   427   8 o    1.847 --   428 h    0.819   429 h    0.770
   428   1 h    0.875 --   427 o    0.819
   429   1 h    0.873 --   427 o    0.770
   430   8 o    1.863 --   432 h    0.821   431 h    0.809
   431   1 h    0.875 --   430 o    0.809
   432   1 h    0.878 --   430 o    0.821
   433   8 o    1.856 --   435 h    0.872   434 h    0.826
   434   1 h    0.888 --   433 o    0.826
   435   1 h    0.902 --   433 o    0.872
   436   8 o    1.814 --   438 h    0.807   437 h    0.797
   437   1 h    0.879 --   436 o    0.797
   438   1 h    0.880 --   436 o    0.807
   439   8 o    1.872 --   441 h    0.841   440 h    0.819
   440   1 h    0.881 --   439 o    0.819
   441   1 h    0.892 --   439 o    0.841
   442   8 o    1.870 --   443 h    0.853   444 h    0.805
   443   1 h    0.898 --   442 o    0.853
   444   1 h    0.886 --   442 o    0.805
   445   8 o    1.832 --   446 h    0.821   447 h    0.810
   446   1 h    0.888 --   445 o    0.821
   447   1 h    0.888 --   445 o    0.810
   448   8 o    1.853 --   450 h    0.872   449 h    0.845
   449   1 h    0.882 --   448 o    0.845
   450   1 h    0.895 --   448 o    0.872
   451   8 o    1.842 --   453 h    0.836   452 h    0.828
   452   1 h    0.885 --   451 o    0.828
   453   1 h    0.887 --   451 o    0.836
   454   8 o    1.869 --   456 h    0.851   455 h    0.791
   455   1 h    0.874 --   454 o    0.791
   456   1 h    0.894 --   454 o    0.851
   457   8 o    1.865 --   459 h    0.843   458 h    0.824
   458   1 h    0.883 --   457 o    0.824
   459   1 h    0.883 --   457 o    0.843
   460   8 o    1.811 --   461 h    0.855   462 h    0.836
   461   1 h    0.897 --   460 o    0.855
   462   1 h    0.889 --   460 o    0.836
   463   8 o    1.844 --   464 h    0.881   465 h    0.813
   464   1 h    0.906 --   463 o    0.881
   465   1 h    0.881 --   463 o    0.813
   466   8 o    1.860 --   467 h    0.863   468 h    0.807
   467   1 h    0.889 --   466 o    0.863
   468   1 h    0.880 --   466 o    0.807
   469   8 o    1.858 --   470 h    0.855   471 h    0.834
   470   1 h    0.890 --   469 o    0.855
   471   1 h    0.882 --   469 o    0.834
   472   8 o    1.824 --   474 h    0.836   473 h    0.835
   473   1 h    0.892 --   472 o    0.835
   474   1 h    0.891 --   472 o    0.836
   475   8 o    1.854 --   477 h    0.873   476 h    0.826
   476   1 h    0.881 --   475 o    0.826
   477   1 h    0.898 --   475 o    0.873
   478   8 o    1.835 --   480 h    0.856   479 h    0.818
   479   1 h    0.887 --   478 o    0.818
   480   1 h    0.900 --   478 o    0.856
   481   8 o    1.869 --   483 h    0.819   482 h    0.804
   482   1 h    0.882 --   481 o    0.804
   483   1 h    0.887 --   481 o    0.819
   484   8 o    1.852 --   486 h    0.885   485 h    0.779
   485   1 h    0.865 --   484 o    0.779
   486   1 h    0.903 --   484 o    0.885
   487   8 o    1.862 --   489 h    0.872   488 h    0.832
   488   1 h    0.881 --   487 o    0.832
   489   1 h    0.898 --   487 o    0.872
   490   8 o    1.869 --   492 h    0.819   491 h    0.803
   491   1 h    0.879 --   490 o    0.803
   492   1 h    0.885 --   490 o    0.819
   493   8 o    1.858 --   494 h    0.841   495 h    0.806
   494   1 h    0.892 --   493 o    0.841
   495   1 h    0.879 --   493 o    0.806
   496   8 o    1.856 --   498 h    0.832   497 h    0.813
   497   1 h    0.873 --   496 o    0.813
   498   1 h    0.882 --   496 o    0.832
   499   8 o    1.824 --   501 h    0.863   500 h    0.842
   500   1 h    0.890 --   499 o    0.842
   501   1 h    0.900 --   499 o    0.863
   502   8 o    1.823 --   503 h    0.824   504 h    0.818
   503   1 h    0.893 --   502 o    0.824
   504   1 h    0.883 --   502 o    0.818
   505   8 o    1.843 --   506 h    0.899   507 h    0.827
   506   1 h    0.909 --   505 o    0.899
   507   1 h    0.881 --   505 o    0.827
   508   8 o    1.801 --   509 h    0.827   510 h    0.795
   509   1 h    0.893 --   508 o    0.827
   510   1 h    0.881 --   508 o    0.795
   511   8 o    1.841 --   512 h    0.819   513 h    0.794
   512   1 h    0.888 --   511 o    0.819
   513   1 h    0.883 --   511 o    0.794
   514   8 o    1.806 --   515 h    0.886   516 h    0.841
   515   1 h    0.908 --   514 o    0.886
   516   1 h    0.893 --   514 o    0.841
   517   8 o    1.865 --   519 h    0.853   518 h    0.810
   518   1 h    0.878 --   517 o    0.810
   519   1 h    0.896 --   517 o    0.853
   520   8 o    1.848 --   522 h    0.903   521 h    0.818
   521   1 h    0.878 --   520 o    0.818
   522   1 h    0.912 --   520 o    0.903
   523   8 o    1.851 --   524 h    0.863   525 h    0.812
   524   1 h    0.894 --   523 o    0.863
   525   1 h    0.886 --   523 o    0.812
   526   8 o    1.832 --   527 h    0.851   528 h    0.838
   527   1 h    0.891 --   526 o    0.851
   528   1 h    0.892 --   526 o    0.838
   529   8 o    1.868 --   531 h    0.829   530 h    0.798
   530   1 h    0.868 --   529 o    0.798
   531   1 h    0.888 --   529 o    0.829
   532   8 o    1.843 --   534 h    0.816   533 h    0.801
   533   1 h    0.890 --   532 o    0.801
   534   1 h    0.887 --   532 o    0.816
   535   8 o    1.819 --   537 h    0.856   536 h    0.849
   536   1 h    0.894 --   535 o    0.849
   537   1 h    0.898 --   535 o    0.856
   538   8 o    1.847 --   539 h    0.891   540 h    0.795
   539   1 h    0.907 --   538 o    0.891
   540   1 h    0.877 --   538 o    0.795
   541   8 o    1.852 --   543 h    0.839   542 h    0.805
   542   1 h    0.886 --   541 o    0.805
   543   1 h    0.894 --   541 o    0.839
   544   8 o    1.855 --   546 h    0.835   545 h    0.833
   545   1 h    0.892 --   544 o    0.833
   546   1 h    0.883 --   544 o    0.835
   547   8 o    1.862 --   549 h    0.900   548 h    0.780
   548   1 h    0.876 --   547 o    0.780
   549   1 h    0.912 --   547 o    0.900
   550   8 o    1.859 --   552 h    0.857   551 h    0.850
   551   1 h    0.889 --   550 o    0.850
   552   1 h    0.892 --   550 o    0.857
   553   8 o    1.865 --   555 h    0.879   554 h    0.859
   554   1 h    0.894 --   553 o    0.859
   555   1 h    0.901 --   553 o    0.879
   556   8 o    1.819 --   558 h    0.857   557 h    0.836
   557   1 h    0.893 --   556 o    0.836
   558   1 h    0.895 --   556 o    0.857
   559   8 o    1.866 --   561 h    0.859   560 h    0.842
   560   1 h    0.891 --   559 o    0.842
   561   1 h    0.894 --   559 o    0.859
   562   8 o    1.844 --   563 h    0.837   564 h    0.831
   563   1 h    0.893 --   562 o    0.837
   564   1 h    0.893 --   562 o    0.831
   565   8 o    1.837 --   566 h    0.854   567 h    0.833
   566   1 h    0.892 --   565 o    0.854
   567   1 h    0.891 --   565 o    0.833
   568   8 o    1.870 --   570 h    0.826   569 h    0.814
   569   1 h    0.889 --   568 o    0.814
   570   1 h    0.880 --   568 o    0.826
   571   8 o    1.839 --   572 h    0.885   573 h    0.824
   572   1 h    0.902 --   571 o    0.885
   573   1 h    0.884 --   571 o    0.824
   574   8 o    1.839 --   575 h    0.865   576 h    0.864
   575   1 h    0.896 --   574 o    0.865
   576   1 h    0.899 --   574 o    0.864
   577   8 o    1.816 --   579 h    0.843   578 h    0.832
   578   1 h    0.887 --   577 o    0.832
   579   1 h    0.888 --   577 o    0.843
   580   8 o    1.863 --   582 h    0.830   581 h    0.817
   581   1 h    0.886 --   580 o    0.817
   582   1 h    0.889 --   580 o    0.830
   583   8 o    1.832 --   585 h    0.853   584 h    0.841
   584   1 h    0.887 --   583 o    0.841
   585   1 h    0.896 --   583 o    0.853
   586   8 o    1.853 --   588 h    0.856   587 h    0.848
   587   1 h    0.897 --   586 o    0.848
   588   1 h    0.893 --   586 o    0.856
   589   8 o    1.846 --   590 h    0.900   591 h    0.810
   590   1 h    0.909 --   589 o    0.900
   591   1 h    0.877 --   589 o    0.810
   592   8 o    1.850 --   594 h    0.896   593 h    0.803
   593   1 h    0.879 --   592 o    0.803
   594   1 h    0.907 --   592 o    0.896
   595   8 o    1.870 --   596 h    0.909   597 h    0.800
   596   1 h    0.914 --   595 o    0.909
   597   1 h    0.870 --   595 o    0.800
   598   8 o    1.883 --   599 h    0.822   600 h    0.783
   599   1 h    0.884 --   598 o    0.822
   600   1 h    0.868 --   598 o    0.783
   601   8 o    1.853 --   602 h    0.862   603 h    0.847
   602   1 h    0.894 --   601 o    0.862
   603   1 h    0.894 --   601 o    0.847
   604   8 o    1.862 --   606 h    0.905   605 h    0.812
   605   1 h    0.877 --   604 o    0.812
   606   1 h    0.911 --   604 o    0.905
   607   8 o    1.880 --   608 h    0.853   609 h    0.817
   608   1 h    0.892 --   607 o    0.853
   609   1 h    0.887 --   607 o    0.817
   610   8 o    1.864 --   611 h    0.900   612 h    0.808
   611   1 h    0.908 --   610 o    0.900
   612   1 h    0.870 --   610 o    0.808
   613   8 o    1.822 --   614 h    0.872   615 h    0.870
   614   1 h    0.900 --   613 o    0.872
   615   1 h    0.898 --   613 o    0.870
   616   8 o    1.842 --   617 h    0.861   618 h    0.854
   617   1 h    0.903 --   616 o    0.861
   618   1 h    0.895 --   616 o    0.854
   619   8 o    1.859 --   620 h    0.812   621 h    0.811
   620   1 h    0.873 --   619 o    0.812
   621   1 h    0.879 --   619 o    0.811
   622   8 o    1.848 --   624 h    0.850   623 h    0.821
   623   1 h    0.882 --   622 o    0.821
   624   1 h    0.893 --   622 o    0.850
   625   8 o    1.862 --   627 h    0.871   626 h    0.844
   626   1 h    0.892 --   625 o    0.844
   627   1 h    0.898 --   625 o    0.871
   628   8 o    1.856 --   629 h    0.820   630 h    0.820
   629   1 h    0.883 --   628 o    0.820
   630   1 h    0.887 --   628 o    0.820
   631   8 o    1.830 --   633 h    0.836   632 h    0.825
   632   1 h    0.885 --   631 o    0.825
   633   1 h    0.887 --   631 o    0.836
   634   8 o    1.851 --   635 h    0.876   636 h    0.843
   635   1 h    0.898 --   634 o    0.876
   636   1 h    0.893 --   634 o    0.843
   637   8 o    1.858 --   638 h    0.816   639 h    0.787
   638   1 h    0.886 --   637 o    0.816
   639   1 h    0.876 --   637 o    0.787
   640   8 o    1.840 --   641 h    0.889   642 h    0.811
   641   1 h    0.906 --   640 o    0.889
   642   1 h    0.880 --   640 o    0.811
   643   8 o    1.848 --   645 h    0.904   644 h    0.812
   644   1 h    0.875 --   643 o    0.812
   645   1 h    0.912 --   643 o    0.904
   646   8 o    1.835 --   647 h    0.848   648 h    0.843
   647   1 h    0.893 --   646 o    0.848
   648   1 h    0.889 --   646 o    0.843
   649   8 o    1.870 --   650 h    0.895   651 h    0.837
   650   1 h    0.904 --   649 o    0.895
   651   1 h    0.880 --   649 o    0.837
   652   8 o    1.858 --   654 h    0.832   653 h    0.832
   653   1 h    0.884 --   652 o    0.832
   654   1 h    0.889 --   652 o    0.832
   655   8 o    1.879 --   657 h    0.870   656 h    0.834
   656   1 h    0.892 --   655 o    0.834
   657   1 h    0.896 --   655 o    0.870
   658   8 o    1.860 --   659 h    0.848   660 h    0.814
   659   1 h    0.890 --   658 o    0.848
   660   1 h    0.879 --   658 o    0.814
   661   8 o    1.833 --   662 h    0.862   663 h    0.848
   662   1 h    0.895 --   661 o    0.862
   663   1 h    0.894 --   661 o    0.848
   664   8 o    1.826 --   665 h    0.845   666 h    0.826
   665   1 h    0.883 --   664 o    0.845
   666   1 h    0.875 --   664 o    0.826
   667   8 o    1.856 --   669 h    0.874   668 h    0.812
   668   1 h    0.878 --   667 o    0.812
   669   1 h    0.900 --   667 o    0.874
   670   8 o    1.832 --   672 h    0.899   671 h    0.816
   671   1 h    0.884 --   670 o    0.816
   672   1 h    0.909 --   670 o    0.899
   673   8 o    1.833 --   675 h    0.834   674 h    0.812
   674   1 h    0.879 --   673 o    0.812
   675   1 h    0.888 --   673 o    0.834
   676   8 o    1.847 --   678 h    0.837   677 h    0.809
   677   1 h    0.879 --   676 o    0.809
   678   1 h    0.882 --   676 o    0.837
   679   8 o    1.869 --   681 h    0.812   680 h    0.805
   680   1 h    0.878 --   679 o    0.805
   681   1 h    0.883 --   679 o    0.812
   682   8 o    1.852 --   684 h    0.866   683 h    0.798
   683   1 h    0.881 --   682 o    0.798
   684   1 h    0.897 --   682 o    0.866
   685   8 o    1.862 --   686 h    0.866   687 h    0.839
   686   1 h    0.890 --   685 o    0.866
   687   1 h    0.890 --   685 o    0.839
   688   8 o    1.855 --   689 h    0.826   690 h    0.818
   689   1 h    0.879 --   688 o    0.826
   690   1 h    0.886 --   688 o    0.818
   691   8 o    1.819 --   693 h    0.842   692 h    0.811
   692   1 h    0.887 --   691 o    0.811
   693   1 h    0.897 --   691 o    0.842
   694   8 o    1.828 --   696 h    0.869   695 h    0.833
   695   1 h    0.882 --   694 o    0.833
   696   1 h    0.890 --   694 o    0.869
   697   8 o    1.851 --   699 h    0.908   698 h    0.831
   698   1 h    0.888 --   697 o    0.831
   699   1 h    0.912 --   697 o    0.908
   700   8 o    1.848 --   702 h    0.890   701 h    0.839
   701   1 h    0.890 --   700 o    0.839
   702   1 h    0.901 --   700 o    0.890
   703   8 o    1.868 --   704 h    0.883   705 h    0.858
   704   1 h    0.900 --   703 o    0.883
   705   1 h    0.890 --   703 o    0.858
   706   8 o    1.867 --   707 h    0.892   708 h    0.825
   707   1 h    0.903 --   706 o    0.892
   708   1 h    0.888 --   706 o    0.825
   709   8 o    1.837 --   711 h    0.832   710 h    0.807
   710   1 h    0.885 --   709 o    0.807
   711   1 h    0.888 --   709 o    0.832
   712   8 o    1.873 --   713 h    0.842   714 h    0.836
   713   1 h    0.887 --   712 o    0.842
   714   1 h    0.877 --   712 o    0.836
   715   8 o    1.855 --   716 h    0.836   717 h    0.828
   716   1 h    0.887 --   715 o    0.836
   717   1 h    0.879 --   715 o    0.828
   718   8 o    1.821 --   719 h    0.852   720 h    0.847
   719   1 h    0.898 --   718 o    0.852
   720   1 h    0.896 --   718 o    0.847
   721   8 o    1.844 --   722 h    0.912   723 h    0.776
   722   1 h    0.919 --   721 o    0.912
   723   1 h    0.877 --   721 o    0.776
   724   8 o    1.865 --   726 h    0.813   725 h    0.786
   725   1 h    0.885 --   724 o    0.786
   726   1 h    0.883 --   724 o    0.813
   727   8 o    1.851 --   729 h    0.840   728 h    0.811
   728   1 h    0.882 --   727 o    0.811
   729   1 h    0.892 --   727 o    0.840
   730   8 o    1.846 --   732 h    0.911   731 h    0.846
   731   1 h    0.888 --   730 o    0.846
   732   1 h    0.913 --   730 o    0.911
   733   8 o    1.872 --   735 h    0.864   734 h    0.835
   734   1 h    0.891 --   733 o    0.835
   735   1 h    0.898 --   733 o    0.864
   736   8 o    1.845 --   737 h    0.855   738 h    0.843
   737   1 h    0.891 --   736 o    0.855
   738   1 h    0.892 --   736 o    0.843
   739   8 o    1.835 --   741 h    0.830   740 h    0.825
   740   1 h    0.885 --   739 o    0.825
   741   1 h    0.893 --   739 o    0.830
   742   8 o    1.863 --   744 h    0.881   743 h    0.804
   743   1 h    0.874 --   742 o    0.804
   744   1 h    0.900 --   742 o    0.881
   745   8 o    1.836 --   746 h    0.882   747 h    0.780
   746   1 h    0.904 --   745 o    0.882
   747   1 h    0.869 --   745 o    0.780
   748   8 o    1.830 --   749 h    0.857   750 h    0.828
   749   1 h    0.899 --   748 o    0.857
   750   1 h    0.885 --   748 o    0.828
   751   8 o    1.840 --   753 h    0.875   752 h    0.866
   752   1 h    0.888 --   751 o    0.866
   753   1 h    0.891 --   751 o    0.875
   754   8 o    1.882 --   755 h    0.850   756 h    0.839
   755   1 h    0.878 --   754 o    0.850
   756   1 h    0.873 --   754 o    0.839
 ---------------------------------------------------------------------------

Topologies differ in total number of bonds
Writing topology from bond orders to xtbtopo.mol

molecular dipole:
                 x           y           z       tot (Debye)
 q only:       -0.552      -0.762      -0.848
   full:        0.475      -1.826      -1.204       5.689
molecular quadrupole (traceless):
                xx          xy          yy          xz          yz          zz
 q only:      -46.563     -45.953       5.782      10.677      43.571      40.781
  q+dip:      -53.064     -72.704       5.118       8.964      56.859      47.945
   full:      -51.369     -71.962       4.429       9.618      56.923      46.940


           -------------------------------------------------
          | TOTAL ENERGY            -1283.364981488694 Eh   |
          | GRADIENT NORM               0.031496163805 Eh/α |
          | HOMO-LUMO GAP               8.064097404791 eV   |
           -------------------------------------------------

------------------------------------------------------------------------
 * finished run on 2022/11/24 at 09:29:07.334     
------------------------------------------------------------------------
 total:
 * wall-time:     0 d,  0 h,  0 min, 57.258 sec
 *  cpu-time:     0 d,  0 h,  1 min, 12.583 sec
 * ratio c/w:     1.268 speedup
 SCF:
 * wall-time:     0 d,  0 h,  0 min, 56.207 sec
 *  cpu-time:     0 d,  0 h,  1 min, 10.841 sec
 * ratio c/w:     1.260 speedup

