      -----------------------------------------------------------      
     |                   =====================                   |     
     |                           x T B                           |     
     |                   =====================                   |     
     |                         S. Grimme                         |     
     |          Mulliken Center for Theoretical Chemistry        |     
     |                    University of Bonn                     |     
      -----------------------------------------------------------      

   * xtb version 6.5.1 (579679a) compiled by 'ehlert@majestix' on 2022-07-11

   xtb is free software: you can redistribute it and/or modify it under
   the terms of the GNU Lesser General Public License as published by
   the Free Software Foundation, either version 3 of the License, or
   (at your option) any later version.
   
   xtb is distributed in the hope that it will be useful,
   but WITHOUT ANY WARRANTY; without even the implied warranty of
   MERCHANTABILITY or FITNESS FOR A PARTICULAR PURPOSE.  See the
   GNU Lesser General Public License for more details.
   
   Cite this work as:
   * C. Bannwarth, E. Caldeweyher, S. Ehlert, A. Hansen, P. Pracht,
     J. Seibert, S. Spicher, S. Grimme, WIREs Comput. Mol. Sci., 2020, 11,
     e01493. DOI: 10.1002/wcms.1493
   
   for GFN2-xTB:
   * C. Bannwarth, S. Ehlert and S. Grimme., J. Chem. Theory Comput., 2019,
     15, 1652-1671. DOI: 10.1021/acs.jctc.8b01176
   for GFN1-xTB:
   * S. Grimme, C. Bannwarth, P. Shushkov, J. Chem. Theory Comput., 2017,
     13, 1989-2009. DOI: 10.1021/acs.jctc.7b00118
   for GFN0-xTB:
   * P. Pracht, E. Caldeweyher, S. Ehlert, S. Grimme, ChemRxiv, 2019, preprint.
     DOI: 10.26434/chemrxiv.8326202.v1
   for GFN-FF:
   * S. Spicher and S. Grimme, Angew. Chem. Int. Ed., 2020, 59, 15665-15673.
     DOI: 10.1002/anie.202004239
   
   for ALPB and GBSA implicit solvation:
   * S. Ehlert, M. Stahn, S. Spicher, S. Grimme, J. Chem. Theory Comput.,
     2021, 17, 4250-4261. DOI: 10.1021/acs.jctc.1c00471
   
   for DFT-D4:
   * E. Caldeweyher, C. Bannwarth and S. Grimme, J. Chem. Phys., 2017,
     147, 034112. DOI: 10.1063/1.4993215
   * E. Caldeweyher, S. Ehlert, A. Hansen, H. Neugebauer, S. Spicher,
     C. Bannwarth and S. Grimme, J. Chem. Phys., 2019, 150, 154122.
     DOI: 10.1063/1.5090222
   * E. Caldeweyher, J.-M. Mewes, S. Ehlert and S. Grimme, Phys. Chem. Chem. Phys.
     2020, 22, 8499-8512. DOI: 10.1039/D0CP00502A
   
   for sTDA-xTB:
   * S. Grimme and C. Bannwarth, J. Chem. Phys., 2016, 145, 054103.
     DOI: 10.1063/1.4959605
   
   in the mass-spec context:
   * V. Asgeirsson, C. Bauer and S. Grimme, Chem. Sci., 2017, 8, 4879.
     DOI: 10.1039/c7sc00601b
   * J. Koopman and S. Grimme, ACS Omega 2019, 4, 12, 15120-15133.
     DOI: 10.1021/acsomega.9b02011
   
   for metadynamics refer to:
   * S. Grimme, J. Chem. Theory Comput., 2019, 155, 2847-2862
     DOI: 10.1021/acs.jctc.9b00143
   
   for SPH calculations refer to:
   * S. Spicher and S. Grimme, J. Chem. Theory Comput., 2021, 17, 1701-1714
     DOI: 10.1021/acs.jctc.0c01306
   
   with help from (in alphabetical order)
   P. Atkinson, C. Bannwarth, F. Bohle, G. Brandenburg, E. Caldeweyher
   M. Checinski, S. Dohm, S. Ehlert, S. Ehrlich, I. Gerasimov, C. Hölzer
   A. Katbashev, J. Koopman, C. Lavigne, S. Lehtola, F. März, M. Müller,
   F. Musil, H. Neugebauer, J. Pisarek, C. Plett, P. Pracht, F. Pultar,
   J. Seibert, P. Shushkov, S. Spicher, M. Stahn, M. Steiner, T. Strunk,
   J. Stückrath, T. Rose, and J. Unsleber
   
 * started run on 2022/11/24 at 09:27:46.526     

           -------------------------------------------------
          |                Calculation Setup                |
           -------------------------------------------------

          program call               : xtb xtbopt.coord --gfn2 --sp --gbsa water
          hostname                   : cn0341
          coordinate file            : xtbopt.coord
          omp threads                :                     2

   ID    Z sym.   atoms
    1    8 o      1, 4, 7, 10, 13, 16, 19, 22, 25, 28, 31, 34, 37, 40, 43,
                  46, 49, 52, 55, 58, 61, 64, 67, 70, 73, 76, 79, 82, 85, 88,
                  91, 94, 97, 100, 103, 106, 109, 112, 115, 118, 121, 124,
                  127, 130, 133, 136, 139, 142, 145, 148, 151, 154, 157, 160,
                  163, 166, 169, 172, 175, 178, 181, 184, 187, 190, 193, 196,
                  199, 202, 205, 208, 211, 214, 217, 220, 223, 226, 229, 232,
                  235, 238, 241, 244, 247, 250, 253, 256, 259, 262, 265, 268,
                  271, 274, 277, 280, 283, 286, 289, 292, 295, 298, 301, 304,
                  307, 310, 313, 316, 319, 322, 325, 328, 331, 334, 337, 340,
                  343, 346, 349, 352, 355, 358, 361, 364, 367, 370, 373, 376,
                  379, 382, 385, 388, 391, 394, 397, 400, 403, 406, 409, 412,
                  415, 418, 421, 424, 427, 430, 433, 436, 439, 442, 445, 448,
                  451, 454, 457, 460, 463, 466, 469, 472, 475, 478, 481, 484,
                  487, 490, 493, 496, 499, 502, 505, 508, 511, 514, 517, 520,
                  523, 526, 529, 532, 535, 538, 541, 544, 547, 550, 553, 556,
                  559, 562, 565, 568, 571, 574, 577, 580, 583, 586, 589, 592,
                  595, 598, 601, 604, 607, 610, 613, 616, 619, 622, 625, 628,
                  631, 634, 637, 640, 643, 646, 649, 652, 655, 658, 661, 664,
                  667, 670, 673, 676, 679, 682, 685, 688, 691, 694, 697, 700,
                  703, 706, 709, 712, 715, 718, 721, 724, 727, 730, 733, 736,
                  739, 742, 745, 748, 751, 754
    2    1 h      2, 3, 5, 6, 8, 9, 11, 12, 14, 15, 17, 18, 20, 21, 23, 24,
                  26, 27, 29, 30, 32, 33, 35, 36, 38, 39, 41, 42, 44, 45, 47,
                  48, 50, 51, 53, 54, 56, 57, 59, 60, 62, 63, 65, 66, 68, 69,
                  71, 72, 74, 75, 77, 78, 80, 81, 83, 84, 86, 87, 89, 90, 92,
                  93, 95, 96, 98, 99, 101, 102, 104, 105, 107, 108, 110, 111,
                  113, 114, 116, 117, 119, 120, 122, 123, 125, 126, 128, 129,
                  131, 132, 134, 135, 137, 138, 140, 141, 143, 144, 146, 147,
                  149, 150, 152, 153, 155, 156, 158, 159, 161, 162, 164, 165,
                  167, 168, 170, 171, 173, 174, 176, 177, 179, 180, 182, 183,
                  185, 186, 188, 189, 191, 192, 194, 195, 197, 198, 200, 201,
                  203, 204, 206, 207, 209, 210, 212, 213, 215, 216, 218, 219,
                  221, 222, 224, 225, 227, 228, 230, 231, 233, 234, 236, 237,
                  239, 240, 242, 243, 245, 246, 248, 249, 251, 252, 254, 255,
                  257, 258, 260, 261, 263, 264, 266, 267, 269, 270, 272, 273,
                  275, 276, 278, 279, 281, 282, 284, 285, 287, 288, 290, 291,
                  293, 294, 296, 297, 299, 300, 302, 303, 305, 306, 308, 309,
                  311, 312, 314, 315, 317, 318, 320, 321, 323, 324, 326, 327,
                  329, 330, 332, 333, 335, 336, 338, 339, 341, 342, 344, 345,
                  347, 348, 350, 351, 353, 354, 356, 357, 359, 360, 362, 363,
                  365, 366, 368, 369, 371, 372, 374, 375, 377, 378, 380, 381,
                  383, 384, 386, 387, 389, 390, 392, 393, 395, 396, 398, 399,
                  401, 402, 404, 405, 407, 408, 410, 411, 413, 414, 416, 417,
                  419, 420, 422, 423, 425, 426, 428, 429, 431, 432, 434, 435,
                  437, 438, 440, 441, 443, 444, 446, 447, 449, 450, 452, 453,
                  455, 456, 458, 459, 461, 462, 464, 465, 467, 468, 470, 471,
                  473, 474, 476, 477, 479, 480, 482, 483, 485, 486, 488, 489,
                  491, 492, 494, 495, 497, 498, 500, 501, 503, 504, 506, 507,
                  509, 510, 512, 513, 515, 516, 518, 519, 521, 522, 524, 525,
                  527, 528, 530, 531, 533, 534, 536, 537, 539, 540, 542, 543,
                  545, 546, 548, 549, 551, 552, 554, 555, 557, 558, 560, 561,
                  563, 564, 566, 567, 569, 570, 572, 573, 575, 576, 578, 579,
                  581, 582, 584, 585, 587, 588, 590, 591, 593, 594, 596, 597,
                  599, 600, 602, 603, 605, 606, 608, 609, 611, 612, 614, 615,
                  617, 618, 620, 621, 623, 624, 626, 627, 629, 630, 632, 633,
                  635, 636, 638, 639, 641, 642, 644, 645, 647, 648, 650, 651,
                  653, 654, 656, 657, 659, 660, 662, 663, 665, 666, 668, 669,
                  671, 672, 674, 675, 677, 678, 680, 681, 683, 684, 686, 687,
                  689, 690, 692, 693, 695, 696, 698, 699, 701, 702, 704, 705,
                  707, 708, 710, 711, 713, 714, 716, 717, 719, 720, 722, 723,
                  725, 726, 728, 729, 731, 732, 734, 735, 737, 738, 740, 741,
                  743, 744, 746, 747, 749, 750, 752, 753, 755, 756

molecular fragmentation (1/2 indicates fragments):
111222222222222222222222222222222222222222222222222222222222222222222222
222222222222222222222222222222222222222222222222222222222222222222222222
222222222222222222222222222222222222222222222222222222222222222222222222
222222222222222222222222222222222222222222222222222222222222222222222222
222222222222222222222222222222222222222222222222222222222222222222222222
222222222222222222222222222222222222222222222222222222222222222222222222
222222222222222222222222222222222222222222222222222222222222222222222222
222222222222222222222222222222222222222222222222222222222222222222222222
222222222222222222222222222222222222222222222222222222222222222222222222
222222222222222222222222222222222222222222222222222222222222222222222222
222222222222222222222222222222222222
# atoms in fragment 1/2:     3   753
 fragment masses (1/2) :       18.02     4521.84
CMA distance (Bohr)    :  14.500
constraining FC (au)   :  0.0500

           -------------------------------------------------
          |                 G F N 2 - x T B                 |
           -------------------------------------------------

        Reference                      10.1021/acs.jctc.8b01176
      * Hamiltonian:
        H0-scaling (s, p, d)           1.850000    2.230000    2.230000
        zeta-weighting                 0.500000
      * Dispersion:
        s8                             2.700000
        a1                             0.520000
        a2                             5.000000
        s9                             5.000000
      * Repulsion:
        kExp                           1.500000    1.000000
        rExp                           1.000000
      * Coulomb:
        alpha                          2.000000
        third order                    shell-resolved
        anisotropic                    true
        a3                             3.000000
        a5                             4.000000
        cn-shift                       1.200000
        cn-exp                         4.000000
        max-rad                        5.000000

      * Solvation model:               GBSA
        Solvent                        water
        Parameter file                 internal GFN2-xTB/GBSA
        Dielectric constant                8.0200E+01
        Reference state                gsolv [1 M gas/solution]
        Free energy shift                  1.8574E-03 Eh       1.1656E+00 kcal/mol
        Temperature                        2.9815E+02 K
        Density                            1.0000E+00 kg/L
        Solvent mass                       1.8000E+01 g/mol
        Interaction kernel             Still
        Born radius scaling (c1)           1.5524E+00
        Born radii integrator          GBOBC
        Born offset                        2.4628E-02 a0       4.6540E-02 AA
        H-bond correction              true
        Ion screening                  false
        Surface tension                    1.0000E-05 Eh       1.5569E+01 dyn/cm
        Grid points                               230 per atom

          ...................................................
          :                      SETUP                      :
          :.................................................:
          :  # basis functions                1512          :
          :  # atomic orbitals                1512          :
          :  # shells                         1008          :
          :  # electrons                      2016          :
          :  max. iterations                   250          :
          :  Hamiltonian                  GFN2-xTB          :
          :  restarted?                      false          :
          :  GBSA solvation                   true          :
          :  PC potential                    false          :
          :  electronic temp.          300.0000000     K    :
          :  accuracy                    1.0000000          :
          :  -> integral cutoff          0.2500000E+02      :
          :  -> integral neglect         0.1000000E-07      :
          :  -> SCF convergence          0.1000000E-05 Eh   :
          :  -> wf. convergence          0.1000000E-03 e    :
          :  Broyden damping             0.4000000          :
          ...................................................

 iter      E             dE          RMSdq      gap      omega  full diag
   1  -1291.2780498 -0.129128E+04  0.408E+00    8.32       0.0  T
   2  -1291.3595657 -0.815159E-01  0.242E+00    8.27       1.0  T
   3  -1291.3948383 -0.352726E-01  0.223E-01    7.87       1.0  T
   4  -1291.4001833 -0.534506E-02  0.479E-02    7.97       1.0  T
   5  -1291.4003380 -0.154642E-03  0.307E-02    7.94       1.0  T
   6  -1291.4003865 -0.485105E-04  0.378E-03    7.94       1.0  T
   7  -1291.4003882 -0.169901E-05  0.939E-04    7.94       3.9  T
   8  -1291.4003883 -0.117728E-06  0.458E-04    7.94       7.9  T
   9  -1291.4003883 -0.375817E-07  0.138E-04    7.94      26.4  T

   *** convergence criteria satisfied after 9 iterations ***

         #    Occupation            Energy/Eh            Energy/eV
      -------------------------------------------------------------
         1        2.0000           -0.6562836             -17.8584
       ...           ...                  ...                  ...
      1002        2.0000           -0.3602438              -9.8027
      1003        2.0000           -0.3600117              -9.7964
      1004        2.0000           -0.3575728              -9.7301
      1005        2.0000           -0.3571485              -9.7185
      1006        2.0000           -0.3555497              -9.6750
      1007        2.0000           -0.3553515              -9.6696
      1008        2.0000           -0.3509273              -9.5492 (HOMO)
      1009                         -0.0592768              -1.6130 (LUMO)
      1010                         -0.0507177              -1.3801
      1011                         -0.0401210              -1.0917
      1012                         -0.0369192              -1.0046
      1013                         -0.0327544              -0.8913
       ...                                ...                  ...
      1512                          0.4893715              13.3165
      -------------------------------------------------------------
                  HL-Gap            0.2916505 Eh            7.9362 eV
             Fermi-level           -0.2051020 Eh           -5.5811 eV

 SCC (total)                   0 d,  0 h,  0 min, 20.867 sec
 SCC setup                      ...        0 min,  0.115 sec (  0.550%)
 Dispersion                     ...        0 min,  0.114 sec (  0.547%)
 classical contributions        ...        0 min,  0.023 sec (  0.112%)
 integral evaluation            ...        0 min,  0.589 sec (  2.823%)
 iterations                     ...        0 min,  7.567 sec ( 36.261%)
 molecular gradient             ...        0 min, 12.389 sec ( 59.371%)
 printout                       ...        0 min,  0.070 sec (  0.334%)

         :::::::::::::::::::::::::::::::::::::::::::::::::::::
         ::                     SUMMARY                     ::
         :::::::::::::::::::::::::::::::::::::::::::::::::::::
         :: total energy           -1283.627570166403 Eh    ::
         :: total w/o Gsasa/hb     -1283.401301139843 Eh    ::
         :: gradient norm              0.099129000514 Eh/a0 ::
         :: HOMO-LUMO gap              7.936214839029 eV    ::
         ::.................................................::
         :: SCC energy             -1291.400388321633 Eh    ::
         :: -> isotropic ES            7.362313355912 Eh    ::
         :: -> anisotropic ES         -1.662966560343 Eh    ::
         :: -> anisotropic XC         -0.119390499028 Eh    ::
         :: -> dispersion             -0.792887754483 Eh    ::
         :: -> Gsolv                  -0.285991883036 Eh    ::
         ::    -> Gelec               -0.059722856477 Eh    ::
         ::    -> Gsasa                0.007640844774 Eh    ::
         ::    -> Ghb                 -0.235767314460 Eh    ::
         ::    -> Gshift               0.001857443127 Eh    ::
         :: repulsion energy           7.616492843003 Eh    ::
         :: add. restraining           0.000000000000 Eh    ::
         :: total charge               0.000000000000 e     ::
         :::::::::::::::::::::::::::::::::::::::::::::::::::::

           -------------------------------------------------
          |                Property Printout                |
           -------------------------------------------------

    * Orbital Energies and Occupations

         #    Occupation            Energy/Eh            Energy/eV
      -------------------------------------------------------------
         1        2.0000           -0.6562836             -17.8584
       ...           ...                  ...                  ...
       996        2.0000           -0.3631250              -9.8811
       997        2.0000           -0.3626409              -9.8680
       998        2.0000           -0.3613799              -9.8336
       999        2.0000           -0.3612988              -9.8314
      1000        2.0000           -0.3605950              -9.8123
      1001        2.0000           -0.3603375              -9.8053
      1002        2.0000           -0.3602438              -9.8027
      1003        2.0000           -0.3600117              -9.7964
      1004        2.0000           -0.3575728              -9.7301
      1005        2.0000           -0.3571485              -9.7185
      1006        2.0000           -0.3555497              -9.6750
      1007        2.0000           -0.3553515              -9.6696
      1008        2.0000           -0.3509273              -9.5492 (HOMO)
      1009                         -0.0592768              -1.6130 (LUMO)
      1010                         -0.0507177              -1.3801
      1011                         -0.0401210              -1.0917
      1012                         -0.0369192              -1.0046
      1013                         -0.0327544              -0.8913
      1014                         -0.0247074              -0.6723
      1015                         -0.0225773              -0.6144
      1016                         -0.0124446              -0.3386
      1017                         -0.0120002              -0.3265
      1018                         -0.0105016              -0.2858
      1019                         -0.0034902              -0.0950
       ...                                ...                  ...
      1512                          0.4893715              13.3165
      -------------------------------------------------------------
                  HL-Gap            0.2916505 Eh            7.9362 eV
             Fermi-level           -0.2051020 Eh           -5.5811 eV

     #   Z          covCN         q      C6AA      α(0)
     1   8 o        1.604    -0.715    28.108     7.155
     2   1 h        0.802     0.328     0.643     1.260
     3   1 h        0.803     0.354     0.579     1.196
     4   8 o        1.605    -0.702    27.754     7.110
     5   1 h        0.803     0.353     0.580     1.197
     6   1 h        0.803     0.350     0.588     1.204
     7   8 o        1.606    -0.698    27.668     7.099
     8   1 h        0.802     0.355     0.577     1.193
     9   1 h        0.804     0.356     0.575     1.191
    10   8 o        1.609    -0.684    27.295     7.051
    11   1 h        0.805     0.356     0.574     1.191
    12   1 h        0.803     0.362     0.560     1.176
    13   8 o        1.608    -0.682    27.233     7.043
    14   1 h        0.804     0.352     0.584     1.201
    15   1 h        0.805     0.340     0.613     1.229
    16   8 o        1.607    -0.692    27.510     7.079
    17   1 h        0.804     0.333     0.631     1.248
    18   1 h        0.804     0.359     0.567     1.183
    19   8 o        1.608    -0.696    27.611     7.092
    20   1 h        0.803     0.359     0.569     1.185
    21   1 h        0.803     0.361     0.564     1.180
    22   8 o        1.608    -0.689    27.421     7.067
    23   1 h        0.805     0.331     0.635     1.252
    24   1 h        0.804     0.342     0.606     1.223
    25   8 o        1.607    -0.707    27.903     7.129
    26   1 h        0.803     0.359     0.568     1.184
    27   1 h        0.803     0.359     0.568     1.184
    28   8 o        1.607    -0.705    27.846     7.122
    29   1 h        0.805     0.340     0.611     1.228
    30   1 h        0.803     0.342     0.609     1.226
    31   8 o        1.607    -0.704    27.828     7.120
    32   1 h        0.803     0.348     0.593     1.210
    33   1 h        0.803     0.343     0.604     1.221
    34   8 o        1.609    -0.684    27.289     7.050
    35   1 h        0.804     0.347     0.594     1.211
    36   1 h        0.805     0.330     0.638     1.255
    37   8 o        1.607    -0.665    26.798     6.987
    38   1 h        0.804     0.332     0.633     1.250
    39   1 h        0.803     0.340     0.612     1.229
    40   8 o        1.607    -0.689    27.420     7.067
    41   1 h        0.804     0.349     0.591     1.208
    42   1 h        0.804     0.338     0.617     1.234
    43   8 o        1.607    -0.682    27.249     7.045
    44   1 h        0.803     0.349     0.590     1.207
    45   1 h        0.803     0.337     0.619     1.236
    46   8 o        1.604    -0.709    27.958     7.136
    47   1 h        0.802     0.344     0.603     1.220
    48   1 h        0.803     0.366     0.552     1.167
    49   8 o        1.607    -0.699    27.694     7.103
    50   1 h        0.804     0.340     0.612     1.229
    51   1 h        0.803     0.358     0.571     1.187
    52   8 o        1.607    -0.670    26.925     7.003
    53   1 h        0.804     0.330     0.637     1.253
    54   1 h        0.804     0.331     0.635     1.252
    55   8 o        1.607    -0.688    27.406     7.065
    56   1 h        0.803     0.353     0.582     1.199
    57   1 h        0.804     0.333     0.629     1.246
    58   8 o        1.609    -0.670    26.936     7.005
    59   1 h        0.804     0.346     0.599     1.215
    60   1 h        0.805     0.339     0.616     1.233
    61   8 o        1.604    -0.703    27.790     7.115
    62   1 h        0.803     0.359     0.567     1.183
    63   1 h        0.802     0.351     0.586     1.203
    64   8 o        1.608    -0.685    27.318     7.054
    65   1 h        0.804     0.328     0.642     1.258
    66   1 h        0.804     0.359     0.568     1.184
    67   8 o        1.607    -0.707    27.893     7.128
    68   1 h        0.803     0.351     0.586     1.203
    69   1 h        0.804     0.349     0.591     1.208
    70   8 o        1.602    -0.707    27.903     7.129
    71   1 h        0.805     0.340     0.612     1.229
    72   1 h        0.801     0.356     0.576     1.192
    73   8 o        1.608    -0.688    27.398     7.065
    74   1 h        0.804     0.337     0.620     1.236
    75   1 h        0.804     0.346     0.597     1.213
    76   8 o        1.608    -0.682    27.242     7.044
    77   1 h        0.804     0.341     0.609     1.226
    78   1 h        0.804     0.343     0.605     1.222
    79   8 o        1.608    -0.687    27.372     7.061
    80   1 h        0.804     0.328     0.642     1.258
    81   1 h        0.803     0.361     0.564     1.180
    82   8 o        1.606    -0.709    27.949     7.135
    83   1 h        0.804     0.346     0.597     1.213
    84   1 h        0.804     0.359     0.567     1.183
    85   8 o        1.606    -0.690    27.458     7.072
    86   1 h        0.802     0.349     0.590     1.207
    87   1 h        0.804     0.343     0.604     1.221
    88   8 o        1.608    -0.672    26.987     7.011
    89   1 h        0.803     0.359     0.567     1.183
    90   1 h        0.805     0.350     0.588     1.205
    91   8 o        1.609    -0.677    27.108     7.027
    92   1 h        0.804     0.340     0.613     1.230
    93   1 h        0.805     0.330     0.639     1.255
    94   8 o        1.610    -0.689    27.415     7.067
    95   1 h        0.804     0.340     0.611     1.228
    96   1 h        0.805     0.352     0.584     1.201
    97   8 o        1.607    -0.688    27.399     7.065
    98   1 h        0.802     0.358     0.571     1.187
    99   1 h        0.805     0.332     0.633     1.250
   100   8 o        1.607    -0.683    27.269     7.048
   101   1 h        0.803     0.367     0.550     1.165
   102   1 h        0.804     0.334     0.628     1.245
   103   8 o        1.607    -0.713    28.067     7.150
   104   1 h        0.804     0.342     0.608     1.225
   105   1 h        0.803     0.351     0.585     1.201
   106   8 o        1.609    -0.667    26.858     6.995
   107   1 h        0.804     0.343     0.604     1.221
   108   1 h        0.805     0.321     0.662     1.278
   109   8 o        1.607    -0.697    27.643     7.096
   110   1 h        0.803     0.351     0.586     1.203
   111   1 h        0.803     0.348     0.593     1.210
   112   8 o        1.607    -0.691    27.471     7.074
   113   1 h        0.804     0.358     0.570     1.186
   114   1 h        0.803     0.345     0.600     1.217
   115   8 o        1.607    -0.686    27.354     7.059
   116   1 h        0.803     0.361     0.563     1.179
   117   1 h        0.804     0.343     0.604     1.220
   118   8 o        1.606    -0.680    27.192     7.038
   119   1 h        0.802     0.362     0.561     1.177
   120   1 h        0.804     0.337     0.619     1.236
   121   8 o        1.607    -0.684    27.286     7.050
   122   1 h        0.805     0.361     0.563     1.178
   123   1 h        0.803     0.338     0.617     1.234
   124   8 o        1.606    -0.704    27.818     7.118
   125   1 h        0.804     0.342     0.608     1.225
   126   1 h        0.803     0.355     0.577     1.193
   127   8 o        1.608    -0.676    27.071     7.022
   128   1 h        0.803     0.339     0.616     1.233
   129   1 h        0.805     0.334     0.626     1.243
   130   8 o        1.608    -0.688    27.391     7.064
   131   1 h        0.805     0.330     0.637     1.253
   132   1 h        0.803     0.343     0.605     1.222
   133   8 o        1.609    -0.674    27.023     7.016
   134   1 h        0.804     0.346     0.598     1.214
   135   1 h        0.805     0.315     0.678     1.293
   136   8 o        1.608    -0.678    27.125     7.029
   137   1 h        0.805     0.328     0.642     1.258
   138   1 h        0.803     0.340     0.613     1.230
   139   8 o        1.605    -0.708    27.925     7.132
   140   1 h        0.802     0.361     0.562     1.178
   141   1 h        0.803     0.360     0.565     1.181
   142   8 o        1.609    -0.658    26.610     6.962
   143   1 h        0.804     0.314     0.680     1.296
   144   1 h        0.804     0.339     0.615     1.232
   145   8 o        1.607    -0.685    27.314     7.054
   146   1 h        0.803     0.328     0.643     1.259
   147   1 h        0.804     0.360     0.566     1.182
   148   8 o        1.606    -0.694    27.554     7.084
   149   1 h        0.802     0.360     0.566     1.182
   150   1 h        0.804     0.339     0.614     1.231
   151   8 o        1.608    -0.686    27.345     7.058
   152   1 h        0.803     0.348     0.593     1.210
   153   1 h        0.804     0.345     0.600     1.217
   154   8 o        1.609    -0.667    26.847     6.993
   155   1 h        0.805     0.363     0.559     1.175
   156   1 h        0.804     0.349     0.591     1.208
   157   8 o        1.607    -0.693    27.516     7.080
   158   1 h        0.802     0.366     0.553     1.168
   159   1 h        0.805     0.329     0.639     1.256
   160   8 o        1.608    -0.674    27.032     7.017
   161   1 h        0.803     0.338     0.618     1.235
   162   1 h        0.805     0.364     0.556     1.172
   163   8 o        1.608    -0.698    27.662     7.098
   164   1 h        0.804     0.329     0.640     1.256
   165   1 h        0.804     0.354     0.578     1.195
   166   8 o        1.607    -0.699    27.676     7.100
   167   1 h        0.803     0.366     0.553     1.168
   168   1 h        0.805     0.336     0.622     1.239
   169   8 o        1.607    -0.680    27.175     7.036
   170   1 h        0.804     0.334     0.626     1.243
   171   1 h        0.803     0.344     0.603     1.220
   172   8 o        1.605    -0.713    28.068     7.150
   173   1 h        0.802     0.360     0.566     1.182
   174   1 h        0.803     0.353     0.581     1.197
   175   8 o        1.609    -0.676    27.080     7.023
   176   1 h        0.805     0.340     0.611     1.228
   177   1 h        0.804     0.339     0.615     1.232
   178   8 o        1.607    -0.672    26.981     7.010
   179   1 h        0.802     0.341     0.609     1.226
   180   1 h        0.805     0.327     0.646     1.262
   181   8 o        1.607    -0.681    27.216     7.041
   182   1 h        0.803     0.356     0.574     1.190
   183   1 h        0.804     0.331     0.634     1.251
   184   8 o        1.606    -0.664    26.770     6.983
   185   1 h        0.803     0.341     0.611     1.228
   186   1 h        0.803     0.338     0.617     1.234
   187   8 o        1.609    -0.660    26.674     6.971
   188   1 h        0.803     0.364     0.558     1.173
   189   1 h        0.806     0.313     0.684     1.299
   190   8 o        1.609    -0.676    27.073     7.023
   191   1 h        0.805     0.337     0.619     1.236
   192   1 h        0.804     0.344     0.603     1.220
   193   8 o        1.609    -0.664    26.770     6.983
   194   1 h        0.804     0.330     0.637     1.254
   195   1 h        0.804     0.338     0.617     1.234
   196   8 o        1.607    -0.685    27.312     7.053
   197   1 h        0.803     0.347     0.596     1.212
   198   1 h        0.804     0.340     0.611     1.228
   199   8 o        1.608    -0.676    27.084     7.024
   200   1 h        0.804     0.343     0.606     1.223
   201   1 h        0.803     0.338     0.618     1.235
   202   8 o        1.608    -0.696    27.611     7.092
   203   1 h        0.803     0.350     0.587     1.204
   204   1 h        0.805     0.349     0.592     1.208
   205   8 o        1.608    -0.658    26.631     6.965
   206   1 h        0.803     0.332     0.632     1.249
   207   1 h        0.804     0.331     0.636     1.253
   208   8 o        1.607    -0.663    26.746     6.980
   209   1 h        0.806     0.312     0.685     1.300
   210   1 h        0.802     0.358     0.569     1.185
   211   8 o        1.608    -0.689    27.410     7.066
   212   1 h        0.804     0.349     0.590     1.207
   213   1 h        0.804     0.362     0.561     1.177
   214   8 o        1.607    -0.703    27.805     7.117
   215   1 h        0.803     0.351     0.586     1.202
   216   1 h        0.804     0.343     0.605     1.222
   217   8 o        1.610    -0.652    26.466     6.943
   218   1 h        0.804     0.353     0.581     1.198
   219   1 h        0.805     0.308     0.697     1.311
   220   8 o        1.609    -0.694    27.549     7.084
   221   1 h        0.805     0.349     0.590     1.206
   222   1 h        0.805     0.329     0.641     1.258
   223   8 o        1.607    -0.664    26.765     6.982
   224   1 h        0.802     0.342     0.609     1.226
   225   1 h        0.805     0.349     0.590     1.206
   226   8 o        1.605    -0.680    27.194     7.038
   227   1 h        0.803     0.354     0.580     1.196
   228   1 h        0.802     0.331     0.634     1.251
   229   8 o        1.609    -0.650    26.412     6.936
   230   1 h        0.805     0.328     0.643     1.260
   231   1 h        0.804     0.335     0.625     1.242
   232   8 o        1.608    -0.681    27.198     7.039
   233   1 h        0.804     0.330     0.636     1.253
   234   1 h        0.805     0.339     0.616     1.232
   235   8 o        1.606    -0.686    27.345     7.058
   236   1 h        0.803     0.334     0.628     1.245
   237   1 h        0.803     0.354     0.580     1.196
   238   8 o        1.606    -0.655    26.555     6.955
   239   1 h        0.804     0.324     0.652     1.268
   240   1 h        0.802     0.332     0.633     1.250
   241   8 o        1.609    -0.664    26.760     6.982
   242   1 h        0.804     0.344     0.603     1.220
   243   1 h        0.805     0.325     0.651     1.268
   244   8 o        1.608    -0.687    27.376     7.062
   245   1 h        0.805     0.330     0.638     1.255
   246   1 h        0.803     0.343     0.605     1.221
   247   8 o        1.607    -0.673    27.001     7.013
   248   1 h        0.803     0.325     0.651     1.267
   249   1 h        0.804     0.351     0.586     1.203
   250   8 o        1.608    -0.697    27.637     7.095
   251   1 h        0.803     0.346     0.597     1.214
   252   1 h        0.804     0.326     0.648     1.264
   253   8 o        1.608    -0.685    27.328     7.055
   254   1 h        0.804     0.356     0.574     1.190
   255   1 h        0.804     0.321     0.661     1.277
   256   8 o        1.608    -0.702    27.760     7.111
   257   1 h        0.803     0.353     0.581     1.198
   258   1 h        0.805     0.346     0.597     1.214
   259   8 o        1.607    -0.683    27.263     7.047
   260   1 h        0.803     0.326     0.648     1.265
   261   1 h        0.803     0.356     0.575     1.191
   262   8 o        1.609    -0.663    26.734     6.978
   263   1 h        0.805     0.331     0.634     1.251
   264   1 h        0.804     0.340     0.613     1.230
   265   8 o        1.609    -0.663    26.739     6.979
   266   1 h        0.804     0.362     0.560     1.175
   267   1 h        0.805     0.317     0.673     1.288
   268   8 o        1.609    -0.678    27.134     7.030
   269   1 h        0.805     0.326     0.648     1.265
   270   1 h        0.805     0.342     0.606     1.223
   271   8 o        1.606    -0.678    27.127     7.029
   272   1 h        0.803     0.318     0.668     1.284
   273   1 h        0.803     0.346     0.599     1.216
   274   8 o        1.609    -0.675    27.064     7.021
   275   1 h        0.804     0.327     0.645     1.262
   276   1 h        0.805     0.324     0.654     1.271
   277   8 o        1.608    -0.682    27.230     7.043
   278   1 h        0.804     0.349     0.590     1.207
   279   1 h        0.804     0.336     0.623     1.240
   280   8 o        1.607    -0.676    27.088     7.024
   281   1 h        0.803     0.333     0.630     1.247
   282   1 h        0.804     0.329     0.640     1.257
   283   8 o        1.607    -0.685    27.316     7.054
   284   1 h        0.803     0.348     0.592     1.209
   285   1 h        0.804     0.322     0.657     1.273
   286   8 o        1.609    -0.673    27.003     7.013
   287   1 h        0.805     0.353     0.580     1.197
   288   1 h        0.804     0.350     0.589     1.205
   289   8 o        1.609    -0.660    26.661     6.969
   290   1 h        0.804     0.358     0.570     1.186
   291   1 h        0.804     0.329     0.640     1.257
   292   8 o        1.606    -0.696    27.599     7.090
   293   1 h        0.805     0.320     0.665     1.281
   294   1 h        0.802     0.367     0.550     1.165
   295   8 o        1.606    -0.665    26.798     6.987
   296   1 h        0.802     0.340     0.612     1.229
   297   1 h        0.805     0.320     0.665     1.281
   298   8 o        1.607    -0.700    27.721     7.106
   299   1 h        0.804     0.347     0.595     1.211
   300   1 h        0.803     0.342     0.608     1.225
   301   8 o        1.604    -0.703    27.804     7.116
   302   1 h        0.802     0.352     0.584     1.201
   303   1 h        0.803     0.343     0.605     1.222
   304   8 o        1.608    -0.681    27.207     7.040
   305   1 h        0.805     0.333     0.630     1.247
   306   1 h        0.803     0.345     0.600     1.217
   307   8 o        1.607    -0.676    27.078     7.023
   308   1 h        0.803     0.354     0.580     1.196
   309   1 h        0.805     0.338     0.618     1.235
   310   8 o        1.609    -0.655    26.530     6.952
   311   1 h        0.804     0.331     0.634     1.251
   312   1 h        0.805     0.330     0.636     1.253
   313   8 o        1.608    -0.666    26.829     6.991
   314   1 h        0.803     0.357     0.571     1.187
   315   1 h        0.806     0.315     0.678     1.294
   316   8 o        1.608    -0.657    26.590     6.959
   317   1 h        0.803     0.350     0.587     1.204
   318   1 h        0.805     0.325     0.649     1.266
   319   8 o        1.604    -0.720    28.245     7.173
   320   1 h        0.802     0.355     0.578     1.194
   321   1 h        0.803     0.351     0.586     1.202
   322   8 o        1.609    -0.686    27.341     7.057
   323   1 h        0.804     0.347     0.596     1.213
   324   1 h        0.804     0.343     0.604     1.221
   325   8 o        1.608    -0.659    26.640     6.966
   326   1 h        0.805     0.312     0.687     1.302
   327   1 h        0.803     0.331     0.635     1.251
   328   8 o        1.606    -0.711    27.993     7.141
   329   1 h        0.804     0.358     0.571     1.187
   330   1 h        0.803     0.336     0.621     1.238
   331   8 o        1.605    -0.677    27.117     7.028
   332   1 h        0.804     0.323     0.655     1.271
   333   1 h        0.802     0.337     0.620     1.237
   334   8 o        1.608    -0.682    27.242     7.044
   335   1 h        0.803     0.336     0.622     1.239
   336   1 h        0.803     0.351     0.586     1.203
   337   8 o        1.609    -0.671    26.948     7.006
   338   1 h        0.804     0.351     0.586     1.203
   339   1 h        0.805     0.327     0.644     1.261
   340   8 o        1.608    -0.685    27.310     7.053
   341   1 h        0.804     0.334     0.627     1.243
   342   1 h        0.804     0.347     0.595     1.212
   343   8 o        1.606    -0.701    27.746     7.109
   344   1 h        0.803     0.333     0.630     1.247
   345   1 h        0.803     0.365     0.555     1.171
   346   8 o        1.609    -0.662    26.721     6.977
   347   1 h        0.804     0.353     0.582     1.198
   348   1 h        0.804     0.350     0.588     1.204
   349   8 o        1.606    -0.686    27.347     7.058
   350   1 h        0.802     0.364     0.558     1.174
   351   1 h        0.805     0.323     0.655     1.271
   352   8 o        1.607    -0.676    27.069     7.022
   353   1 h        0.803     0.340     0.611     1.228
   354   1 h        0.804     0.336     0.623     1.240
   355   8 o        1.606    -0.668    26.873     6.996
   356   1 h        0.803     0.322     0.659     1.275
   357   1 h        0.803     0.338     0.617     1.234
   358   8 o        1.607    -0.669    26.902     7.000
   359   1 h        0.804     0.335     0.626     1.242
   360   1 h        0.803     0.356     0.575     1.191
   361   8 o        1.608    -0.686    27.328     7.055
   362   1 h        0.804     0.340     0.613     1.230
   363   1 h        0.804     0.334     0.628     1.245
   364   8 o        1.607    -0.670    26.919     7.002
   365   1 h        0.803     0.351     0.585     1.202
   366   1 h        0.804     0.330     0.637     1.254
   367   8 o        1.607    -0.683    27.275     7.049
   368   1 h        0.802     0.362     0.560     1.176
   369   1 h        0.806     0.310     0.691     1.306
   370   8 o        1.606    -0.701    27.745     7.109
   371   1 h        0.803     0.363     0.560     1.175
   372   1 h        0.803     0.335     0.626     1.243
   373   8 o        1.606    -0.673    27.006     7.014
   374   1 h        0.802     0.341     0.611     1.228
   375   1 h        0.805     0.318     0.668     1.284
   376   8 o        1.607    -0.691    27.473     7.074
   377   1 h        0.803     0.359     0.568     1.184
   378   1 h        0.804     0.346     0.598     1.215
   379   8 o        1.605    -0.692    27.493     7.077
   380   1 h        0.803     0.343     0.605     1.222
   381   1 h        0.803     0.330     0.639     1.256
   382   8 o        1.609    -0.658    26.618     6.963
   383   1 h        0.804     0.338     0.618     1.235
   384   1 h        0.805     0.329     0.639     1.256
   385   8 o        1.608    -0.703    27.800     7.116
   386   1 h        0.804     0.355     0.577     1.193
   387   1 h        0.804     0.342     0.608     1.225
   388   8 o        1.609    -0.665    26.806     6.988
   389   1 h        0.805     0.324     0.652     1.268
   390   1 h        0.804     0.339     0.614     1.231
   391   8 o        1.605    -0.691    27.472     7.074
   392   1 h        0.803     0.359     0.569     1.185
   393   1 h        0.802     0.327     0.646     1.263
   394   8 o        1.608    -0.686    27.353     7.059
   395   1 h        0.804     0.356     0.575     1.191
   396   1 h        0.804     0.334     0.628     1.245
   397   8 o        1.607    -0.701    27.741     7.109
   398   1 h        0.804     0.352     0.583     1.199
   399   1 h        0.803     0.353     0.581     1.198
   400   8 o        1.608    -0.651    26.434     6.939
   401   1 h        0.805     0.327     0.645     1.262
   402   1 h        0.803     0.341     0.611     1.227
   403   8 o        1.607    -0.669    26.911     7.001
   404   1 h        0.805     0.310     0.691     1.305
   405   1 h        0.802     0.372     0.539     1.154
   406   8 o        1.608    -0.687    27.379     7.062
   407   1 h        0.803     0.340     0.612     1.229
   408   1 h        0.804     0.330     0.638     1.254
   409   8 o        1.607    -0.682    27.248     7.045
   410   1 h        0.805     0.329     0.641     1.257
   411   1 h        0.802     0.368     0.548     1.163
   412   8 o        1.608    -0.675    27.052     7.020
   413   1 h        0.804     0.362     0.562     1.177
   414   1 h        0.804     0.336     0.623     1.240
   415   8 o        1.606    -0.697    27.640     7.096
   416   1 h        0.802     0.357     0.572     1.188
   417   1 h        0.803     0.323     0.656     1.272
   418   8 o        1.607    -0.682    27.243     7.044
   419   1 h        0.803     0.345     0.601     1.217
   420   1 h        0.804     0.329     0.639     1.255
   421   8 o        1.608    -0.675    27.046     7.019
   422   1 h        0.804     0.328     0.643     1.260
   423   1 h        0.804     0.338     0.618     1.235
   424   8 o        1.607    -0.677    27.100     7.026
   425   1 h        0.803     0.324     0.653     1.270
   426   1 h        0.804     0.335     0.624     1.241
   427   8 o        1.605    -0.713    28.059     7.149
   428   1 h        0.804     0.355     0.577     1.193
   429   1 h        0.802     0.361     0.564     1.180
   430   8 o        1.608    -0.686    27.335     7.056
   431   1 h        0.803     0.354     0.579     1.195
   432   1 h        0.804     0.351     0.587     1.203
   433   8 o        1.608    -0.666    26.815     6.989
   434   1 h        0.803     0.337     0.619     1.236
   435   1 h        0.805     0.318     0.670     1.285
   436   8 o        1.606    -0.721    28.273     7.176
   437   1 h        0.803     0.356     0.573     1.190
   438   1 h        0.804     0.349     0.591     1.208
   439   8 o        1.607    -0.685    27.305     7.052
   440   1 h        0.803     0.360     0.565     1.180
   441   1 h        0.804     0.328     0.642     1.259
   442   8 o        1.606    -0.676    27.081     7.023
   443   1 h        0.804     0.328     0.642     1.258
   444   1 h        0.802     0.338     0.618     1.235
   445   8 o        1.606    -0.701    27.728     7.107
   446   1 h        0.803     0.339     0.614     1.231
   447   1 h        0.803     0.340     0.613     1.230
   448   8 o        1.609    -0.672    26.973     7.010
   449   1 h        0.804     0.358     0.570     1.186
   450   1 h        0.805     0.329     0.639     1.255
   451   8 o        1.610    -0.685    27.302     7.052
   452   1 h        0.805     0.350     0.587     1.204
   453   1 h        0.804     0.335     0.625     1.242
   454   8 o        1.606    -0.688    27.400     7.065
   455   1 h        0.802     0.365     0.555     1.171
   456   1 h        0.804     0.325     0.652     1.268
   457   8 o        1.608    -0.692    27.502     7.078
   458   1 h        0.803     0.346     0.598     1.215
   459   1 h        0.804     0.355     0.576     1.192
   460   8 o        1.608    -0.688    27.383     7.062
   461   1 h        0.804     0.328     0.643     1.260
   462   1 h        0.804     0.341     0.609     1.226
   463   8 o        1.607    -0.680    27.191     7.038
   464   1 h        0.805     0.315     0.678     1.293
   465   1 h        0.802     0.355     0.577     1.193
   466   8 o        1.608    -0.666    26.831     6.991
   467   1 h        0.805     0.335     0.624     1.240
   468   1 h        0.803     0.348     0.593     1.209
   469   8 o        1.609    -0.666    26.815     6.989
   470   1 h        0.805     0.331     0.635     1.252
   471   1 h        0.804     0.353     0.582     1.198
   472   8 o        1.608    -0.684    27.285     7.050
   473   1 h        0.804     0.328     0.642     1.259
   474   1 h        0.804     0.338     0.618     1.234
   475   8 o        1.608    -0.672    26.986     7.011
   476   1 h        0.803     0.354     0.578     1.195
   477   1 h        0.805     0.328     0.643     1.260
   478   8 o        1.607    -0.692    27.498     7.077
   479   1 h        0.802     0.341     0.610     1.227
   480   1 h        0.804     0.327     0.645     1.261
   481   8 o        1.607    -0.671    26.952     7.007
   482   1 h        0.803     0.340     0.614     1.231
   483   1 h        0.803     0.332     0.633     1.250
   484   8 o        1.606    -0.679    27.157     7.033
   485   1 h        0.802     0.376     0.532     1.146
   486   1 h        0.805     0.312     0.686     1.300
   487   8 o        1.609    -0.681    27.206     7.040
   488   1 h        0.804     0.358     0.570     1.186
   489   1 h        0.805     0.331     0.636     1.253
   490   8 o        1.607    -0.675    27.048     7.019
   491   1 h        0.803     0.352     0.584     1.201
   492   1 h        0.804     0.327     0.644     1.261
   493   8 o        1.607    -0.672    26.965     7.008
   494   1 h        0.804     0.321     0.662     1.278
   495   1 h        0.803     0.351     0.587     1.204
   496   8 o        1.608    -0.691    27.474     7.074
   497   1 h        0.804     0.360     0.565     1.181
   498   1 h        0.804     0.348     0.593     1.210
   499   8 o        1.609    -0.688    27.398     7.064
   500   1 h        0.804     0.345     0.600     1.217
   501   1 h        0.804     0.327     0.646     1.263
   502   8 o        1.606    -0.702    27.778     7.113
   503   1 h        0.803     0.328     0.642     1.259
   504   1 h        0.803     0.349     0.592     1.209
   505   8 o        1.609    -0.665    26.805     6.988
   506   1 h        0.806     0.318     0.669     1.285
   507   1 h        0.804     0.354     0.579     1.195
   508   8 o        1.606    -0.708    27.923     7.132
   509   1 h        0.804     0.324     0.652     1.269
   510   1 h        0.803     0.350     0.589     1.205
   511   8 o        1.606    -0.691    27.478     7.075
   512   1 h        0.804     0.321     0.660     1.276
   513   1 h        0.803     0.348     0.593     1.210
   514   8 o        1.609    -0.677    27.106     7.027
   515   1 h        0.805     0.312     0.685     1.300
   516   1 h        0.804     0.338     0.616     1.233
   517   8 o        1.608    -0.675    27.044     7.019
   518   1 h        0.803     0.362     0.562     1.177
   519   1 h        0.804     0.317     0.673     1.289
   520   8 o        1.608    -0.662    26.720     6.977
   521   1 h        0.803     0.357     0.573     1.189
   522   1 h        0.806     0.312     0.686     1.301
   523   8 o        1.608    -0.668    26.882     6.998
   524   1 h        0.805     0.329     0.641     1.257
   525   1 h        0.803     0.338     0.618     1.235
   526   8 o        1.608    -0.691    27.471     7.074
   527   1 h        0.804     0.335     0.624     1.241
   528   1 h        0.804     0.341     0.610     1.227
   529   8 o        1.608    -0.685    27.314     7.054
   530   1 h        0.803     0.370     0.543     1.157
   531   1 h        0.804     0.332     0.631     1.248
   532   8 o        1.605    -0.690    27.457     7.072
   533   1 h        0.802     0.326     0.648     1.265
   534   1 h        0.804     0.341     0.609     1.226
   535   8 o        1.608    -0.691    27.478     7.075
   536   1 h        0.804     0.340     0.613     1.229
   537   1 h        0.804     0.329     0.641     1.258
   538   8 o        1.607    -0.687    27.359     7.059
   539   1 h        0.805     0.315     0.677     1.292
   540   1 h        0.802     0.361     0.565     1.180
   541   8 o        1.606    -0.679    27.163     7.034
   542   1 h        0.803     0.341     0.610     1.227
   543   1 h        0.804     0.324     0.653     1.269
   544   8 o        1.607    -0.702    27.769     7.112
   545   1 h        0.803     0.338     0.616     1.233
   546   1 h        0.804     0.357     0.573     1.189
   547   8 o        1.606    -0.671    26.947     7.006
   548   1 h        0.802     0.353     0.581     1.197
   549   1 h        0.806     0.316     0.675     1.291
   550   8 o        1.609    -0.658    26.629     6.965
   551   1 h        0.804     0.339     0.614     1.231
   552   1 h        0.805     0.333     0.631     1.248
   553   8 o        1.609    -0.678    27.127     7.030
   554   1 h        0.804     0.345     0.599     1.216
   555   1 h        0.805     0.337     0.621     1.237
   556   8 o        1.608    -0.690    27.444     7.070
   557   1 h        0.803     0.333     0.629     1.246
   558   1 h        0.804     0.338     0.618     1.235
   559   8 o        1.609    -0.673    27.013     7.015
   560   1 h        0.804     0.335     0.624     1.241
   561   1 h        0.804     0.339     0.613     1.230
   562   8 o        1.607    -0.696    27.607     7.091
   563   1 h        0.804     0.339     0.615     1.232
   564   1 h        0.803     0.336     0.622     1.239
   565   8 o        1.607    -0.690    27.441     7.070
   566   1 h        0.804     0.337     0.619     1.236
   567   1 h        0.803     0.340     0.613     1.230
   568   8 o        1.607    -0.679    27.152     7.033
   569   1 h        0.803     0.330     0.639     1.256
   570   1 h        0.804     0.355     0.576     1.192
   571   8 o        1.609    -0.676    27.069     7.022
   572   1 h        0.805     0.319     0.667     1.283
   573   1 h        0.803     0.354     0.579     1.195
   574   8 o        1.609    -0.672    26.984     7.011
   575   1 h        0.805     0.338     0.617     1.234
   576   1 h        0.805     0.330     0.638     1.254
   577   8 o        1.609    -0.677    27.103     7.026
   578   1 h        0.804     0.328     0.642     1.258
   579   1 h        0.805     0.342     0.607     1.223
   580   8 o        1.607    -0.660    26.666     6.969
   581   1 h        0.803     0.333     0.630     1.246
   582   1 h        0.804     0.327     0.644     1.261
   583   8 o        1.608    -0.692    27.489     7.076
   584   1 h        0.804     0.347     0.595     1.212
   585   1 h        0.804     0.334     0.627     1.244
   586   8 o        1.608    -0.681    27.206     7.040
   587   1 h        0.804     0.327     0.644     1.261
   588   1 h        0.804     0.342     0.606     1.223
   589   8 o        1.608    -0.681    27.200     7.039
   590   1 h        0.805     0.312     0.686     1.301
   591   1 h        0.802     0.363     0.558     1.173
   592   8 o        1.608    -0.677    27.102     7.026
   593   1 h        0.802     0.355     0.577     1.193
   594   1 h        0.805     0.318     0.668     1.284
   595   8 o        1.608    -0.653    26.499     6.948
   596   1 h        0.806     0.312     0.686     1.301
   597   1 h        0.802     0.360     0.566     1.182
   598   8 o        1.606    -0.694    27.545     7.083
   599   1 h        0.804     0.342     0.608     1.225
   600   1 h        0.802     0.369     0.547     1.162
   601   8 o        1.608    -0.672    26.966     7.009
   602   1 h        0.805     0.335     0.625     1.242
   603   1 h        0.804     0.336     0.623     1.240
   604   8 o        1.608    -0.651    26.444     6.940
   605   1 h        0.803     0.352     0.583     1.199
   606   1 h        0.806     0.317     0.671     1.287
   607   8 o        1.607    -0.672    26.982     7.011
   608   1 h        0.804     0.337     0.620     1.237
   609   1 h        0.803     0.339     0.616     1.233
   610   8 o        1.608    -0.665    26.786     6.985
   611   1 h        0.806     0.310     0.691     1.306
   612   1 h        0.803     0.369     0.546     1.161
   613   8 o        1.610    -0.673    26.998     7.013
   614   1 h        0.805     0.331     0.634     1.251
   615   1 h        0.805     0.334     0.628     1.245
   616   8 o        1.609    -0.681    27.221     7.042
   617   1 h        0.804     0.330     0.637     1.254
   618   1 h        0.804     0.335     0.624     1.241
   619   8 o        1.607    -0.695    27.581     7.088
   620   1 h        0.804     0.364     0.557     1.172
   621   1 h        0.804     0.343     0.604     1.221
   622   8 o        1.607    -0.680    27.175     7.036
   623   1 h        0.803     0.349     0.591     1.207
   624   1 h        0.804     0.331     0.635     1.251
   625   8 o        1.609    -0.682    27.245     7.045
   626   1 h        0.804     0.344     0.603     1.220
   627   1 h        0.805     0.337     0.619     1.236
   628   8 o        1.608    -0.676    27.089     7.025
   629   1 h        0.804     0.350     0.589     1.205
   630   1 h        0.804     0.326     0.648     1.264
   631   8 o        1.608    -0.691    27.465     7.073
   632   1 h        0.804     0.349     0.590     1.206
   633   1 h        0.804     0.333     0.629     1.246
   634   8 o        1.609    -0.671    26.948     7.006
   635   1 h        0.805     0.324     0.654     1.270
   636   1 h        0.804     0.343     0.605     1.221
   637   8 o        1.606    -0.712    28.024     7.145
   638   1 h        0.803     0.341     0.611     1.228
   639   1 h        0.802     0.362     0.561     1.177
   640   8 o        1.608    -0.676    27.089     7.025
   641   1 h        0.805     0.313     0.684     1.299
   642   1 h        0.802     0.359     0.569     1.185
   643   8 o        1.608    -0.671    26.947     7.006
   644   1 h        0.803     0.364     0.558     1.173
   645   1 h        0.806     0.309     0.694     1.309
   646   8 o        1.608    -0.681    27.213     7.041
   647   1 h        0.804     0.333     0.629     1.246
   648   1 h        0.804     0.342     0.608     1.225
   649   8 o        1.609    -0.638    26.103     6.896
   650   1 h        0.805     0.319     0.665     1.281
   651   1 h        0.804     0.347     0.596     1.213
   652   8 o        1.607    -0.693    27.513     7.079
   653   1 h        0.803     0.355     0.577     1.193
   654   1 h        0.804     0.336     0.623     1.240
   655   8 o        1.609    -0.671    26.939     7.005
   656   1 h        0.803     0.338     0.618     1.235
   657   1 h        0.805     0.335     0.624     1.241
   658   8 o        1.607    -0.692    27.495     7.077
   659   1 h        0.804     0.331     0.633     1.250
   660   1 h        0.803     0.363     0.559     1.174
   661   8 o        1.608    -0.698    27.646     7.096
   662   1 h        0.804     0.340     0.611     1.228
   663   1 h        0.804     0.340     0.613     1.229
   664   8 o        1.608    -0.682    27.238     7.044
   665   1 h        0.804     0.340     0.612     1.229
   666   1 h        0.804     0.358     0.570     1.186
   667   8 o        1.607    -0.688    27.398     7.064
   668   1 h        0.803     0.363     0.558     1.174
   669   1 h        0.805     0.324     0.654     1.270
   670   8 o        1.609    -0.658    26.616     6.963
   671   1 h        0.803     0.346     0.597     1.214
   672   1 h        0.806     0.307     0.700     1.314
   673   8 o        1.607    -0.688    27.400     7.065
   674   1 h        0.803     0.346     0.598     1.215
   675   1 h        0.804     0.340     0.612     1.229
   676   8 o        1.608    -0.684    27.292     7.051
   677   1 h        0.804     0.352     0.584     1.200
   678   1 h        0.804     0.338     0.617     1.234
   679   8 o        1.607    -0.673    27.014     7.015
   680   1 h        0.803     0.342     0.609     1.226
   681   1 h        0.804     0.342     0.608     1.225
   682   8 o        1.607    -0.675    27.054     7.020
   683   1 h        0.802     0.343     0.604     1.221
   684   1 h        0.805     0.326     0.647     1.263
   685   8 o        1.609    -0.652    26.470     6.944
   686   1 h        0.805     0.336     0.623     1.240
   687   1 h        0.804     0.328     0.643     1.260
   688   8 o        1.608    -0.683    27.274     7.048
   689   1 h        0.804     0.358     0.570     1.186
   690   1 h        0.804     0.329     0.639     1.256
   691   8 o        1.607    -0.697    27.626     7.094
   692   1 h        0.803     0.345     0.601     1.218
   693   1 h        0.804     0.321     0.661     1.277
   694   8 o        1.610    -0.664    26.767     6.983
   695   1 h        0.804     0.343     0.605     1.221
   696   1 h        0.805     0.328     0.643     1.260
   697   8 o        1.609    -0.671    26.962     7.008
   698   1 h        0.803     0.350     0.588     1.205
   699   1 h        0.805     0.317     0.672     1.288
   700   8 o        1.609    -0.653    26.480     6.945
   701   1 h        0.804     0.335     0.625     1.242
   702   1 h        0.805     0.324     0.652     1.268
   703   8 o        1.610    -0.661    26.698     6.974
   704   1 h        0.805     0.334     0.628     1.245
   705   1 h        0.804     0.344     0.603     1.220
   706   8 o        1.608    -0.666    26.835     6.991
   707   1 h        0.805     0.328     0.643     1.259
   708   1 h        0.803     0.345     0.600     1.216
   709   8 o        1.605    -0.719    28.234     7.171
   710   1 h        0.802     0.352     0.584     1.201
   711   1 h        0.803     0.341     0.609     1.226
   712   8 o        1.609    -0.655    26.553     6.955
   713   1 h        0.804     0.326     0.649     1.265
   714   1 h        0.804     0.356     0.575     1.191
   715   8 o        1.608    -0.663    26.739     6.979
   716   1 h        0.804     0.327     0.646     1.263
   717   1 h        0.804     0.350     0.588     1.205
   718   8 o        1.608    -0.680    27.173     7.035
   719   1 h        0.804     0.326     0.647     1.264
   720   1 h        0.804     0.330     0.637     1.254
   721   8 o        1.605    -0.679    27.168     7.035
   722   1 h        0.806     0.307     0.699     1.313
   723   1 h        0.801     0.353     0.581     1.197
   724   8 o        1.605    -0.690    27.442     7.070
   725   1 h        0.802     0.328     0.642     1.259
   726   1 h        0.803     0.350     0.588     1.204
   727   8 o        1.607    -0.690    27.450     7.071
   728   1 h        0.803     0.359     0.567     1.183
   729   1 h        0.804     0.324     0.654     1.270
   730   8 o        1.610    -0.661    26.701     6.974
   731   1 h        0.804     0.348     0.593     1.209
   732   1 h        0.806     0.317     0.672     1.287
   733   8 o        1.608    -0.689    27.419     7.067
   734   1 h        0.803     0.346     0.598     1.215
   735   1 h        0.804     0.337     0.620     1.237
   736   8 o        1.609    -0.659    26.641     6.966
   737   1 h        0.805     0.329     0.640     1.256
   738   1 h        0.804     0.331     0.635     1.252
   739   8 o        1.608    -0.680    27.182     7.037
   740   1 h        0.804     0.349     0.592     1.208
   741   1 h        0.804     0.319     0.666     1.282
   742   8 o        1.608    -0.675    27.046     7.019
   743   1 h        0.802     0.366     0.552     1.167
   744   1 h        0.805     0.320     0.664     1.280
   745   8 o        1.606    -0.693    27.515     7.079
   746   1 h        0.805     0.313     0.684     1.299
   747   1 h        0.801     0.371     0.542     1.157
   748   8 o        1.608    -0.699    27.687     7.102
   749   1 h        0.804     0.324     0.652     1.268
   750   1 h        0.803     0.355     0.576     1.192
   751   8 o        1.610    -0.646    26.304     6.922
   752   1 h        0.805     0.332     0.631     1.248
   753   1 h        0.805     0.331     0.634     1.251
   754   8 o        1.613    -0.655    26.540     6.953
   755   1 h        0.805     0.349     0.591     1.208
   756   1 h        0.804     0.357     0.573     1.189

 Mol. C6AA /au·bohr⁶  :    2900949.963262
 Mol. C8AA /au·bohr⁸  :   52647652.534434
 Mol. α(0) /au        :       2393.529280


Wiberg/Mayer (AO) data.
largest (>0.10) Wiberg bond orders for each atom

 ---------------------------------------------------------------------------
     #   Z sym  total        # sym  WBO       # sym  WBO       # sym  WBO
 ---------------------------------------------------------------------------
     1   8 o    1.830 --     2 h    0.803     3 h    0.785
     2   1 h    0.892 --     1 o    0.803
     3   1 h    0.875 --     1 o    0.785
     4   8 o    1.864 --     6 h    0.807     5 h    0.798
     5   1 h    0.875 --     4 o    0.798
     6   1 h    0.877 --     4 o    0.807
     7   8 o    1.848 --     9 h    0.811     8 h    0.799
     8   1 h    0.874 --     7 o    0.799
     9   1 h    0.873 --     7 o    0.811
    10   8 o    1.873 --    11 h    0.838    12 h    0.793
    11   1 h    0.873 --    10 o    0.838
    12   1 h    0.869 --    10 o    0.793
    13   8 o    1.847 --    15 h    0.856    14 h    0.804
    14   1 h    0.876 --    13 o    0.804
    15   1 h    0.884 --    13 o    0.856
    16   8 o    1.828 --    17 h    0.835    18 h    0.808
    17   1 h    0.889 --    16 o    0.835
    18   1 h    0.871 --    16 o    0.808
    19   8 o    1.882 --    20 h    0.797    21 h    0.794
    20   1 h    0.871 --    19 o    0.797
    21   1 h    0.870 --    19 o    0.794
    22   8 o    1.809 --    23 h    0.855    24 h    0.815
    23   1 h    0.890 --    22 o    0.855
    24   1 h    0.883 --    22 o    0.815
    25   8 o    1.883 --    27 h    0.793    26 h    0.787
    26   1 h    0.871 --    25 o    0.787
    27   1 h    0.871 --    25 o    0.793
    28   8 o    1.814 --    29 h    0.841    30 h    0.795
    29   1 h    0.884 --    28 o    0.841
    30   1 h    0.883 --    28 o    0.795
    31   8 o    1.828 --    32 h    0.819    33 h    0.810
    32   1 h    0.879 --    31 o    0.819
    33   1 h    0.882 --    31 o    0.810
    34   8 o    1.808 --    36 h    0.867    35 h    0.809
    35   1 h    0.879 --    34 o    0.809
    36   1 h    0.891 --    34 o    0.867
    37   8 o    1.869 --    38 h    0.833    39 h    0.824
    38   1 h    0.890 --    37 o    0.833
    39   1 h    0.884 --    37 o    0.824
    40   8 o    1.853 --    42 h    0.828    41 h    0.810
    41   1 h    0.878 --    40 o    0.810
    42   1 h    0.886 --    40 o    0.828
    43   8 o    1.870 --    45 h    0.821    44 h    0.805
    44   1 h    0.878 --    43 o    0.805
    45   1 h    0.886 --    43 o    0.821
    46   8 o    1.860 --    48 h    0.802    47 h    0.793
    47   1 h    0.882 --    46 o    0.793
    48   1 h    0.866 --    46 o    0.802
    49   8 o    1.861 --    50 h    0.812    51 h    0.787
    50   1 h    0.884 --    49 o    0.812
    51   1 h    0.872 --    49 o    0.787
    52   8 o    1.851 --    53 h    0.829    54 h    0.828
    53   1 h    0.891 --    52 o    0.829
    54   1 h    0.890 --    52 o    0.828
    55   8 o    1.853 --    57 h    0.833    56 h    0.804
    56   1 h    0.876 --    55 o    0.804
    57   1 h    0.889 --    55 o    0.833
    58   8 o    1.857 --    60 h    0.841    59 h    0.829
    59   1 h    0.880 --    58 o    0.829
    60   1 h    0.885 --    58 o    0.841
    61   8 o    1.876 --    63 h    0.807    62 h    0.781
    62   1 h    0.871 --    61 o    0.781
    63   1 h    0.877 --    61 o    0.807
    64   8 o    1.848 --    65 h    0.848    66 h    0.812
    65   1 h    0.892 --    64 o    0.848
    66   1 h    0.871 --    64 o    0.812
    67   8 o    1.834 --    69 h    0.824    68 h    0.786
    68   1 h    0.877 --    67 o    0.786
    69   1 h    0.878 --    67 o    0.824
    70   8 o    1.832 --    71 h    0.843    72 h    0.764
    71   1 h    0.884 --    70 o    0.843
    72   1 h    0.873 --    70 o    0.764
    73   8 o    1.824 --    74 h    0.839    75 h    0.820
    74   1 h    0.886 --    73 o    0.839
    75   1 h    0.880 --    73 o    0.820
    76   8 o    1.847 --    77 h    0.832    78 h    0.824
    77   1 h    0.883 --    76 o    0.832
    78   1 h    0.882 --    76 o    0.824
    79   8 o    1.852 --    80 h    0.842    81 h    0.804
    80   1 h    0.892 --    79 o    0.842
    81   1 h    0.870 --    79 o    0.804
    82   8 o    1.846 --    83 h    0.818    84 h    0.778
    83   1 h    0.880 --    82 o    0.818
    84   1 h    0.871 --    82 o    0.778
    85   8 o    1.868 --    87 h    0.831    86 h    0.795
    86   1 h    0.878 --    85 o    0.795
    87   1 h    0.882 --    85 o    0.831
    88   8 o    1.894 --    90 h    0.840    89 h    0.804
    89   1 h    0.871 --    88 o    0.804
    90   1 h    0.877 --    88 o    0.840
    91   8 o    1.805 --    93 h    0.855    92 h    0.850
    92   1 h    0.885 --    91 o    0.850
    93   1 h    0.891 --    91 o    0.855
    94   8 o    1.832 --    96 h    0.831    95 h    0.824
    95   1 h    0.884 --    94 o    0.824
    96   1 h    0.876 --    94 o    0.831
    97   8 o    1.838 --    99 h    0.874    98 h    0.796
    98   1 h    0.872 --    97 o    0.796
    99   1 h    0.890 --    97 o    0.874
   100   8 o    1.873 --   102 h    0.846   101 h    0.790
   101   1 h    0.865 --   100 o    0.790
   102   1 h    0.889 --   100 o    0.846
   103   8 o    1.822 --   104 h    0.807   105 h    0.802
   104   1 h    0.883 --   103 o    0.807
   105   1 h    0.876 --   103 o    0.802
   106   8 o    1.823 --   108 h    0.859   107 h    0.829
   107   1 h    0.882 --   106 o    0.829
   108   1 h    0.897 --   106 o    0.859
   109   8 o    1.870 --   111 h    0.808   110 h    0.799
   110   1 h    0.877 --   109 o    0.799
   111   1 h    0.879 --   109 o    0.808
   112   8 o    1.846 --   113 h    0.822   114 h    0.814
   113   1 h    0.872 --   112 o    0.822
   114   1 h    0.881 --   112 o    0.814
   115   8 o    1.875 --   117 h    0.829   116 h    0.789
   116   1 h    0.870 --   115 o    0.789
   117   1 h    0.882 --   115 o    0.829
   118   8 o    1.892 --   120 h    0.831   119 h    0.786
   119   1 h    0.869 --   118 o    0.786
   120   1 h    0.886 --   118 o    0.831
   121   8 o    1.857 --   122 h    0.841   123 h    0.823
   122   1 h    0.869 --   121 o    0.841
   123   1 h    0.886 --   121 o    0.823
   124   8 o    1.852 --   125 h    0.822   126 h    0.796
   125   1 h    0.883 --   124 o    0.822
   126   1 h    0.874 --   124 o    0.796
   127   8 o    1.841 --   129 h    0.849   128 h    0.817
   128   1 h    0.885 --   127 o    0.817
   129   1 h    0.888 --   127 o    0.849
   130   8 o    1.818 --   131 h    0.860   132 h    0.815
   131   1 h    0.891 --   130 o    0.860
   132   1 h    0.882 --   130 o    0.815
   133   8 o    1.835 --   135 h    0.853   134 h    0.816
   134   1 h    0.880 --   133 o    0.816
   135   1 h    0.901 --   133 o    0.853
   136   8 o    1.840 --   137 h    0.841   138 h    0.819
   137   1 h    0.892 --   136 o    0.841
   138   1 h    0.885 --   136 o    0.819
   139   8 o    1.868 --   141 h    0.808   140 h    0.777
   140   1 h    0.869 --   139 o    0.777
   141   1 h    0.870 --   139 o    0.808
   142   8 o    1.862 --   143 h    0.854   144 h    0.828
   143   1 h    0.901 --   142 o    0.854
   144   1 h    0.885 --   142 o    0.828
   145   8 o    1.855 --   147 h    0.826   146 h    0.824
   146   1 h    0.892 --   145 o    0.824
   147   1 h    0.871 --   145 o    0.826
   148   8 o    1.863 --   150 h    0.837   149 h    0.796
   149   1 h    0.871 --   148 o    0.796
   150   1 h    0.885 --   148 o    0.837
   151   8 o    1.859 --   153 h    0.823   152 h    0.812
   152   1 h    0.879 --   151 o    0.812
   153   1 h    0.881 --   151 o    0.823
   154   8 o    1.875 --   156 h    0.839   155 h    0.834
   155   1 h    0.868 --   154 o    0.834
   156   1 h    0.878 --   154 o    0.839
   157   8 o    1.841 --   159 h    0.859   158 h    0.786
   158   1 h    0.866 --   157 o    0.786
   159   1 h    0.891 --   157 o    0.859
   160   8 o    1.869 --   162 h    0.839   161 h    0.818
   161   1 h    0.886 --   160 o    0.818
   162   1 h    0.867 --   160 o    0.839
   163   8 o    1.811 --   164 h    0.842   165 h    0.827
   164   1 h    0.892 --   163 o    0.842
   165   1 h    0.874 --   163 o    0.827
   166   8 o    1.858 --   168 h    0.829   167 h    0.773
   167   1 h    0.866 --   166 o    0.773
   168   1 h    0.887 --   166 o    0.829
   169   8 o    1.849 --   170 h    0.835   171 h    0.810
   170   1 h    0.888 --   169 o    0.835
   171   1 h    0.882 --   169 o    0.810
   172   8 o    1.849 --   174 h    0.809   173 h    0.779
   173   1 h    0.870 --   172 o    0.779
   174   1 h    0.875 --   172 o    0.809
   175   8 o    1.848 --   176 h    0.853   177 h    0.829
   176   1 h    0.884 --   175 o    0.853
   177   1 h    0.885 --   175 o    0.829
   178   8 o    1.852 --   180 h    0.858   179 h    0.806
   179   1 h    0.883 --   178 o    0.806
   180   1 h    0.893 --   178 o    0.858
   181   8 o    1.849 --   183 h    0.847   182 h    0.806
   182   1 h    0.873 --   181 o    0.806
   183   1 h    0.890 --   181 o    0.847
   184   8 o    1.894 --   185 h    0.827   186 h    0.825
   185   1 h    0.884 --   184 o    0.827
   186   1 h    0.886 --   184 o    0.825
   187   8 o    1.851 --   189 h    0.890   188 h    0.797
   188   1 h    0.868 --   187 o    0.797
   189   1 h    0.902 --   187 o    0.890
   190   8 o    1.832 --   191 h    0.867   192 h    0.839
   191   1 h    0.886 --   190 o    0.867
   192   1 h    0.882 --   190 o    0.839
   193   8 o    1.840 --   194 h    0.846   195 h    0.845
   194   1 h    0.891 --   193 o    0.846
   195   1 h    0.886 --   193 o    0.845
   196   8 o    1.842 --   198 h    0.832   197 h    0.807
   197   1 h    0.879 --   196 o    0.807
   198   1 h    0.884 --   196 o    0.832
   199   8 o    1.854 --   200 h    0.838   201 h    0.816
   200   1 h    0.883 --   199 o    0.838
   201   1 h    0.886 --   199 o    0.816
   202   8 o    1.835 --   204 h    0.831   203 h    0.801
   203   1 h    0.877 --   202 o    0.801
   204   1 h    0.879 --   202 o    0.831
   205   8 o    1.872 --   207 h    0.842   206 h    0.824
   206   1 h    0.890 --   205 o    0.824
   207   1 h    0.891 --   205 o    0.842
   208   8 o    1.843 --   209 h    0.896   210 h    0.798
   209   1 h    0.902 --   208 o    0.896
   210   1 h    0.871 --   208 o    0.798
   211   8 o    1.853 --   213 h    0.819   212 h    0.819
   212   1 h    0.878 --   211 o    0.819
   213   1 h    0.869 --   211 o    0.819
   214   8 o    1.851 --   216 h    0.817   215 h    0.798
   215   1 h    0.877 --   214 o    0.798
   216   1 h    0.882 --   214 o    0.817
   217   8 o    1.847 --   219 h    0.883   218 h    0.831
   218   1 h    0.875 --   217 o    0.831
   219   1 h    0.905 --   217 o    0.883
   220   8 o    1.806 --   222 h    0.841   221 h    0.827
   221   1 h    0.878 --   220 o    0.827
   222   1 h    0.892 --   220 o    0.841
   223   8 o    1.886 --   225 h    0.842   224 h    0.815
   224   1 h    0.883 --   223 o    0.815
   225   1 h    0.878 --   223 o    0.842
   226   8 o    1.887 --   227 h    0.812   228 h    0.811
   227   1 h    0.875 --   226 o    0.812
   228   1 h    0.890 --   226 o    0.811
   229   8 o    1.861 --   230 h    0.866   231 h    0.828
   230   1 h    0.893 --   229 o    0.866
   231   1 h    0.888 --   229 o    0.828
   232   8 o    1.843 --   234 h    0.830   233 h    0.825
   233   1 h    0.891 --   232 o    0.825
   234   1 h    0.885 --   232 o    0.830
   235   8 o    1.856 --   237 h    0.816   236 h    0.813
   236   1 h    0.888 --   235 o    0.813
   237   1 h    0.875 --   235 o    0.816
   238   8 o    1.888 --   239 h    0.854   240 h    0.808
   239   1 h    0.895 --   238 o    0.854
   240   1 h    0.890 --   238 o    0.808
   241   8 o    1.840 --   243 h    0.869   242 h    0.831
   242   1 h    0.882 --   241 o    0.831
   243   1 h    0.895 --   241 o    0.869
   244   8 o    1.799 --   245 h    0.862   246 h    0.815
   245   1 h    0.891 --   244 o    0.862
   246   1 h    0.882 --   244 o    0.815
   247   8 o    1.854 --   249 h    0.842   248 h    0.830
   248   1 h    0.894 --   247 o    0.830
   249   1 h    0.877 --   247 o    0.842
   250   8 o    1.798 --   252 h    0.853   251 h    0.814
   251   1 h    0.880 --   250 o    0.814
   252   1 h    0.894 --   250 o    0.853
   253   8 o    1.838 --   255 h    0.843   254 h    0.812
   254   1 h    0.873 --   253 o    0.812
   255   1 h    0.897 --   253 o    0.843
   256   8 o    1.837 --   258 h    0.833   257 h    0.791
   257   1 h    0.875 --   256 o    0.791
   258   1 h    0.880 --   256 o    0.833
   259   8 o    1.862 --   260 h    0.836   261 h    0.808
   260   1 h    0.894 --   259 o    0.836
   261   1 h    0.873 --   259 o    0.808
   262   8 o    1.826 --   263 h    0.864   264 h    0.853
   263   1 h    0.890 --   262 o    0.864
   264   1 h    0.885 --   262 o    0.853
   265   8 o    1.834 --   267 h    0.884   266 h    0.835
   266   1 h    0.869 --   265 o    0.835
   267   1 h    0.900 --   265 o    0.884
   268   8 o    1.802 --   269 h    0.863   270 h    0.849
   269   1 h    0.894 --   268 o    0.863
   270   1 h    0.883 --   268 o    0.849
   271   8 o    1.860 --   272 h    0.828   273 h    0.820
   272   1 h    0.898 --   271 o    0.828
   273   1 h    0.881 --   271 o    0.820
   274   8 o    1.818 --   276 h    0.838   275 h    0.834
   275   1 h    0.893 --   274 o    0.834
   276   1 h    0.895 --   274 o    0.838
   277   8 o    1.844 --   279 h    0.833   278 h    0.811
   278   1 h    0.878 --   277 o    0.811
   279   1 h    0.887 --   277 o    0.833
   280   8 o    1.854 --   282 h    0.834   281 h    0.818
   281   1 h    0.889 --   280 o    0.818
   282   1 h    0.892 --   280 o    0.834
   283   8 o    1.844 --   285 h    0.834   284 h    0.796
   284   1 h    0.878 --   283 o    0.796
   285   1 h    0.896 --   283 o    0.834
   286   8 o    1.875 --   287 h    0.830   288 h    0.821
   287   1 h    0.875 --   286 o    0.830
   288   1 h    0.878 --   286 o    0.821
   289   8 o    1.870 --   291 h    0.855   290 h    0.831
   290   1 h    0.872 --   289 o    0.831
   291   1 h    0.892 --   289 o    0.855
   292   8 o    1.823 --   293 h    0.868   294 h    0.781
   293   1 h    0.898 --   292 o    0.868
   294   1 h    0.865 --   292 o    0.781
   295   8 o    1.846 --   297 h    0.873   296 h    0.791
   296   1 h    0.884 --   295 o    0.791
   297   1 h    0.898 --   295 o    0.873
   298   8 o    1.831 --   300 h    0.818   299 h    0.803
   299   1 h    0.879 --   298 o    0.803
   300   1 h    0.883 --   298 o    0.818
   301   8 o    1.841 --   303 h    0.807   302 h    0.788
   302   1 h    0.876 --   301 o    0.788
   303   1 h    0.882 --   301 o    0.807
   304   8 o    1.830 --   305 h    0.863   306 h    0.830
   305   1 h    0.889 --   304 o    0.863
   306   1 h    0.881 --   304 o    0.830
   307   8 o    1.866 --   309 h    0.851   308 h    0.799
   308   1 h    0.875 --   307 o    0.799
   309   1 h    0.886 --   307 o    0.851
   310   8 o    1.843 --   312 h    0.858   311 h    0.852
   311   1 h    0.890 --   310 o    0.852
   312   1 h    0.891 --   310 o    0.858
   313   8 o    1.829 --   315 h    0.894   314 h    0.811
   314   1 h    0.872 --   313 o    0.811
   315   1 h    0.901 --   313 o    0.894
   316   8 o    1.862 --   318 h    0.873   317 h    0.814
   317   1 h    0.877 --   316 o    0.814
   318   1 h    0.894 --   316 o    0.873
   319   8 o    1.845 --   321 h    0.794   320 h    0.785
   320   1 h    0.874 --   319 o    0.785
   321   1 h    0.877 --   319 o    0.794
   322   8 o    1.843 --   323 h    0.839   324 h    0.833
   323   1 h    0.880 --   322 o    0.839
   324   1 h    0.882 --   322 o    0.833
   325   8 o    1.841 --   326 h    0.866   327 h    0.821
   326   1 h    0.903 --   325 o    0.866
   327   1 h    0.890 --   325 o    0.821
   328   8 o    1.833 --   329 h    0.820   330 h    0.811
   329   1 h    0.872 --   328 o    0.820
   330   1 h    0.887 --   328 o    0.811
   331   8 o    1.868 --   332 h    0.838   333 h    0.801
   332   1 h    0.895 --   331 o    0.838
   333   1 h    0.886 --   331 o    0.801
   334   8 o    1.863 --   335 h    0.831   336 h    0.807
   335   1 h    0.887 --   334 o    0.831
   336   1 h    0.877 --   334 o    0.807
   337   8 o    1.835 --   339 h    0.864   338 h    0.832
   338   1 h    0.877 --   337 o    0.832
   339   1 h    0.893 --   337 o    0.864
   340   8 o    1.829 --   341 h    0.843   342 h    0.826
   341   1 h    0.888 --   340 o    0.843
   342   1 h    0.879 --   340 o    0.826
   343   8 o    1.849 --   344 h    0.818   345 h    0.801
   344   1 h    0.889 --   343 o    0.818
   345   1 h    0.867 --   343 o    0.801
   346   8 o    1.894 --   348 h    0.835   347 h    0.826
   347   1 h    0.875 --   346 o    0.826
   348   1 h    0.877 --   346 o    0.835
   349   8 o    1.859 --   351 h    0.861   350 h    0.775
   350   1 h    0.868 --   349 o    0.775
   351   1 h    0.895 --   349 o    0.861
   352   8 o    1.854 --   354 h    0.831   353 h    0.819
   353   1 h    0.884 --   352 o    0.819
   354   1 h    0.887 --   352 o    0.831
   355   8 o    1.874 --   356 h    0.830   357 h    0.825
   356   1 h    0.896 --   355 o    0.830
   357   1 h    0.886 --   355 o    0.825
   358   8 o    1.886 --   359 h    0.849   360 h    0.801
   359   1 h    0.888 --   358 o    0.849
   360   1 h    0.873 --   358 o    0.801
   361   8 o    1.791 --   363 h    0.853   362 h    0.840
   362   1 h    0.885 --   361 o    0.840
   363   1 h    0.889 --   361 o    0.853
   364   8 o    1.884 --   366 h    0.838   365 h    0.807
[...]
   369   1 h    0.904 --   367 o    0.895
   370   8 o    1.854 --   372 h    0.810   371 h    0.804
   371   1 h    0.869 --   370 o    0.804
   372   1 h    0.888 --   370 o    0.810
   373   8 o    1.830 --   375 h    0.873   374 h    0.799
   374   1 h    0.884 --   373 o    0.799
   375   1 h    0.899 --   373 o    0.873
   376   8 o    1.871 --   378 h    0.821   377 h    0.797
   377   1 h    0.871 --   376 o    0.797
   378   1 h    0.880 --   376 o    0.821
   379   8 o    1.843 --   381 h    0.818   380 h    0.806
   380   1 h    0.882 --   379 o    0.806
   381   1 h    0.891 --   379 o    0.818
   382   8 o    1.853 --   384 h    0.865   383 h    0.843
   383   1 h    0.886 --   382 o    0.843
   384   1 h    0.892 --   382 o    0.865
   385   8 o    1.823 --   387 h    0.838   386 h    0.820
   386   1 h    0.874 --   385 o    0.820
   387   1 h    0.883 --   385 o    0.838
   388   8 o    1.822 --   389 h    0.875   390 h    0.837
   389   1 h    0.895 --   388 o    0.875
   390   1 h    0.885 --   388 o    0.837
   391   8 o    1.864 --   393 h    0.819   392 h    0.796
   392   1 h    0.871 --   391 o    0.796
   393   1 h    0.893 --   391 o    0.819
   394   8 o    1.848 --   396 h    0.835   395 h    0.814
   395   1 h    0.873 --   394 o    0.814
   396   1 h    0.889 --   394 o    0.835
   397   8 o    1.860 --   398 h    0.812   399 h    0.793
   398   1 h    0.876 --   397 o    0.812
   399   1 h    0.875 --   397 o    0.793
   400   8 o    1.890 --   401 h    0.862   402 h    0.814
   401   1 h    0.893 --   400 o    0.862
   402   1 h    0.884 --   400 o    0.814
   403   8 o    1.858 --   404 h    0.889   405 h    0.768
   404   1 h    0.904 --   403 o    0.889
   405   1 h    0.861 --   403 o    0.768
   406   8 o    1.815 --   408 h    0.845   407 h    0.813
   407   1 h    0.884 --   406 o    0.813
   408   1 h    0.891 --   406 o    0.845
   409   8 o    1.865 --   410 h    0.865   411 h    0.781
   410   1 h    0.892 --   409 o    0.865
   411   1 h    0.864 --   409 o    0.781
   412   8 o    1.874 --   414 h    0.831   413 h    0.812
   413   1 h    0.869 --   412 o    0.812
   414   1 h    0.887 --   412 o    0.831
   415   8 o    1.843 --   417 h    0.841   416 h    0.796
   416   1 h    0.872 --   415 o    0.796
   417   1 h    0.896 --   415 o    0.841
   418   8 o    1.834 --   420 h    0.855   419 h    0.811
   419   1 h    0.881 --   418 o    0.811
   420   1 h    0.891 --   418 o    0.855
   421   8 o    1.828 --   422 h    0.849   423 h    0.839
   422   1 h    0.892 --   421 o    0.849
   423   1 h    0.886 --   421 o    0.839
   424   8 o    1.821 --   425 h    0.836   426 h    0.829
   425   1 h    0.895 --   424 o    0.836
   426   1 h    0.888 --   424 o    0.829
   427   8 o    1.851 --   428 h    0.817   429 h    0.766
   428   1 h    0.874 --   427 o    0.817
   429   1 h    0.870 --   427 o    0.766
   430   8 o    1.865 --   432 h    0.821   431 h    0.808
   431   1 h    0.874 --   430 o    0.808
   432   1 h    0.877 --   430 o    0.821
   433   8 o    1.842 --   435 h    0.869   434 h    0.823
   434   1 h    0.886 --   433 o    0.823
   435   1 h    0.899 --   433 o    0.869
   436   8 o    1.814 --   438 h    0.805   437 h    0.789
   437   1 h    0.873 --   436 o    0.789
   438   1 h    0.878 --   436 o    0.805
   439   8 o    1.862 --   441 h    0.842   440 h    0.803
   440   1 h    0.870 --   439 o    0.803
   441   1 h    0.892 --   439 o    0.842
   442   8 o    1.856 --   443 h    0.846   444 h    0.808
   443   1 h    0.892 --   442 o    0.846
   444   1 h    0.886 --   442 o    0.808
   445   8 o    1.819 --   446 h    0.817   447 h    0.808
   446   1 h    0.885 --   445 o    0.817
   447   1 h    0.885 --   445 o    0.808
   448   8 o    1.836 --   450 h    0.868   449 h    0.833
   449   1 h    0.872 --   448 o    0.833
   450   1 h    0.891 --   448 o    0.868
   451   8 o    1.839 --   453 h    0.838   452 h    0.817
   452   1 h    0.877 --   451 o    0.817
   453   1 h    0.888 --   451 o    0.838
   454   8 o    1.859 --   456 h    0.852   455 h    0.782
   455   1 h    0.867 --   454 o    0.782
   456   1 h    0.895 --   454 o    0.852
   457   8 o    1.852 --   459 h    0.830   458 h    0.822
   458   1 h    0.880 --   457 o    0.822
   459   1 h    0.874 --   457 o    0.830
   460   8 o    1.796 --   461 h    0.851   462 h    0.830
   461   1 h    0.892 --   460 o    0.851
   462   1 h    0.883 --   460 o    0.830
   463   8 o    1.826 --   464 h    0.876   465 h    0.803
   464   1 h    0.901 --   463 o    0.876
   465   1 h    0.874 --   463 o    0.803
   466   8 o    1.866 --   467 h    0.861   468 h    0.808
   467   1 h    0.888 --   466 o    0.861
   468   1 h    0.879 --   466 o    0.808
   469   8 o    1.848 --   470 h    0.857   471 h    0.826
   470   1 h    0.890 --   469 o    0.857
   471   1 h    0.875 --   469 o    0.826
   472   8 o    1.817 --   473 h    0.837   474 h    0.829
   473   1 h    0.892 --   472 o    0.837
   474   1 h    0.886 --   472 o    0.829
   475   8 o    1.837 --   477 h    0.868   476 h    0.818
   476   1 h    0.874 --   475 o    0.818
   477   1 h    0.892 --   475 o    0.868
   478   8 o    1.817 --   480 h    0.849   479 h    0.814
   479   1 h    0.884 --   478 o    0.814
   480   1 h    0.893 --   478 o    0.849
   481   8 o    1.877 --   483 h    0.827   482 h    0.810
   482   1 h    0.885 --   481 o    0.810
   483   1 h    0.890 --   481 o    0.827
   484   8 o    1.843 --   486 h    0.884   485 h    0.768
   485   1 h    0.859 --   484 o    0.768
   486   1 h    0.902 --   484 o    0.884
   487   8 o    1.839 --   489 h    0.864   488 h    0.820
   488   1 h    0.872 --   487 o    0.820
   489   1 h    0.891 --   487 o    0.864
   490   8 o    1.876 --   492 h    0.832   491 h    0.799
   491   1 h    0.876 --   490 o    0.799
   492   1 h    0.893 --   490 o    0.832
   493   8 o    1.864 --   494 h    0.849   495 h    0.805
   494   1 h    0.897 --   493 o    0.849
   495   1 h    0.877 --   493 o    0.805
   496   8 o    1.856 --   498 h    0.829   497 h    0.809
   497   1 h    0.870 --   496 o    0.809
   498   1 h    0.879 --   496 o    0.829
   499   8 o    1.803 --   501 h    0.856   500 h    0.831
   500   1 h    0.881 --   499 o    0.831
   501   1 h    0.893 --   499 o    0.856
   502   8 o    1.810 --   503 h    0.824   504 h    0.813
   503   1 h    0.892 --   502 o    0.824
   504   1 h    0.878 --   502 o    0.813
   505   8 o    1.824 --   506 h    0.889   507 h    0.820
   506   1 h    0.899 --   505 o    0.889
   507   1 h    0.875 --   505 o    0.820
   508   8 o    1.800 --   509 h    0.832   510 h    0.792
   509   1 h    0.895 --   508 o    0.832
   510   1 h    0.877 --   508 o    0.792
   511   8 o    1.845 --   512 h    0.833   513 h    0.790
   512   1 h    0.897 --   511 o    0.833
   513   1 h    0.879 --   511 o    0.790
   514   8 o    1.789 --   515 h    0.880   516 h    0.832
   515   1 h    0.902 --   514 o    0.880
   516   1 h    0.885 --   514 o    0.832
   517   8 o    1.854 --   519 h    0.859   518 h    0.797
   518   1 h    0.869 --   517 o    0.797
   519   1 h    0.900 --   517 o    0.859
   520   8 o    1.831 --   522 h    0.893   521 h    0.813
   521   1 h    0.873 --   520 o    0.813
   522   1 h    0.903 --   520 o    0.893
   523   8 o    1.844 --   524 h    0.861   525 h    0.814
   524   1 h    0.892 --   523 o    0.861
   525   1 h    0.886 --   523 o    0.814
   526   8 o    1.812 --   527 h    0.847   528 h    0.829
   527   1 h    0.888 --   526 o    0.847
   528   1 h    0.884 --   526 o    0.829
   529   8 o    1.872 --   531 h    0.832   530 h    0.791
   530   1 h    0.863 --   529 o    0.791
   531   1 h    0.889 --   529 o    0.832
   532   8 o    1.843 --   534 h    0.812   533 h    0.811
   533   1 h    0.894 --   532 o    0.811
   534   1 h    0.883 --   532 o    0.812
   535   8 o    1.797 --   537 h    0.849   536 h    0.837
   536   1 h    0.884 --   535 o    0.837
   537   1 h    0.892 --   535 o    0.849
   538   8 o    1.826 --   539 h    0.885   540 h    0.785
   539   1 h    0.901 --   538 o    0.885
   540   1 h    0.870 --   538 o    0.785
   541   8 o    1.851 --   543 h    0.841   542 h    0.803
   542   1 h    0.884 --   541 o    0.803
   543   1 h    0.895 --   541 o    0.841
   544   8 o    1.835 --   545 h    0.825   546 h    0.822
   545   1 h    0.885 --   544 o    0.825
   546   1 h    0.873 --   544 o    0.822
   547   8 o    1.848 --   549 h    0.889   548 h    0.781
   548   1 h    0.875 --   547 o    0.781
   549   1 h    0.900 --   547 o    0.889
   550   8 o    1.848 --   552 h    0.855   551 h    0.846
   551   1 h    0.885 --   550 o    0.846
   552   1 h    0.889 --   550 o    0.855
   553   8 o    1.827 --   555 h    0.863   554 h    0.844
   554   1 h    0.881 --   553 o    0.844
   555   1 h    0.887 --   553 o    0.863
   556   8 o    1.800 --   558 h    0.846   557 h    0.833
   557   1 h    0.889 --   556 o    0.833
   558   1 h    0.886 --   556 o    0.846
   559   8 o    1.841 --   561 h    0.848   560 h    0.838
   560   1 h    0.888 --   559 o    0.838
   561   1 h    0.885 --   559 o    0.848
   562   8 o    1.823 --   563 h    0.827   564 h    0.823
   563   1 h    0.885 --   562 o    0.827
   564   1 h    0.887 --   562 o    0.823
   565   8 o    1.817 --   566 h    0.848   567 h    0.825
   566   1 h    0.886 --   565 o    0.848
   567   1 h    0.885 --   565 o    0.825
   568   8 o    1.864 --   569 h    0.821   570 h    0.817
   569   1 h    0.891 --   568 o    0.821
   570   1 h    0.874 --   568 o    0.817
   571   8 o    1.821 --   572 h    0.881   573 h    0.812
   572   1 h    0.898 --   571 o    0.881
   573   1 h    0.875 --   571 o    0.812
   574   8 o    1.815 --   576 h    0.855   575 h    0.854
   575   1 h    0.886 --   574 o    0.854
   576   1 h    0.891 --   574 o    0.855
   577   8 o    1.819 --   578 h    0.841   579 h    0.838
   578   1 h    0.892 --   577 o    0.841
   579   1 h    0.883 --   577 o    0.838
   580   8 o    1.868 --   582 h    0.837   581 h    0.822
   581   1 h    0.889 --   580 o    0.822
   582   1 h    0.893 --   580 o    0.837
   583   8 o    1.813 --   585 h    0.845   584 h    0.830
   584   1 h    0.879 --   583 o    0.830
   585   1 h    0.888 --   583 o    0.845
   586   8 o    1.830 --   587 h    0.843   588 h    0.843
   587   1 h    0.893 --   586 o    0.843
   588   1 h    0.883 --   586 o    0.843
   589   8 o    1.823 --   590 h    0.894   591 h    0.795
   590   1 h    0.903 --   589 o    0.894
   591   1 h    0.868 --   589 o    0.795
   592   8 o    1.830 --   594 h    0.888   593 h    0.796
   593   1 h    0.874 --   592 o    0.796
   594   1 h    0.898 --   592 o    0.888
   595   8 o    1.857 --   596 h    0.898   597 h    0.801
   596   1 h    0.903 --   595 o    0.898
   597   1 h    0.870 --   595 o    0.801
   598   8 o    1.881 --   599 h    0.822   600 h    0.777
   599   1 h    0.883 --   598 o    0.822
   600   1 h    0.864 --   598 o    0.777
   601   8 o    1.832 --   602 h    0.856   603 h    0.840
   602   1 h    0.888 --   601 o    0.856
   603   1 h    0.887 --   601 o    0.840
   604   8 o    1.855 --   606 h    0.894   605 h    0.813
   605   1 h    0.876 --   604 o    0.813
   606   1 h    0.899 --   604 o    0.894
   607   8 o    1.862 --   608 h    0.848   609 h    0.815
   608   1 h    0.887 --   607 o    0.848
   609   1 h    0.885 --   607 o    0.815
   610   8 o    1.847 --   611 h    0.895   612 h    0.798
   611   1 h    0.904 --   610 o    0.895
   612   1 h    0.864 --   610 o    0.798
   613   8 o    1.801 --   614 h    0.861   615 h    0.860
   614   1 h    0.890 --   613 o    0.861
   615   1 h    0.889 --   613 o    0.860
   616   8 o    1.818 --   617 h    0.846   618 h    0.846
   617   1 h    0.891 --   616 o    0.846
   618   1 h    0.888 --   616 o    0.846
   619   8 o    1.862 --   621 h    0.817   620 h    0.805
   620   1 h    0.867 --   619 o    0.805
   621   1 h    0.882 --   619 o    0.817
   622   8 o    1.836 --   624 h    0.848   623 h    0.817
   623   1 h    0.878 --   622 o    0.817
   624   1 h    0.890 --   622 o    0.848
   625   8 o    1.831 --   627 h    0.857   626 h    0.830
   626   1 h    0.882 --   625 o    0.830
   627   1 h    0.886 --   625 o    0.857
   628   8 o    1.860 --   630 h    0.830   629 h    0.814
   629   1 h    0.878 --   628 o    0.814
   630   1 h    0.894 --   628 o    0.830
   631   8 o    1.829 --   633 h    0.839   632 h    0.816
   632   1 h    0.878 --   631 o    0.816
   633   1 h    0.889 --   631 o    0.839
   634   8 o    1.828 --   635 h    0.873   636 h    0.828
   635   1 h    0.895 --   634 o    0.873
   636   1 h    0.882 --   634 o    0.828
   637   8 o    1.850 --   638 h    0.814   639 h    0.776
   638   1 h    0.884 --   637 o    0.814
   639   1 h    0.869 --   637 o    0.776
   640   8 o    1.823 --   641 h    0.885   642 h    0.799
   641   1 h    0.902 --   640 o    0.885
   642   1 h    0.871 --   640 o    0.799
   643   8 o    1.829 --   645 h    0.897   644 h    0.800
   644   1 h    0.868 --   643 o    0.800
   645   1 h    0.904 --   643 o    0.897
   646   8 o    1.817 --   647 h    0.845   648 h    0.838
   647   1 h    0.889 --   646 o    0.845
   648   1 h    0.883 --   646 o    0.838
   649   8 o    1.861 --   650 h    0.889   651 h    0.839
   650   1 h    0.898 --   649 o    0.889
   651   1 h    0.880 --   649 o    0.839
   652   8 o    1.842 --   654 h    0.831   653 h    0.819
   653   1 h    0.874 --   652 o    0.819
   654   1 h    0.887 --   652 o    0.831
   655   8 o    1.851 --   657 h    0.861   656 h    0.828
   656   1 h    0.886 --   655 o    0.828
   657   1 h    0.888 --   655 o    0.861
   658   8 o    1.844 --   659 h    0.848   660 h    0.797
   659   1 h    0.890 --   658 o    0.848
   660   1 h    0.868 --   658 o    0.797
   661   8 o    1.805 --   662 h    0.849   663 h    0.836
   662   1 h    0.884 --   661 o    0.849
   663   1 h    0.884 --   661 o    0.836
   664   8 o    1.829 --   665 h    0.848   666 h    0.822
   665   1 h    0.884 --   664 o    0.848
   666   1 h    0.872 --   664 o    0.822
   667   8 o    1.835 --   669 h    0.870   668 h    0.796
   668   1 h    0.868 --   667 o    0.796
   669   1 h    0.895 --   667 o    0.870
   670   8 o    1.824 --   672 h    0.896   671 h    0.811
   671   1 h    0.880 --   670 o    0.811
   672   1 h    0.906 --   670 o    0.896
   673   8 o    1.839 --   675 h    0.830   674 h    0.815
   674   1 h    0.880 --   673 o    0.815
   675   1 h    0.884 --   673 o    0.830
   676   8 o    1.847 --   678 h    0.842   677 h    0.805
   677   1 h    0.876 --   676 o    0.805
   678   1 h    0.886 --   676 o    0.842
   679   8 o    1.877 --   680 h    0.816   681 h    0.815
   680   1 h    0.883 --   679 o    0.816
   681   1 h    0.883 --   679 o    0.815
   682   8 o    1.842 --   684 h    0.862   683 h    0.801
   683   1 h    0.882 --   682 o    0.801
   684   1 h    0.893 --   682 o    0.862
   685   8 o    1.860 --   686 h    0.863   687 h    0.843
   686   1 h    0.887 --   685 o    0.863
   687   1 h    0.893 --   685 o    0.843
   688   8 o    1.859 --   690 h    0.828   689 h    0.817
   689   1 h    0.872 --   688 o    0.817
   690   1 h    0.891 --   688 o    0.828
   691   8 o    1.813 --   693 h    0.843   692 h    0.803
   692   1 h    0.881 --   691 o    0.803
   693   1 h    0.897 --   691 o    0.843
   694   8 o    1.829 --   696 h    0.871   695 h    0.832
   695   1 h    0.882 --   694 o    0.832
   696   1 h    0.893 --   694 o    0.871
   697   8 o    1.821 --   699 h    0.895   698 h    0.818
   698   1 h    0.877 --   697 o    0.818
   699   1 h    0.900 --   697 o    0.895
   700   8 o    1.837 --   702 h    0.884   701 h    0.838
   701   1 h    0.888 --   700 o    0.838
   702   1 h    0.895 --   700 o    0.884
   703   8 o    1.840 --   704 h    0.872   705 h    0.849
   704   1 h    0.889 --   703 o    0.872
   705   1 h    0.882 --   703 o    0.849
   706   8 o    1.844 --   707 h    0.881   708 h    0.817
   707   1 h    0.892 --   706 o    0.881
   708   1 h    0.881 --   706 o    0.817
   709   8 o    1.819 --   711 h    0.826   710 h    0.794
   710   1 h    0.876 --   709 o    0.794
   711   1 h    0.883 --   709 o    0.826
   712   8 o    1.878 --   713 h    0.852   714 h    0.832
   713   1 h    0.894 --   712 o    0.852
   714   1 h    0.873 --   712 o    0.832
   715   8 o    1.863 --   716 h    0.846   717 h    0.828
   716   1 h    0.893 --   715 o    0.846
   717   1 h    0.878 --   715 o    0.828
   718   8 o    1.807 --   719 h    0.848   720 h    0.841
   719   1 h    0.893 --   718 o    0.848
   720   1 h    0.891 --   718 o    0.841
   721   8 o    1.824 --   722 h    0.898   723 h    0.772
   722   1 h    0.905 --   721 o    0.898
   723   1 h    0.875 --   721 o    0.772
   724   8 o    1.868 --   726 h    0.805   725 h    0.801
   725   1 h    0.892 --   724 o    0.801
   726   1 h    0.877 --   724 o    0.805
   727   8 o    1.844 --   729 h    0.845   728 h    0.795
   728   1 h    0.871 --   727 o    0.795
   729   1 h    0.895 --   727 o    0.845
   730   8 o    1.822 --   732 h    0.898   731 h    0.835
   731   1 h    0.879 --   730 o    0.835
   732   1 h    0.899 --   730 o    0.898
   733   8 o    1.836 --   735 h    0.852   734 h    0.821
   734   1 h    0.880 --   733 o    0.821
   735   1 h    0.886 --   733 o    0.852
   736   8 o    1.841 --   737 h    0.857   738 h    0.841
   737   1 h    0.892 --   736 o    0.857
   738   1 h    0.890 --   736 o    0.841
   739   8 o    1.839 --   741 h    0.838   740 h    0.817
   740   1 h    0.878 --   739 o    0.817
   741   1 h    0.898 --   739 o    0.838
   742   8 o    1.847 --   744 h    0.879   743 h    0.792
   743   1 h    0.866 --   742 o    0.792
   744   1 h    0.898 --   742 o    0.879
   745   8 o    1.824 --   746 h    0.881   747 h    0.769
   746   1 h    0.902 --   745 o    0.881
   747   1 h    0.862 --   745 o    0.769
   748   8 o    1.808 --   749 h    0.853   750 h    0.812
   749   1 h    0.895 --   748 o    0.853
   750   1 h    0.874 --   748 o    0.812
   751   8 o    1.841 --   753 h    0.874   752 h    0.868
   752   1 h    0.890 --   751 o    0.868
   753   1 h    0.890 --   751 o    0.874
   754   8 o    1.884 --   755 h    0.851   756 h    0.840
   755   1 h    0.878 --   754 o    0.851
   756   1 h    0.873 --   754 o    0.840
 ---------------------------------------------------------------------------

Topologies differ in total number of bonds
Writing topology from bond orders to xtbtopo.mol

molecular dipole:
                 x           y           z       tot (Debye)
 q only:       -0.579      -0.855      -1.081
   full:        0.435      -1.876      -1.366       6.001
molecular quadrupole (traceless):
                xx          xy          yy          xz          yz          zz
 q only:      -60.148     -55.991       4.834      16.105      49.738      55.314
  q+dip:      -61.658     -79.909       4.123      13.055      61.286      57.535
   full:      -59.956     -79.147       3.434      13.698      61.351      56.522


           -------------------------------------------------
          | TOTAL ENERGY            -1283.627570166403 Eh   |
          | GRADIENT NORM               0.099129000514 Eh/α |
          | HOMO-LUMO GAP               7.936214839029 eV   |
           -------------------------------------------------

------------------------------------------------------------------------
 * finished run on 2022/11/24 at 09:28:08.472     
------------------------------------------------------------------------
 total:
 * wall-time:     0 d,  0 h,  0 min, 21.946 sec
 *  cpu-time:     0 d,  0 h,  0 min, 35.371 sec
 * ratio c/w:     1.612 speedup
 SCF:
 * wall-time:     0 d,  0 h,  0 min, 20.879 sec
 *  cpu-time:     0 d,  0 h,  0 min, 33.611 sec
 * ratio c/w:     1.610 speedup

