756
 energy: -1283.352216522592 gnorm: 0.023241911601 xtb: 6.5.1 (579679a)
o           -3.50696414123401       -6.14508959737667       -2.90592571999658
h           -3.99307871683396       -6.84167437224948       -2.39502500859645
h           -2.68460161893034       -5.98172607293315       -2.39820560510178
o            0.42970184733362       -2.37051707727052       -2.43974767004718
h            0.54099155370852       -1.45910027682917       -2.79162332870145
h            1.21499085827697       -2.52349320417784       -1.87470088297084
o            3.22457701093322        1.47174572435602       -2.10283525930518
h            3.69601956359409        2.28521333738474       -1.81095857028455
h            3.64249799465970        0.73245463264525       -1.62822849453754
o            5.80588262474737        1.54854229443103        0.33119038707300
h            5.12547213057364        1.04555030129715       -0.12803812732101
h            5.51423341770543        1.67877462734829        1.25703525387581
o            0.96253712659888        0.10382810096696       -3.25630965148929
h            0.24807269468435        0.71012796921646       -2.97283324328935
h            1.72918873737078        0.34900251392062       -2.72269678019635
o           -3.48180607686818       -4.82159263836662        0.34114430044961
h           -4.28925959595496       -5.35371460759799        0.47010052248520
h           -3.76358717602558       -3.88902001348799        0.31352968411177
o            4.73374930681648       -0.63947176537167        2.05535140451060
h            3.96987428318683       -0.19986952795652        2.48197927762948
h            5.56141078022874       -0.23351864773507        2.38785609286178
o           -1.18865353011996       -3.11856521786864        1.39723055126908
h           -0.47711917503447       -3.66867162853161        1.04420867682154
h           -1.66530418509776       -2.82783303964183        0.59717717149551
o            4.03260787946646       -3.15847886996579        1.86704917188074
h            3.13186124213514       -2.92082994401405        1.54906024778271
h            4.44881840395184       -2.28511717259364        2.03108460516199
o            2.99436519429160        2.10885083324677        0.75713482385516
h            3.61137832024666        2.41935747153905        1.43455866070566
h            2.52840758082163        2.91501705775350        0.43476486076363
o            2.03819321570242        2.62532988432939        4.29271723703420
h            1.11059598246203        2.66306196002915        3.99164418046719
h            2.53966767997715        3.21259475564501        3.69189310527698
o           -2.33164167957724        0.82573865429014        3.82702270444009
h           -1.64430433064638        1.49628939797873        3.66524218324980
h           -1.90715426495989       -0.03172816585633        3.73171004608269
o            0.17309033214096       -4.05954857576721       -6.70213595719531
h           -0.74336430443282       -4.37779351794093       -6.79057704288997
h            0.70626828227454       -4.83956703459921       -6.45276992123089
o           -0.50198948202694        2.76819616847478        3.26490054429195
h           -0.47369823465175        3.01205531735042        2.31980940567486
h           -1.13204281717261        3.40055196720674        3.65679305133328
o            4.33438097086908        3.83898186253054       -1.67227931615103
h            4.70908816610469        4.04654786617342       -0.79318620061045
h            3.79096555868533        4.60640268313135       -1.94258631417255
o           -3.13266379946090       -1.94391003934966       -6.36469141550275
h           -2.45146091366043       -1.52168190182298       -6.94547134571959
h           -2.88446813038732       -1.69657845539652       -5.45042844882549
o           -0.86427301001516        1.89902672461376       -2.70587797085678
h           -1.40488821865880        2.12209259551855       -3.48626826945426
h           -1.43597337967481        2.12243473458652       -1.93802836569537
o           -6.74429747248367       -1.36734822764118       -4.34076079177694
h           -7.08734639645682       -0.77407326778361       -5.03475334579025
h           -6.35969793446597       -2.11922187828481       -4.82936545254569
o           -5.19299124760952       -0.87791318744996       -2.21056932220961
h           -5.89459636711661       -0.48626135358613       -1.64576528071054
h           -5.67204305306457       -1.21795881060134       -2.98547967271615
o           -3.38348310419016        3.07504051010681        1.79998263180290
h           -3.89111202979422        3.64486137024033        1.19806811914702
h           -3.18889790064334        3.58185004248673        2.60071876231278
o           -2.64893224734004        2.44427202052771       -4.59145829671785
h           -3.41552304111761        1.94816701565495       -4.21115464610163
h           -2.67386696862641        3.33089471476946       -4.16796602380834
o            2.50260825121518       -0.18599197534436       -7.95270998397110
h            1.94885952339030       -0.88642051986049       -8.33322573486777
h            2.52042259966250       -0.38784357711687       -6.99828659331958
o           -4.23037364031821       -2.19800282147566        0.02523644535876
h           -5.07700904726976       -2.01401661694572        0.49313888184785
h           -4.34166225659336       -1.75266630389271       -0.82838717634463
o           -2.62513301714787       -0.00298231182317       -1.46191822816753
h           -3.55417498935409        0.26022132605738       -1.46797990190520
h           -2.30274355965843        0.28143098338963       -0.54995549847666
o           -3.39378487223441       -1.40645252121327        2.42361841624373
h           -3.58899179152388       -2.20910095724611        2.92883534487129
h           -3.50091477039553       -1.68268469088539        1.49591696001334
o           -4.73277932950648        1.49547797795388       -0.59628413387857
h           -4.79524149541145        1.13716199999755        0.30374728911910
h           -5.52895313513992        2.04475145739391       -0.69922572042782
o           -1.25500667896431       -0.68351922408515       -7.68406670139492
h           -0.53269945937758       -1.21130379191893       -8.05937642367463
h           -0.87584496264158       -0.19659756716049       -6.92232862786687
o            4.14694630015871       -0.53406923675075       -0.46489772386803
h            3.52998633639826       -1.24769530904251       -0.69577138174829
h            4.27694209729802       -0.57374049646997        0.51112726367902
o           -6.26354244308677       -3.78076140833213       -1.18153640148064
h           -6.97854823025097       -3.16339806000920       -1.47152908327578
h           -5.46614368476740       -3.53373200515088       -1.67741527567424
o            5.33058994004344        4.34109808184543        0.74824810137977
h            4.63665162172528        4.22565431115627        1.42638799466372
h            6.10078201528733        3.80132644092425        0.97335834789470
o           -8.27692152239129       -3.77738178394541       -6.25119546133263
h           -7.36915305451155       -3.45816662786126       -6.35586124812209
h           -8.18579442664582       -4.61351239447203       -5.77720258290804
o           -6.18611377157047       -1.90385319956596        3.80334236653716
h           -5.53232560572704       -1.31179322409585        4.20912175378991
h           -6.14636761225805       -1.77067025102226        2.84555368439808
o            5.12537672088244        3.23752819093181       -6.19399595263943
h            5.44816799893472        3.10138827396227       -5.27381908191047
h            4.32343410518442        2.70889598117674       -6.24453519095058
o            4.04376904503125       -4.27415918945625        4.33210762677967
h            3.94934420419150       -3.92561499009281        3.41927517786992
h            3.25933104710880       -4.80939515399855        4.52196039876591
o            6.42361494383592       -1.87724141893499       -0.52991192033615
h            7.12669339580623       -1.20959174737774       -0.41009361215274
h            5.62084283581487       -1.35412154806876       -0.72440425769208
o           -6.16248424296300       -4.02574246500350        1.61540649402735
h           -6.21506370748459       -3.99102557602458        0.64725223464997
h           -7.04348985162568       -4.25834613372310        1.93270633758930
o            1.67151394812168        4.19092728867825       -0.11325021259310
h            0.78551240742261        4.10028556218764        0.29387755873489
h            1.53289054578309        4.04295647390626       -1.06913247040907
o           -0.92659264993370       -1.80116405109320        3.89917081094646
h           -1.12373274904347       -2.20185453771865        3.03556301186934
h           -0.41923125240496       -2.45956879380844        4.42199129494038
o           -2.52598367114640        2.95171341244878       -0.98313919098735
h           -3.34524739543764        2.44144119769031       -0.79782593917985
h           -2.75052127661461        3.63580407028082       -1.63408677909410
o            4.21220424900396       -1.70566739395340       -3.57284858192142
h            4.78453954570428       -0.95537351266318       -3.27514700074124
h            4.77947467977461       -2.30916068956260       -4.08819876420913
o            6.27610993702072       -6.45639748719439       -1.81857874657750
h            5.91491810403111       -5.63007639175806       -1.46737721876124
h            6.22331292521932       -6.37587140286533       -2.79357880662010
o            3.29132755154044        1.51341547808968       -4.75380767615590
h            2.79713844178964        0.70858838615937       -4.99456290841919
h            3.37076208357039        1.50073291006633       -3.77626803064879
o           -5.58443140529299       -3.20230243759977       -5.87204208610906
h           -5.32245768689798       -4.09988428082464       -5.58054146375372
h           -4.79103315790191       -2.78225666527049       -6.22473544578723
o           -2.99441807168674        1.50627642255235       -7.94053730190025
h           -2.40201538754813        0.76441193627999       -8.11792531504280
h           -2.41903307806901        2.23343765058798       -7.62462670360976
o            7.59449450130535       -1.63152960213124       -4.02345025661596
h            7.93153944243507       -0.85424193864613       -3.54599131411326
h            8.33783773893992       -1.96253585532184       -4.54628195750936
o            5.62913556914529        0.31149556800049       -2.61239398812966
h            6.57754699585453        0.13710312878012       -2.54989715232827
h            5.57803070118650        1.18729906534612       -3.04118677784767
o            2.44959546723352       -0.96525942244587       -5.38732331897979
h            3.05577326569417       -1.25321858812989       -4.66225371524967
h            1.53379760669878       -1.19551282598359       -5.13784753502581
o           -8.13617452494983       -2.21078956258920       -2.19322934491868
h           -8.75894074057136       -2.86206967386574       -2.55022818299713
h           -7.74181579423710       -1.78098495826531       -2.97243021112661
o            0.25941622753216        4.76547463617342        5.20822276139662
h            1.11100882202372        4.83394734572068        5.68474475248613
h            0.47032291486499        4.84960379246792        4.26257476893108
o           -7.04870723994166        2.51948702574946       -5.70045904462831
h           -7.07901890762922        2.21110301946016       -4.76705384232669
h           -6.12360953176973        2.73443892880662       -5.90683171028129
o            4.14646408210334       -4.72313620130150       -2.79669249263118
h            5.00705819775999       -4.27126541342450       -2.89011683076349
h            3.50179954891354       -4.27196166775991       -3.36842946898695
o           -0.48098820287546        0.93103139722185       -5.67467532512039
h           -0.05038195272562        0.52219451605253       -4.91302784588364
h           -1.23376882563461        1.45957228268514       -5.36937179894520
o            6.31952995949275        6.78918988991905        0.84620941439130
h            5.78749610315288        5.96164615839599        0.89249619319665
h            5.79573318978898        7.39348179855442        0.30521078638358
o            4.62003703106638        3.56539121191346        5.47166695565466
h            4.89830005255031        2.96871322577170        6.19430995551015
h            4.23513641107623        2.98460791369693        4.80454278544866
o            2.32360997182221        2.03898243042913        7.02605560094313
h            2.19796617047894        1.07508742645660        7.04013496353719
h            2.20765823578003        2.28331209446112        6.08948170763598
o            7.98980867702912        0.16245582002771        0.02630597305945
h            7.19641324323781        0.71127547160993        0.23276667500448
h            8.58554514805828        0.18824162623536        0.78786147120448
o           -7.44378740668750        3.47983821295099        2.26272396857129
h           -7.31669729837816        3.52368404598283        3.22455156403572
h           -8.17810642375920        2.84233640159620        2.14254384922113
o           -4.79264077545263        0.88287231938972        2.08796515878485
h           -4.14330792929617        1.62314046040988        2.01748368092374
h           -4.30169224540183        0.06692280229094        2.31125828566838
o           -4.89098096862921       -7.82509281961061       -1.48141390675873
h           -4.79175179423513       -7.63850586342202       -0.53706780877247
h           -5.74293770398702       -7.41364590898373       -1.72011093041320
o          -11.82635401988571       -0.27704088119709        1.21888608371525
h          -11.63089623451950       -0.21113899811124        2.18155798790157
h          -12.17416702791671        0.58526272620121        0.95440217115337
o            6.98431807331550       -2.40801345639172        2.08574440299102
h            6.62125445669920       -2.31472319384671        1.18395241855662
h            7.85584109065792       -1.98179725823456        2.02968006619233
o           -7.63172525005109        1.65856497692306       -3.23449044011374
h           -8.15988403574998        2.45391305093293       -3.02211608671710
h           -8.27687995309562        0.96858201313782       -3.49284260244417
o           -4.50857026680799        3.41868930232395       -6.32813207369449
h           -3.74242429148905        3.05140922579942       -5.84116229717418
h           -4.27152974570021        3.37279037798251       -7.25510402179297
o            2.01161512596833       -4.46952311343076        7.61975934486123
h            1.23907125374281       -3.90232043805404        7.50160617262319
h            1.99766055756266       -5.10164322778433        6.88078183522105
o           -7.89762730958150        3.37132777431789        4.98579724753258
h           -7.20722784633438        3.51593335370198        5.65106347211076
h           -8.15730945188853        2.44449946260643        5.10365859409767
o           -7.23137487949410        0.27622792267258       -0.94791499705535
h           -7.32625800549154        0.84783943064014       -1.73488464374248
h           -8.10137642137797       -0.14115172390421       -0.83155065635113
o            7.45378606275984        5.49309701576675       -1.21992788411868
h            6.80140953018498        5.68992581560551       -1.90903016868574
h            7.17297534691254        5.99914617901683       -0.43130221828505
o           -1.28875254523306       -4.84639837516534        3.41930615196677
h           -0.38493284788721       -4.47477717644320        3.36310414508108
h           -1.79181317136106       -4.37712299180358        2.73931303365440
o           -9.46109888482705        1.99782558264748       -1.02785145093876
h           -9.90009717279782        2.87021373831005       -0.98483924972927
h          -10.14156311539553        1.37926708343544       -1.33764654519697
o            0.82476575008087       -2.27500777233130       -8.55389082059534
h            0.87128129016510       -2.75163346391129       -9.38112950004631
h            0.71771312081290       -2.95533481711257       -7.84641180363275
o           -1.41566151595927       -4.05534590365694       -3.82757660468857
h           -2.25629849586717       -3.85681638717615       -3.38103056001795
h           -0.73775153545333       -3.56226112600369       -3.34250740159222
o           -1.87837780262945       -2.51752152933196       -1.09057413981983
h           -2.18916096069631       -1.59040262654709       -1.17253199481594
h           -0.99306865286626       -2.53669211235296       -1.49472555472362
o            2.65106642524204        5.73106675448871       -2.63382775594146
h            2.01044320317691        5.02055811640726       -2.78944643480322
h            2.99031754626719        5.97696545727472       -3.49947859612845
o            2.82386581790990       -1.80409363202129        4.15604084111472
h            2.51157282468341       -1.04766195140084        3.64058603593725
h            2.18578081790960       -2.51462791520038        4.01206502637244
o           -4.74926409057748        4.63048490649699       -0.00517368482005
h           -5.41766332546486        5.22249726577191        0.40770454567418
h           -5.17383079548724        4.24034672869301       -0.78133107931053
o           -1.47993073579629       -5.50439931851778       -1.30685507925389
h           -2.14282416539504       -5.15802316925357       -0.67461971811077
h           -1.38177330710315       -6.46554906564519       -1.10686633690801
o           -2.56701161284011        4.30936062309011        4.12973484465559
h           -2.94983810542263        3.87665724843510        4.89797216768069
h           -2.26613343425473        5.19281134222610        4.40970825268013
o            0.52656291964682        0.32981016260130        4.75903265577086
h            1.13796580072307       -0.07201857961843        5.40511490982936
h            0.03864744491463       -0.40505222252020        4.36277939733406
o           -4.08340443705349       -3.89483411994864        3.32648288697845
h           -3.80934329268051       -4.82398396794508        3.48667085361716
h           -4.85810348207942       -3.93730757570833        2.73328156051419
o           -9.61194475473175       -0.02723296007316       -3.91894036791203
h          -10.22447882340294        0.71497194366690       -4.04225705707131
h           -9.60417836045229       -0.54174303243843       -4.76309344519428
o           -5.71046197109989        5.35752869014419       -4.84843392197654
h           -5.25882997600144        4.74792220830154       -5.46016476632213
h           -5.11509225223654        6.10154143841711       -4.71508863864792
o           -7.49707886464320       -5.77897020924419       -4.46443572080294
h           -6.62465940698335       -5.84540870068020       -4.87335059596465
h           -7.35807126534001       -6.07027677531739       -3.54080825289429
o          -11.06715150502226       -0.12038192913150        3.76192470427950
h          -11.42098880139414       -0.79857155991062        4.37686334732726
h          -10.16769774227112       -0.42130413471259        3.56557252219675
o            3.83930480730071        5.47820798884775       -5.24056731399536
h            3.01071030887491        4.96849623573725       -5.32888643810152
h            4.47318261909135        4.96095465253727       -5.76219784730028
o            3.20219003391003        6.28288950829196        0.72478119875709
h            2.62932528365876        5.59711530381602        0.33816670702605
h            3.73034901640940        6.64102985746502       -0.00669636577869
o            1.33299976532840        3.35175009863463       -2.62976703571802
h            0.45749943595432        2.91921002106430       -2.69841518964882
h            1.97843148464698        2.64451647864939       -2.51508306185777
o            1.84547635568221        3.67927212524804       -5.45938615239399
h            1.61238116060812        3.32245293725252       -6.33774321320268
h            2.33720222806101        2.95245112348046       -5.02810015060752
o            9.70029094133566       -2.43533900915634       -5.65532427361586
h           10.33137205128567       -3.03178743231946       -5.23387361961648
h           10.08688476966871       -1.55059501794025       -5.56456984793555
o            6.91537948041164       -2.09173185133530       -6.72341529942120
h            6.68578729871222       -1.38425378257307       -6.09840227840831
h            7.87429014984632       -2.15478957588517       -6.70916226224344
o           -5.84467601134815        3.36197386308615        6.95017949378300
h           -6.09895100875737        2.45666560357758        7.17772261547179
h           -4.89985925450535        3.29128278634463        6.75487211810276
o            9.50741307882994       -1.90143439409068        1.23668191316421
h           10.30224015048864       -2.41893582197798        1.48852215959918
h            9.16356385383153       -2.37208990072429        0.45058971499535
o            6.95672724097546        0.44591924132882        3.02802335466909
h            7.03514323020023        0.20109901444281        3.96579078326562
h            7.86050692732500        0.60802527488939        2.72700120059676
o            4.89612641185154        2.16624723002187        2.79679363752171
h            4.70549833983748        1.51863171210559        3.49976630680193
h            5.62065287343232        2.70718789323481        3.14972986677713
o           -4.69840581239587        0.28639937082878       -6.31524534259006
h           -4.16558406142958        0.85342926742145       -6.91481881496324
h           -4.25479240965298       -0.57643880261950       -6.33652771311562
o           -8.52380326618668       -2.93520657328008        0.56016670852958
h           -8.94443594386141       -2.15160446428059        0.13946983976048
h           -8.93521955231658       -3.70645792292564        0.13867407683409
o           -6.43426037964797       -1.33206197101530        1.07446298161424
h           -6.63985198857386       -0.57181697334847        0.51294182231073
h           -7.07945951128875       -2.02294060761732        0.84377523301704
o            0.34889533363065        6.79972658434137        0.20035821401159
h            0.11008349098671        6.18151444289698       -0.50627047762975
h           -0.34207919406302        7.47644786335732        0.26778082565623
o           -5.78289873087983        0.50363035867441        7.13247936216959
h           -5.08682193935947        0.47982593648332        7.79988337754950
h           -5.31116805574559        0.34527358046661        6.27775081516893
o            9.52721793139265        0.79195206732488        2.19726832794408
h           10.14479336099592        1.56712945350630        2.23147941057013
h            9.90965956411081        0.13681491880678        2.78890601245329
o            2.41253110577264        0.44928152251720        2.74918105583923
h            2.45446018858241        1.02526463437878        1.96656671914796
h            2.20670879926824        1.04932353224692        3.49189770883195
o           10.46057247789883       -1.49341223544541       -2.45239749987360
h           10.54630895844442       -0.86091291222677       -1.69894431957692
h           10.33488202976011       -0.92112995884027       -3.24115929639498
o            6.96083601779388        2.05185345623499       -7.84945731905058
h            6.41174890983668        1.34678721224917       -8.21527520801100
h            6.34726875001909        2.63398988822613       -7.36168741420411
o            2.88567859177545       -2.65701978398933       -1.48590716444214
h            3.34355149669536       -2.30766749440155       -2.28380001801575
h            3.17582286825633       -3.57395718741864       -1.40756654951005
o          -11.94439115783437        0.99513660337405       -1.74161815721791
h          -12.34294143825835        1.48860934249137       -1.01033510386405
h          -11.91976827241898        1.57282920677777       -2.51560860490926
o          -11.04662752972622        2.36955406285997       -3.96734435582132
h          -10.36866802062523        2.95879704289162       -3.57166517553154
h          -11.26009963722118        2.74628244730774       -4.82053813556485
o           -3.89231232278294        6.79556888872684        3.29207850497042
h           -4.52668002832799        6.16617443982071        3.68902371644315
h           -3.35052698424790        7.12269009627757        4.01863388726306
o           -2.73625337243860        6.19141938187842       -0.61799893256361
h           -3.50765857846960        5.57984096011896       -0.56246402881607
h           -2.29300237826173        6.11601045907453        0.25743712001585
o            3.00530372237654       -3.48269386248597       -6.38460092165543
h            2.45955944810921       -3.93075441091600       -5.71985622422827
h            2.80183442725409       -2.54017497932995       -6.26995750899185
o           -6.45839000690978        6.41534750080306        0.99686491291396
h           -5.89477156660065        7.19859690533531        1.02699947111797
h           -6.91912461586370        6.39350752782905        1.86196334005264
o           -2.02256321515250        8.37529880326437       -2.14292716638575
h           -2.26575653899000        7.59353827879381       -1.61401049235672
h           -1.12706465113445        8.19461789342746       -2.50637976606548
o            5.32923426246952       -3.64362363245519       -5.18174716375252
h            5.97086992184029       -3.19107555344148       -5.75876026201934
h            4.49215364793141       -3.67313904751683       -5.70622822609274
o           -4.84181235209084        1.28849355715716       -3.80701321319669
h           -4.97062618344002        0.88970284805619       -4.68948243172377
h           -4.91059604930945        0.55942939369764       -3.16113272501953
o           -3.12994178261308        0.40486603863757        7.97369144272453
h           -2.81040257735904       -0.32466513287857        7.41598891546615
h           -2.34894095537234        0.73230142545918        8.43759626578458
o           -4.72957366860404       -5.66789173224946       -5.26942657311787
h           -3.95901564899394       -5.54621193983870       -5.84889266145696
h           -4.35562673299774       -5.90340744049919       -4.40154265833767
o           -3.85185244163622       -3.53669351717587       -2.58237200671508
h           -3.91175796737834       -4.51320110137866       -2.64260274222701
h           -3.27542079561620       -3.31911470946236       -1.81901040173767
o           -6.95920763584534        3.02427996561613       -0.32802847316645
h           -6.95844171061621        3.15420733776182        0.63617261297770
h           -7.73623243745512        2.49318755348917       -0.55558023285511
o           -7.01878218011779       -6.20972497007997       -1.87210316401197
h           -6.70573036066177       -5.30461373705325       -1.61897591879643
h           -7.62475103849773       -6.46896665202814       -1.16786508074882
o            7.50031589734296       -0.23719143469429        5.57195758965013
h            6.76259699238630       -0.52387155729661        6.14702525119727
h            8.03130296877933       -1.03279559368001        5.40346570388232
o           -0.60972990603092        4.31251567039740       -4.53275316646450
h           -0.79181509453786        5.22133843837969       -4.85335794851973
h            0.32239266968930        4.12036607652441       -4.75383678985301
o            5.77761686606992        2.80123997100915       -3.65012357705244
h            6.71417290757857        2.98083810414666       -3.48162574348517
h            5.28406364946011        3.32032964334938       -2.98030064649670
o          -11.91683964149046       -2.78998454205366        0.03461923968805
h          -12.06087788132728       -1.95617718311138        0.51247347525426
h          -11.80037749209555       -2.51541324152713       -0.88661499374229
o            3.38010551010398        4.26765965235932        2.63950399451447
h            2.56406913371334        4.74857618574087        2.39306397947867
h            3.93331446147887        4.90491536133613        3.12176846507157
o           -0.51198647639923        1.26346969787887        8.47013609936568
h           -0.52312466496623        1.68903106189691        7.57690838103690
h            0.28006412491667        1.58818705455258        8.89802844526708
o           -2.34470538036508       -1.58416675202566        6.20952731689831
h           -1.85246661313375       -1.61676314680132        5.36668521079475
h           -2.91837512054171       -2.38272482293771        6.22284714966246
o            1.96069460929276       -5.91562249796612        5.22348320578074
h            1.10545933433851       -6.34894142396365        4.98124194095516
h            2.61867245294709       -6.60789217333919        5.08213874529410
o           -0.74481424889848        3.75962047669368        0.82086195894263
h           -1.42027042183167        3.45801464957549        0.18021348898026
h           -1.10630460716042        4.56337360932345        1.23848866719672
o            2.10992068524789       -0.64537683312388        6.66835501732985
h            2.71709029151634       -1.40077875793969        6.52596955463956
h            1.35531899445769       -1.01597653214093        7.17870135098108
o           -1.50577667949822       -8.08037205322702       -0.83299929971660
h           -1.93258967529992       -8.01537310325712        0.03933970585020