      -----------------------------------------------------------      
     |                   =====================                   |     
     |                           x T B                           |     
     |                   =====================                   |     
     |                         S. Grimme                         |     
     |          Mulliken Center for Theoretical Chemistry        |     
     |                    University of Bonn                     |     
      -----------------------------------------------------------      

   * xtb version 6.5.1 (579679a) compiled by 'ehlert@majestix' on 2022-07-11

   xtb is free software: you can redistribute it and/or modify it under
   the terms of the GNU Lesser General Public License as published by
   the Free Software Foundation, either version 3 of the License, or
   (at your option) any later version.
   
   xtb is distributed in the hope that it will be useful,
   but WITHOUT ANY WARRANTY; without even the implied warranty of
   MERCHANTABILITY or FITNESS FOR A PARTICULAR PURPOSE.  See the
   GNU Lesser General Public License for more details.
   
   Cite this work as:
   * C. Bannwarth, E. Caldeweyher, S. Ehlert, A. Hansen, P. Pracht,
     J. Seibert, S. Spicher, S. Grimme, WIREs Comput. Mol. Sci., 2020, 11,
     e01493. DOI: 10.1002/wcms.1493
   
   for GFN2-xTB:
   * C. Bannwarth, S. Ehlert and S. Grimme., J. Chem. Theory Comput., 2019,
     15, 1652-1671. DOI: 10.1021/acs.jctc.8b01176
   for GFN1-xTB:
   * S. Grimme, C. Bannwarth, P. Shushkov, J. Chem. Theory Comput., 2017,
     13, 1989-2009. DOI: 10.1021/acs.jctc.7b00118
   for GFN0-xTB:
   * P. Pracht, E. Caldeweyher, S. Ehlert, S. Grimme, ChemRxiv, 2019, preprint.
     DOI: 10.26434/chemrxiv.8326202.v1
   for GFN-FF:
   * S. Spicher and S. Grimme, Angew. Chem. Int. Ed., 2020, 59, 15665-15673.
     DOI: 10.1002/anie.202004239
   
   for ALPB and GBSA implicit solvation:
   * S. Ehlert, M. Stahn, S. Spicher, S. Grimme, J. Chem. Theory Comput.,
     2021, 17, 4250-4261. DOI: 10.1021/acs.jctc.1c00471
   
   for DFT-D4:
   * E. Caldeweyher, C. Bannwarth and S. Grimme, J. Chem. Phys., 2017,
     147, 034112. DOI: 10.1063/1.4993215
   * E. Caldeweyher, S. Ehlert, A. Hansen, H. Neugebauer, S. Spicher,
     C. Bannwarth and S. Grimme, J. Chem. Phys., 2019, 150, 154122.
     DOI: 10.1063/1.5090222
   * E. Caldeweyher, J.-M. Mewes, S. Ehlert and S. Grimme, Phys. Chem. Chem. Phys.
     2020, 22, 8499-8512. DOI: 10.1039/D0CP00502A
   
   for sTDA-xTB:
   * S. Grimme and C. Bannwarth, J. Chem. Phys., 2016, 145, 054103.
     DOI: 10.1063/1.4959605
   
   in the mass-spec context:
   * V. Asgeirsson, C. Bauer and S. Grimme, Chem. Sci., 2017, 8, 4879.
     DOI: 10.1039/c7sc00601b
   * J. Koopman and S. Grimme, ACS Omega 2019, 4, 12, 15120-15133.
     DOI: 10.1021/acsomega.9b02011
   
   for metadynamics refer to:
   * S. Grimme, J. Chem. Theory Comput., 2019, 155, 2847-2862
     DOI: 10.1021/acs.jctc.9b00143
   
   for SPH calculations refer to:
   * S. Spicher and S. Grimme, J. Chem. Theory Comput., 2021, 17, 1701-1714
     DOI: 10.1021/acs.jctc.0c01306
   
   with help from (in alphabetical order)
   P. Atkinson, C. Bannwarth, F. Bohle, G. Brandenburg, E. Caldeweyher
   M. Checinski, S. Dohm, S. Ehlert, S. Ehrlich, I. Gerasimov, C. Hölzer
   A. Katbashev, J. Koopman, C. Lavigne, S. Lehtola, F. März, M. Müller,
   F. Musil, H. Neugebauer, J. Pisarek, C. Plett, P. Pracht, F. Pultar,
   J. Seibert, P. Shushkov, S. Spicher, M. Stahn, M. Steiner, T. Strunk,
   J. Stückrath, T. Rose, and J. Unsleber
   
 * started run on 2022/11/17 at 06:48:47.985     

           -------------------------------------------------
          |                Calculation Setup                |
           -------------------------------------------------

          program call               : xtb solvent_cluster.coord --gfn2 --input xcontrol --opt 1
          hostname                   : cn0363
          coordinate file            : solvent_cluster.coord
          omp threads                :                     2

   ID    Z sym.   atoms
    1    8 o      1, 4, 7, 10, 13, 16, 19, 22, 25, 28, 31, 34, 37, 40, 43,
                  46, 49, 52, 55, 58, 61, 64, 67, 70, 73, 76, 79, 82, 85, 88,
                  91, 94, 97, 100, 103, 106, 109, 112, 115, 118, 121, 124,
                  127, 130, 133, 136, 139, 142, 145, 148, 151, 154, 157, 160,
                  163, 166, 169, 172, 175, 178, 181, 184, 187, 190, 193, 196,
                  199, 202, 205, 208, 211, 214, 217, 220, 223, 226, 229, 232,
                  235, 238, 241, 244, 247, 250, 253, 256, 259, 262, 265, 268,
                  271, 274, 277, 280, 283, 286, 289, 292, 295, 298, 301, 304,
                  307, 310, 313, 316, 319, 322, 325, 328, 331, 334, 337, 340,
                  343, 346, 349, 352, 355, 358, 361, 364, 367, 370, 373, 376,
                  379, 382, 385, 388, 391, 394, 397, 400, 403, 406, 409, 412,
                  415, 418, 421, 424, 427, 430, 433, 436, 439, 442, 445, 448,
                  451, 454, 457, 460, 463, 466, 469, 472, 475, 478, 481, 484,
                  487, 490, 493, 496, 499, 502, 505, 508, 511, 514, 517, 520,
                  523, 526, 529
    2    1 h      2, 3, 5, 6, 8, 9, 11, 12, 14, 15, 17, 18, 20, 21, 23, 24,
                  26, 27, 29, 30, 32, 33, 35, 36, 38, 39, 41, 42, 44, 45, 47,
                  48, 50, 51, 53, 54, 56, 57, 59, 60, 62, 63, 65, 66, 68, 69,
                  71, 72, 74, 75, 77, 78, 80, 81, 83, 84, 86, 87, 89, 90, 92,
                  93, 95, 96, 98, 99, 101, 102, 104, 105, 107, 108, 110, 111,
                  113, 114, 116, 117, 119, 120, 122, 123, 125, 126, 128, 129,
                  131, 132, 134, 135, 137, 138, 140, 141, 143, 144, 146, 147,
                  149, 150, 152, 153, 155, 156, 158, 159, 161, 162, 164, 165,
                  167, 168, 170, 171, 173, 174, 176, 177, 179, 180, 182, 183,
                  185, 186, 188, 189, 191, 192, 194, 195, 197, 198, 200, 201,
                  203, 204, 206, 207, 209, 210, 212, 213, 215, 216, 218, 219,
                  221, 222, 224, 225, 227, 228, 230, 231, 233, 234, 236, 237,
                  239, 240, 242, 243, 245, 246, 248, 249, 251, 252, 254, 255,
                  257, 258, 260, 261, 263, 264, 266, 267, 269, 270, 272, 273,
                  275, 276, 278, 279, 281, 282, 284, 285, 287, 288, 290, 291,
                  293, 294, 296, 297, 299, 300, 302, 303, 305, 306, 308, 309,
                  311, 312, 314, 315, 317, 318, 320, 321, 323, 324, 326, 327,
                  329, 330, 332, 333, 335, 336, 338, 339, 341, 342, 344, 345,
                  347, 348, 350, 351, 353, 354, 356, 357, 359, 360, 362, 363,
                  365, 366, 368, 369, 371, 372, 374, 375, 377, 378, 380, 381,
                  383, 384, 386, 387, 389, 390, 392, 393, 395, 396, 398, 399,
                  401, 402, 404, 405, 407, 408, 410, 411, 413, 414, 416, 417,
                  419, 420, 422, 423, 425, 426, 428, 429, 431, 432, 434, 435,
                  437, 438, 440, 441, 443, 444, 446, 447, 449, 450, 452, 453,
                  455, 456, 458, 459, 461, 462, 464, 465, 467, 468, 470, 471,
                  473, 474, 476, 477, 479, 480, 482, 483, 485, 486, 488, 489,
                  491, 492, 494, 495, 497, 498, 500, 501, 503, 504, 506, 507,
                  509, 510, 512, 513, 515, 516, 518, 519, 521, 522, 524, 525,
                  527, 528, 530, 531

molecular fragmentation (1/2 indicates fragments):
111222222222222222222222222222222222222222222222222222222222222222222222
222222222222222222222222222222222222222222222222222222222222222222222222
222222222222222222222222222222222222222222222222222222222222222222222222
222222222222222222222222222222222222222222222222222222222222222222222222
222222222222222222222222222222222222222222222222222222222222222222222222
222222222222222222222222222222222222222222222222222222222222222222222222
222222222222222222222222222222222222222222222222222222222222222222222222
222222222222222222222222222
# atoms in fragment 1/2:     3   528
 fragment masses (1/2) :       18.02     3170.69
CMA distance (Bohr)    :   6.429
constraining FC (au)   :  0.0500

           -------------------------------------------------
          |                 G F N 2 - x T B                 |
           -------------------------------------------------

        Reference                      10.1021/acs.jctc.8b01176
      * Hamiltonian:
        H0-scaling (s, p, d)           1.850000    2.230000    2.230000
        zeta-weighting                 0.500000
      * Dispersion:
        s8                             2.700000
        a1                             0.520000
        a2                             5.000000
        s9                             5.000000
      * Repulsion:
        kExp                           1.500000    1.000000
        rExp                           1.000000
      * Coulomb:
        alpha                          2.000000
        third order                    shell-resolved
        anisotropic                    true
        a3                             3.000000
        a5                             4.000000
        cn-shift                       1.200000
        cn-exp                         4.000000
        max-rad                        5.000000


          ...................................................
          :                      SETUP                      :
          :.................................................:
          :  # basis functions                1062          :
          :  # atomic orbitals                1062          :
          :  # shells                          708          :
          :  # electrons                      1416          :
          :  max. iterations                   250          :
          :  Hamiltonian                  GFN2-xTB          :
          :  restarted?                      false          :
          :  GBSA solvation                  false          :
          :  PC potential                    false          :
          :  electronic temp.          300.0000000     K    :
          :  accuracy                    1.0000000          :
          :  -> integral cutoff          0.2500000E+02      :
          :  -> integral neglect         0.1000000E-07      :
          :  -> SCF convergence          0.1000000E-05 Eh   :
          :  -> wf. convergence          0.1000000E-03 e    :
          :  Broyden damping             0.4000000          :
          ...................................................

 iter      E             dE          RMSdq      gap      omega  full diag
   1   -906.5639441 -0.906564E+03  0.407E+00    8.73       0.0  T
   2   -906.6215985 -0.576543E-01  0.241E+00    7.60       1.0  T
   3   -906.6443283 -0.227298E-01  0.215E-01    5.80       1.0  T
   4   -906.6483205 -0.399221E-02  0.467E-02    6.26       1.0  T
   5   -906.6483902 -0.697375E-04  0.314E-02    6.19       1.0  T
   6   -906.6484202 -0.299450E-04  0.436E-03    6.23       1.0  T
   7   -906.6484220 -0.179785E-05  0.759E-04    6.23       5.7  T
   8   -906.6484220 -0.213619E-07  0.391E-04    6.22      11.1  T
   9   -906.6484220 -0.105522E-07  0.589E-05    6.22      73.6  T

   *** convergence criteria satisfied after 9 iterations ***

         #    Occupation            Energy/Eh            Energy/eV
      -------------------------------------------------------------
         1        2.0000           -0.6928511             -18.8534
       ...           ...                  ...                  ...
       702        2.0000           -0.3504421              -9.5360
       703        2.0000           -0.3497755              -9.5179
       704        2.0000           -0.3457339              -9.4079
       705        2.0000           -0.3415998              -9.2954
       706        2.0000           -0.3380118              -9.1978
       707        2.0000           -0.3253500              -8.8532
       708        2.0000           -0.3094359              -8.4202 (HOMO)
       709                         -0.0806715              -2.1952 (LUMO)
       710                         -0.0596057              -1.6220
       711                         -0.0524103              -1.4262
       712                         -0.0469813              -1.2784
       713                         -0.0408422              -1.1114
       ...                                ...                  ...
      1062                          0.4774432              12.9919
      -------------------------------------------------------------
                  HL-Gap            0.2287644 Eh            6.2250 eV
             Fermi-level           -0.1950537 Eh           -5.3077 eV

 SCC (total)                   0 d,  0 h,  0 min,  8.356 sec
 SCC setup                      ...        0 min,  0.027 sec (  0.325%)
 Dispersion                     ...        0 min,  0.086 sec (  1.033%)
 classical contributions        ...        0 min,  0.016 sec (  0.187%)
 integral evaluation            ...        0 min,  0.440 sec (  5.268%)
 iterations                     ...        0 min,  2.972 sec ( 35.568%)
 molecular gradient             ...        0 min,  4.786 sec ( 57.280%)
 printout                       ...        0 min,  0.028 sec (  0.338%)

         :::::::::::::::::::::::::::::::::::::::::::::::::::::
         ::                     SUMMARY                     ::
         :::::::::::::::::::::::::::::::::::::::::::::::::::::
         :: total energy            -901.179665887874 Eh    ::
         :: gradient norm              0.099612417308 Eh/a0 ::
         :: HOMO-LUMO gap              6.224996970412 eV    ::
         ::.................................................::
         :: SCC energy              -906.648421990126 Eh    ::
         :: -> isotropic ES            5.097273054844 Eh    ::
         :: -> anisotropic ES         -1.110002005844 Eh    ::
         :: -> anisotropic XC         -0.093218393523 Eh    ::
         :: -> dispersion             -0.530060749473 Eh    ::
         :: repulsion energy           5.374765449101 Eh    ::
         :: add. restraining           0.000000000000 Eh    ::
         :: total charge              -0.000000000000 e     ::
         :::::::::::::::::::::::::::::::::::::::::::::::::::::

      ----------------------------------------------------------- 
     |                       L-ANC optimizer                     |
      ----------------------------------------------------------- 
          low memory version by Sebastian Ehlert

          ...................................................
          :                      SETUP                      :
          :.................................................:
          :   energy convergence        0.1000000E-05 Eh    :
          :   grad. convergence         0.8000000E-03 Eh/a0 :
          :   optimization log               true           :
          :   writing optlog all                1     steps :
          :   Hessian reset                    20     steps :
          :   maximium step len.        1.0000000     a0    :
          :   LBFGS images                     20           :
          ...................................................
 * calculating model hessian...
Using Lindh-Hessian (1995)
 Shifting diagonal of input Hessian by   1.000004462675207E-002
 Lowest  eigenvalues of input Hessian
    0.010000   -0.000000   -0.000000   -0.000000   -0.000000   -0.000000
   -0.000000   -0.000000   -0.000000   -0.000000   -0.000000   -0.000000
   -0.000000   -0.000000   -0.000000   -0.000000   -0.000000   -0.000000
 Highest eigenvalues
    0.309149    0.321856    1.222169    1.235382    1.417958    1.447967
 

........................................................................
.............................. CYCLE    1 ..............................
........................................................................
   1   -906.6482657 -0.906648E+03  0.123E-02    6.23       0.0  T
   2   -906.6482728 -0.713592E-05  0.703E-03    6.22       1.0  T
   3   -906.6482738 -0.103599E-05  0.185E-03    6.22       2.3  T
   4   -906.6482740 -0.133617E-06  0.247E-04    6.22      17.6  T
   5   -906.6482740 -0.123316E-08  0.409E-05    6.22     106.2  T
     SCC iter.                  ...        0 min,  1.414 sec
     gradient                   ...        0 min,  4.821 sec
 * total energy  :  -901.1804134 Eh     change       -0.7474801E-03 Eh
   gradient norm :     0.0065798 Eh/a0  converged?    E=F G=F D=F
   step length   :     0.2079820 a0

........................................................................
.............................. CYCLE    2 ..............................
........................................................................
   1   -906.6452171 -0.906645E+03  0.225E-02    6.24       0.0  T
   2   -906.6452250 -0.789006E-05  0.137E-02    6.24       1.0  T
   3   -906.6452273 -0.237107E-05  0.186E-03    6.25       2.3  T
   4   -906.6452276 -0.265968E-06  0.499E-04    6.24       8.7  T
   5   -906.6452276 -0.383307E-08  0.564E-05    6.24      76.9  T
     SCC iter.                  ...        0 min,  1.406 sec
     gradient                   ...        0 min,  4.837 sec
 * total energy  :  -901.1807530 Eh     change       -0.3395868E-03 Eh
   gradient norm :     0.0140081 Eh/a0  converged?    E=F G=F D=F
   step length   :     0.2807432 a0

........................................................................
.............................. CYCLE    3 ..............................
........................................................................
   1   -906.6476147 -0.906648E+03  0.683E-03    6.26       0.0  T
   2   -906.6476152 -0.458754E-06  0.420E-03    6.27       1.0  T
   3   -906.6476154 -0.235416E-06  0.438E-04    6.27       9.9  T
   4   -906.6476154 -0.808870E-08  0.136E-04    6.27      31.9  T
     SCC iter.                  ...        0 min,  1.126 sec
     gradient                   ...        0 min,  4.843 sec
 * total energy  :  -901.1808814 Eh     change       -0.1283997E-03 Eh
   gradient norm :     0.0054295 Eh/a0  converged?    E=F G=F D=F
   step length   :     0.0743055 a0

........................................................................
.............................. CYCLE    4 ..............................
........................................................................
   1   -906.6482634 -0.906648E+03  0.467E-03    6.29       0.0  T
   2   -906.6482636 -0.223728E-06  0.283E-03    6.29       1.5  T
   3   -906.6482637 -0.654462E-07  0.308E-04    6.30      14.1  T
   4   -906.6482637 -0.780210E-08  0.825E-05    6.30      52.6  T
     SCC iter.                  ...        0 min,  1.118 sec
     gradient                   ...        0 min,  4.855 sec
 * total energy  :  -901.1809544 Eh     change       -0.7308461E-04 Eh
   gradient norm :     0.0032182 Eh/a0  converged?    E=F G=F D=F
   step length   :     0.0971723 a0

........................................................................
.............................. CYCLE    5 ..............................
........................................................................
   1   -906.6479009 -0.906648E+03  0.779E-03    6.32       0.0  T
   2   -906.6479017 -0.789431E-06  0.471E-03    6.32       1.0  T
   3   -906.6479019 -0.237391E-06  0.589E-04    6.32       7.4  T
   4   -906.6479020 -0.277847E-07  0.168E-04    6.32      25.8  T
     SCC iter.                  ...        0 min,  1.112 sec
     gradient                   ...        0 min,  4.780 sec
 * total energy  :  -901.1810045 Eh     change       -0.5003440E-04 Eh
   gradient norm :     0.0048358 Eh/a0  converged?    E=F G=F D=F
   step length   :     0.1400633 a0

........................................................................
.............................. CYCLE    6 ..............................
........................................................................
   1   -906.6480601 -0.906648E+03  0.371E-03    6.32       0.0  T
   2   -906.6480602 -0.110276E-06  0.225E-03    6.32       1.9  T
   3   -906.6480602 -0.451254E-07  0.218E-04    6.32      19.9  T
   4   -906.6480602 -0.329453E-08  0.702E-05    6.32      61.8  T
     SCC iter.                  ...        0 min,  1.098 sec
     gradient                   ...        0 min,  4.864 sec
 * total energy  :  -901.1810367 Eh     change       -0.3223035E-04 Eh
   gradient norm :     0.0032171 Eh/a0  converged?    E=F G=F D=F
   step length   :     0.0580165 a0

........................................................................
.............................. CYCLE    7 ..............................
........................................................................
   1   -906.6482649 -0.906648E+03  0.552E-03    6.33       0.0  T
   2   -906.6482651 -0.272167E-06  0.336E-03    6.32       1.3  T
   3   -906.6482652 -0.123834E-06  0.354E-04    6.32      12.2  T
   4   -906.6482653 -0.771729E-08  0.119E-04    6.32      36.6  T
     SCC iter.                  ...        0 min,  1.079 sec
     gradient                   ...        0 min,  4.882 sec
 * total energy  :  -901.1810745 Eh     change       -0.3782536E-04 Eh
   gradient norm :     0.0019573 Eh/a0  converged?    E=F G=F D=F
   step length   :     0.0843345 a0

........................................................................
.............................. CYCLE    8 ..............................
........................................................................
   1   -906.6482096 -0.906648E+03  0.848E-03    6.33       0.0  T
   2   -906.6482102 -0.582116E-06  0.518E-03    6.33       1.0  T
   3   -906.6482105 -0.310312E-06  0.522E-04    6.33       8.3  T
   4   -906.6482105 -0.125456E-07  0.174E-04    6.33      24.9  T
     SCC iter.                  ...        0 min,  1.084 sec
     gradient                   ...        0 min,  4.907 sec
 * total energy  :  -901.1811047 Eh     change       -0.3017204E-04 Eh
   gradient norm :     0.0015671 Eh/a0  converged?    E=F G=F D=F
   step length   :     0.1251175 a0

........................................................................
.............................. CYCLE    9 ..............................
........................................................................
   1   -906.6491430 -0.906649E+03  0.321E-03    6.34       0.0  T
   2   -906.6491432 -0.195888E-06  0.191E-03    6.34       2.3  T
   3   -906.6491433 -0.428489E-07  0.307E-04    6.34      14.2  T
   4   -906.6491433 -0.605837E-08  0.675E-05    6.34      64.3  T
     SCC iter.                  ...        0 min,  1.080 sec
     gradient                   ...        0 min,  4.941 sec
 * total energy  :  -901.1811014 Eh     change        0.3281133E-05 Eh
   gradient norm :     0.0049570 Eh/a0  converged?    E=F G=F D=F
   step length   :     0.0417642 a0

........................................................................
.............................. CYCLE   10 ..............................
........................................................................
   1   -906.6484407 -0.906648E+03  0.397E-03    6.35       0.0  T
   2   -906.6484409 -0.187504E-06  0.242E-03    6.36       1.8  T
   3   -906.6484409 -0.749296E-07  0.295E-04    6.36      14.7  T
   4   -906.6484409 -0.538932E-08  0.922E-05    6.36      47.1  T
     SCC iter.                  ...        0 min,  1.068 sec
     gradient                   ...        0 min,  4.933 sec
 * total energy  :  -901.1811186 Eh     change       -0.1718546E-04 Eh
   gradient norm :     0.0017260 Eh/a0  converged?    E=F G=F D=F
   step length   :     0.0564620 a0

........................................................................
.............................. CYCLE   11 ..............................
........................................................................
   1   -906.6481988 -0.906648E+03  0.116E-03    6.37       0.0  T
   2   -906.6481988 -0.247392E-07  0.681E-04    6.37       6.4  T
   3   -906.6481988 -0.494470E-08  0.106E-04    6.37      40.8  T
     SCC iter.                  ...        0 min,  0.809 sec
     gradient                   ...        0 min,  4.933 sec
 * total energy  :  -901.1811207 Eh     change       -0.2073051E-05 Eh
   gradient norm :     0.0006249 Eh/a0  converged?    E=F G=T D=F
   step length   :     0.0192479 a0

........................................................................
.............................. CYCLE   12 ..............................
........................................................................
   1   -906.6482980 -0.906648E+03  0.722E-04    6.37       0.0  T
   2   -906.6482980 -0.653711E-08  0.436E-04    6.36      10.0  T
   3   -906.6482980 -0.196462E-08  0.540E-05    6.36      80.3  T
     SCC iter.                  ...        0 min,  0.810 sec
     gradient                   ...        0 min,  4.945 sec
 * total energy  :  -901.1811212 Eh     change       -0.5672117E-06 Eh
   gradient norm :     0.0001451 Eh/a0  converged?    E=T G=T D=F
   step length   :     0.0105691 a0

   *** GEOMETRY OPTIMIZATION CONVERGED AFTER 12 CYCLES ***

------------------------------------------------------------------------
 total energy gain   :        -0.0014554 Eh       -0.9133 kcal/mol
 total RMSD          :         0.0371009 a0        0.0196 Å
 total power (kW/mol):        -0.3184202 (step)   -0.0466 (real)
------------------------------------------------------------------------

 L-ANCopt (total)              0 d,  0 h,  1 min, 22.006 sec
 setup                          ...        0 min,  0.017 sec (  0.021%)
 model hessian                  ...        0 min,  3.890 sec (  4.743%)
 ANC generation                 ...        0 min,  1.014 sec (  1.236%)
 coordinate transformation      ...        0 min,  0.001 sec (  0.002%)
 Rational function              ...        0 min,  0.000 sec (  0.000%)
 singlepoint calculation        ...        1 min, 17.019 sec ( 93.918%)
 optimization log               ...        0 min,  0.061 sec (  0.075%)
 hessian update                 ...        0 min,  0.000 sec (  0.000%)

================
 final structure:
================
$coord
        2.50586785116200       -5.57939795145400       -1.56082894964200      o
        1.69307481523300       -6.33858780553000       -0.09999461919400      h
        2.48081249674300       -6.87497751811900       -2.86647718819200      h
        2.58951465525900       -5.33371011993200        3.50486759616200      o
        3.68633973141600       -3.86495477129900        3.38380190751200      h
        1.29229384592200       -4.92862999026100        4.72730622910700      h
        5.75790990300700        3.60721662831800        0.64196154441700      o
        4.15773745814400        4.46716107226500        0.80442914610500      h
        7.01788250103600        4.88490926254100        1.04386659264200      h
        2.34073158113400       -2.17951109690500       -6.20864838334100      o
        1.04340070187400       -0.88890881705700       -6.41185480702600      h
        1.39150419407700       -3.74846694602900       -6.25966651930600      h
      -11.25375196791300       -0.87552405369800        3.19909006861000      o
      -11.53095334387600        0.49630824272400        4.40457407088900      h
      -12.92286368163300       -1.45461124538900        2.70437889867000      h
        8.25282928446300       -8.28285507790000       -4.28804815063300      o
        7.69957216680100       -7.13121552747800       -5.63455524714000      h
        8.77819171122400       -9.83675132487700       -5.12637556043100      h
       -5.95820226061900       -1.49815431354700        4.05975226675500      o
       -4.71767138860000       -2.84655260280800        4.28104268010300      h
       -6.41078990658100       -0.85642080103700        5.72268165378100      h
        8.06471528973100       -5.22173073461200        5.27444501715700      o
        7.61995778786900       -5.57370891957800        3.52645302766800      h
        6.80829338962900       -4.06690808879400        5.95576525094800      h
       -2.90913403478400       -5.52537342250900        3.76528083160600      o
       -4.26380934093800       -6.67848744483100        3.24103148064200      h
       -2.12571539355300       -6.34767702149600        5.21034370165500      h
       -0.30483182478400        6.37032973204500        6.44655040770300      o
        0.11019295802700        7.92820097844000        5.56127625438800      h
       -0.98185536657400        5.17699029735300        5.21781210345300      h
       -2.37780899579800       -4.02319532986000       -1.11010591158100      o
       -2.06190456181000       -4.75965570251500        0.53815612957400      h
       -4.16989619943200       -3.63237994448200       -1.10007570695700      h
        4.75570785014500        7.03338294430900        5.13621033810100      o
        6.22010094670400        7.64452617559600        4.18129437383600      h
        4.61045249072100        8.09042275966300        6.62255670151100      h
        1.54612625909100        6.68213455298500        1.06411961938800      o
        2.49056541564200        7.10921558420700        2.57743778256800      h
       -0.14789438722300        7.33286606098700        1.31310017837900      h
       -5.80637660072500        6.27520102167700        6.28123289443700      o
       -6.68024805676600        5.03287282809500        5.22809491605900      h
       -4.42831401882200        6.88367613982500        5.21644972896200      h
       -2.61681063090300        9.26360205028500       -8.32057846930200      o
       -4.06783693048300        8.83849413219300       -9.36168121434400      h
       -1.12061380037400        8.88082262718500       -9.30555085020100      h
       -5.78906315626600       13.34421939805200       -3.28988343697900      o
       -6.24089499027200       11.68773246435400       -3.95075952734600      h
       -4.40832067330300       13.94879225498100       -4.30817359215300      h
       -7.62544051798400        9.15273975491700       -5.69285757252700      o
       -7.59071692347500        9.38575579362600       -7.49731342556200      h
       -7.19780459481600        7.37595346954300       -5.44269202459700      h
       -1.10820363199300       -5.94560039125600       -5.56270505558000      o
       -1.52208319968200       -5.15501635085400       -3.92549843846300      h
       -0.97887228789800       -7.73074606550600       -5.18185893116400      h
        6.82345398137500        2.48110386527200        5.89863864501700      o
        5.98241519486300        4.10182467610200        5.59878158539900      h
        7.00350514627200        2.30129706102600        7.71802596373900      h
       10.07012743537000       -2.53539926451100        0.30879912810300      o
        9.08622108232700       -2.35993505578800       -1.22591696891900      h
       11.10900198961700       -4.00953865855800        0.03041256308000      h
      -11.52861698781200       11.96039698285600       -3.80904439317700      o
      -10.24338352351000       10.78483847718600       -4.43934530727900      h
      -11.27224025178300       13.50808302779300       -4.70934448676000      h
       -1.62355312357900        0.98544908619100       -6.44698327021800      o
       -2.03543454890700        1.72500682512300       -8.06266623890800      h
       -3.14761577812300        0.04463408537200       -5.93340054805100      h
       11.51093121537400        7.11300711712400        7.97406246821700      o
       12.16180199617800        7.19122975976000        6.25249326889100      h
       12.19902055428500        5.50724100937400        8.55878945308400      h
       15.84152816657300       -2.73938340491000        1.20059283537600      o
       14.39350307003000       -2.99918913465800        2.32970235720300      h
       17.30137180479000       -2.72620439869200        2.36441132069800      h
      -11.22190224462800        5.76256644059100       -3.18341849818000      o
      -10.98793475233600        5.86269664478800       -5.01479596685600      h
      -11.09394534961700        3.96419646566100       -2.76013866790100      h
        6.91396385400200       -2.48961632780700       -3.72031813800900      o
        5.36164759234000       -3.29875714538500       -4.22316812442000      h
        6.62902455011000       -0.66995065850000       -3.93614971455900      h
       -9.72790772094000       -5.16797693007400        5.18111180212100      o
      -10.13585668571600       -3.54868255412200        4.35138115402000      h
       -8.49059462891500       -4.74997463307500        6.46992840829900      h
       -6.59915750555900        4.01584247535500       -5.89993920524900      o
       -5.48630317939200        3.88132813190000       -7.33400465016200      h
       -7.94791453019000        2.81590324157200       -6.17464548552200      h
      -11.05110547059400        5.71657369989800       -8.32697097509400      o
      -12.69940953812000        6.54226248081800       -8.67574547005300      h
      -11.31112921481200        3.92187331708100       -8.47453290075200      h
       11.19610023227400       -1.59241480482400       10.78074001063500      o
       12.63478625952300       -2.69598554575100       10.54927191391400      h
        9.78510872235900       -2.72326259200900       11.09896782734000      h
        8.93445849676200       -5.11356728745300      -12.35198565599700      o
       10.11612206522300       -6.43342507159100      -11.87717466015100      h
        9.92963346667600       -3.56314371520800      -12.17288859615800      h
      -17.30588457826000       -8.22238553599200       -3.29158288472200      o
      -17.46663008799700       -8.22063399493000       -1.47069559508300      h
      -15.54870137295800       -8.64981997525700       -3.63988126360500      h
       -4.60505742480300        3.72674416867400       -1.24466619106000      o
       -5.43026709027500        3.34795053759500       -2.84111285545400      h
       -3.87437310212500        5.38229886900300       -1.55399923949900      h
        3.20289829064100       -9.54925755880000       -4.62901668714900      o
        4.99660433802500       -9.35686646890300       -4.27360638796200      h
        3.06583378809600       -9.67270518540400       -6.47040648723300      h
        2.29935321162500        2.57696832116300        8.42770702013900      o
        1.98285816457800        4.15719311464700        7.54079232732000      h
        2.01368166576200        2.93327534255700       10.20300789115500      h
        4.86432926728600      -14.64777127894700       -7.54335253672800      o
        3.90790941640200      -14.89081899248700       -5.98192085805000      h
        3.83000306116700      -13.58317796762500       -8.60082065431200      h
        4.63386841660600       -2.14780313254600        7.76154403913700      o
        4.27828949679400       -0.35642649421500        7.92229666161400      h
        5.41664062322000       -2.70223037947600        9.34431696876000      h
      -11.05386823141300       -5.89116413959300       -0.04876363149100      o
      -11.50727817366900       -6.78144335983000       -1.59747710304100      h
      -12.46787030852400       -4.81693398125200        0.41496357364300      h
       10.84509929791800        2.27324274950900       -1.58884800114000      o
       10.81157871088400        4.09481533560200       -1.82882650135000      h
       10.89417802552600        1.96902909168800        0.23414195746100      h
       -1.02040282418800       13.59909196910700       -6.08706532835500      o
        0.77123931326900       13.26336512249200       -6.37546380885700      h
       -1.84252356705600       12.24876296007100       -7.03475906712200      h
        6.94942732440900       -6.64772405280600        0.40845127547600      o
        7.72555342230700       -6.91322550443700       -1.22003404624800      h
        5.23166371000100       -6.08444663041600        0.00015450890700      h
        3.10596833110300       -0.69733391756100       13.37149869176200      o
        2.06247050922000       -2.20661067541000       13.17470629633600      h
        1.93738623519100        0.67367738742200       13.64683529503900      h
        6.83850317037400       -4.22269157030700       11.77894258834900      o
        5.87791862390300       -3.80683634024600       13.25920689921600      h
        6.57193250292000       -6.03049100768200       11.40067613808700      h
       -2.32490365855900        0.58619229915500        8.39589538069000      o
       -3.61576181523700        1.50796396239700        7.50224181874300      h
       -0.71814701826000        1.49067858698200        8.22482967767700      h
        0.99530468051500        4.76907098181100       -4.40068462125500      o
       -0.22426682601600        6.08314117541600       -3.93085199333800      h
       -0.04048056808000        3.29012348678800       -4.74662626508200      h
       -0.45297412307600       12.18335787010200       -1.30314599006000      o
       -0.61665183288500       13.02051457407700       -2.94936369393500      h
       -1.59794281447400       12.99513620747800       -0.13423055839500      h
       -7.17074650146500      -13.08683685160600        3.80865318985900      o
       -7.10832333989600      -11.30844710466200        3.27275314041300      h
       -8.34220664716400      -13.12985165670200        5.19570653697400      h
      -10.70831541136100        1.01822404330100       -1.57623879151600      o
       -9.23326075330600       -0.07218473220100       -1.70188716215800      h
      -11.16222311555900        0.86932664869200        0.20216488440900      h
       16.01532771873100        5.17773178821000       -2.76307787281000      o
       15.51168980371500        4.48204348690300       -4.38670332376000      h
       15.46512885682200        3.98187804234100       -1.44884622026300      h
       -4.11820286457500        3.10569271495200      -10.72759811031900      o
       -5.42943313550500        1.87804417616100      -11.11798377485100      h
       -2.76743595595900        2.80949029329000      -11.91873332803500      h
      -16.26143406615800        2.54531665835400       -3.04789389835100      o
      -17.36900026883200        3.91432220670300       -2.46145821685500      h
      -17.32397322761000        1.02602849279700       -2.99165915519500      h
       -0.01230469937400        3.66521060636700       12.88997693986300      o
        0.38556305272800        5.29986321615600       13.55930933124400      h
       -1.75138922296100        3.78658051689500       12.27562449414400      h
      -14.87276171447700       -1.53757484099000       -8.82656181919100      o
      -15.82639682419500       -2.60122874289800       -7.66287007646500      h
      -15.86759779246700        0.00421843145700       -8.96744101853500      h
       -7.50755168258700        1.33693234701700        7.91619780203700      o
       -9.11805211338800        2.05601863768700        7.41395843521300      h
       -7.60426385177600        1.16105612777100        9.73976261413800      h
       14.37269839372900       -5.31359470964400        9.03947209050500      o
       15.83415972919900       -5.95514136605200        8.14149099396300      h
       13.09413607323200       -6.64684126392700        8.91036065552000      h
       15.57385216477400        2.40773230637300        1.31191505375700      o
       15.66667735722400        0.57040175517000        1.26440465903600      h
       17.11612946444400        3.03852513069100        2.08341455734500      h
      -15.79244914983700        6.27095791701300        6.83053121405900      o
      -15.30290662036400        7.92717430280400        6.23287683544800      h
      -17.22640669952400        5.72208885317600        5.82411167838200      h
        0.22582994722800        0.94261110917700      -12.73023698713000      o
        1.03748424601600        1.87797158309500      -11.34855188486400      h
        1.56475341117300        0.00083697625300      -13.53158195441000      h
       -1.60960217980600       -9.09898629185200        7.23529595829600      o
       -3.25707673889800       -9.08312710565100        8.05648054661300      h
       -1.66742524272500      -10.46084127367800        6.00847916405200      h
        8.75623303276500       11.89790193176500       -1.37026530183900      o
        9.90135396464300       12.56039187076900       -0.08410758542400      h
        7.05752401737700       12.23995648906000       -0.76856859193100      h
       -7.46487528526800        8.09671798482000       -0.20589378916200      o
       -8.24208161458000        9.71330138279200        0.20802454228700      h
       -8.45075730937500        7.36584098473900       -1.55583735722100      h
      -15.03849799006900        2.16403208860500        1.78815023570700      o
      -13.92527109422700        3.59766152649900        2.14986507734700      h
      -15.25117120225500        2.15213135349000       -0.04511533715600      h
       -9.90048625483300       12.38293585612500        1.11086744865000      o
      -11.29425029015800       11.97161470279400        2.24445849751700      h
      -10.61929240137800       12.57546616421100       -0.56638713821500      h
      -11.88735036970400        6.02109560357900        2.05455308623800      o
      -10.32062599477500        5.11334174488100        2.46567222351900      h
      -11.77135958846800        6.40105812710100        0.27320882514900      h
       14.06982914042800       -1.11586186621100       -3.49040074945800      o
       12.98682720946900        0.22469218858700       -2.81068959633700      h
       14.61039321001800       -2.02366533210400       -2.00358643491200      h
        8.50953718646200        7.65170593441600        1.87968921415900      o
       10.25688253743200        7.32531846927800        2.40014109884500      h
        8.51863559707800        9.15081390024200        0.83263559983700      h
       10.90446049647000       -3.65658058265800       -6.49125080998400      o
        9.27525810519500       -3.36617479991500       -5.67290698886000      h
       12.15003329961700       -2.92353403489000       -5.33405761445600      h
        3.77781524946900        9.99671374937800        9.44716547116900      o
        2.19052781406400        9.69341164565500       10.31786370619900      h
        5.03961668723300        8.92195799437800       10.28994173710300      h
       -7.14555738600700       -4.08663474371500        9.46871295300900      o
       -8.75030783560100       -3.49896400782600       10.15530402383500      h
       -5.84661352851800       -3.27426706771200       10.53052928143600      h
       -7.72800748184100        3.32571189604800        2.65505680497300      o
       -6.76336524759200        3.66682182601700        1.10852099275800      h
       -7.39452683567700        1.59109421349700        3.11833072229900      h
       11.76797580360900       -1.17472271314200      -10.90594074998600      o
       11.20309961183900       -1.63151736754500       -9.20483432545800      h
       11.66146862527700        0.65182014529500      -11.07197429420900      h
       -6.82975275430400       -8.22468573082700        2.41538703609400      o
       -8.06467353982700       -7.15073614954700        3.28581792346900      h
       -7.00807876986200       -7.93019281270700        0.59463033804600      h
        6.18738240981900       -5.70757254478400       -8.09106278206300      o
        7.19264292176900       -5.37256639315900       -9.60711563248200      h
        4.44936545383700       -5.37910001008000       -8.53981944878000      h
        4.55450090372400       -2.18466543025700      -13.30169772525800      o
        5.26406214450700       -1.31117356365600      -11.82781885223100      h
        5.89143817706800       -3.28730057731500      -13.85989761521500      h
      -10.92175878211400       -4.59173927220500      -10.37516289192000      o
      -11.25486873906900       -6.37310129955300      -10.45717944418100      h
      -12.51651397662100       -3.71144093134300      -10.15900181406100      h
       16.08908688782300       -2.57432920341300       -8.31598990270300      o
       15.46660465039600       -1.68396558839300       -6.83774120282500      h
       14.81474553819600       -2.33008712430300       -9.61453926138100      h
       12.64920039081000       -6.68981819494700       -1.78239010251500      o
       11.18075697262600       -7.29708087834300       -2.69618078845600      h
       14.00495797344000       -6.68908548923700       -3.03749556282900      h
      -21.08406911948600       -3.90073725031200        1.03919948865500      o
      -20.60331964283600       -3.09652312610700        2.61191203605400      h
      -20.53795364317100       -5.62835115193700        1.14601859365600      h
       -3.88731231648200       -1.81197338411700       12.51525985054600      o
       -3.19623158296700       -0.71775242420700       11.18722156900700      h
       -2.52856087107700       -2.97780655824100       12.95271313434700      h
        6.03920087609200        0.06111539222200       -9.03729022596300      o
        5.03904152268400       -0.96182682358600       -7.87111393977900      h
        7.60417102276800        0.53046357849900       -8.19081112234500      h
        4.10053009817500       11.51764473647300        0.74483178094200      o
        2.51011138479400       11.87838419209500       -0.11593777423500      h
        3.63135919030200       11.37086561675000        2.49888544719400      h
       11.60589942621500        4.07382283698300      -11.35208203391100      o
       10.07908128516300        4.64172786506400      -12.19089011118900      h
       12.05312044153200        5.41410557589000      -10.17595944655700      h
        5.69975990162500       -1.28810699518700        2.61369869446000      o
        5.98616087433500        0.14340269118900        3.73946240868300      h
        7.34270374732300       -1.70940692084900        1.87754582311400      h
      -14.23028563113200       -2.30703505948100       -3.43353673682000      o
      -12.95608635979600       -3.45349378259400       -4.09215665106200      h
      -13.29938221457200       -0.76109156674600       -3.07384021849300      h
      -15.58472267421300        7.60304624881300       -8.67370322583400      o
      -16.46860509482200        5.99063982208900       -8.76952020311700      h
      -15.81027375401600        8.18780968082400       -6.93971162744200      h
        3.44223924342500       11.16108963336800       -6.66749059001500      o
        3.81298466226600        9.98306785820700       -5.28418837064200      h
        2.95170180442000       10.12048564180600       -8.10725796720700      h
       11.10709767460500        1.81809967949100        3.50037423490200      o
        9.44655569213200        2.13140969285000        4.25800654963900      h
       11.45742664584600        0.01827185072200        3.64426236229400      h
       20.83369081505900        3.59039883308700       -2.03343476815300      o
       21.21622416371400        2.75216547532700       -3.60382581405700      h
       19.13173989562600        4.27751654918100       -2.29827648451900      h
       11.53013419397500       12.75086545971400        2.77236766334200      o
       13.04149662931500       11.82822593038100        3.15506871969500      h
       10.30351094754100       12.30123789295100        4.07319660939300      h
       13.22257681896600        6.73393637096200        3.15888154094100      o
       13.49525912092300        4.94475033091900        2.82905295495900      h
       14.53318015668300        7.64229898994500        2.21754553719900      h
        4.12984088186300      -13.48937278729600        1.44372777772000      o
        5.81362398584500      -12.83343031709300        1.78173374305600      h
        3.48624629637300      -14.10410604303000        3.04063604018100      h
       12.49855840914300       -2.88072474278300        4.92582133895900      o
       13.36466213703100       -3.42637059971200        6.45544667471200      h
       10.87767841724700       -3.76861957938300        4.92739567815100      h
        2.08652629234300      -13.88028531989500        6.32916122775200      o
        2.72374376121200      -12.12869848621200        6.24790881830400      h
        2.45943285733800      -14.47325354494600        7.99586258525200      h
      -18.07820119821500       -6.29920190485900        6.50654267248700      o
      -18.44606752829900       -4.52303107072300        6.35806924054100      h
      -16.45821915741400       -6.42795359290400        7.38250157593700      h
      -13.32347803002700       -6.44119276610600        8.46107183970800      o
      -12.14073157867700       -5.92463055725400        7.11732616685000      h
      -12.97716014497700       -5.34942976158900        9.87254235660100      h
      -12.31493238636100      -10.12098881252000        2.50708117314000      o
      -11.61475224766800       -8.49659642801000        1.97047427793900      h
      -11.72078164413200      -10.41517584107800        4.22689945841600      h
       -5.41693323783400       -5.89147040672200       -7.94332161136300      o
       -4.89833741400800       -5.31514353545700       -9.58890664973000      h
       -3.80571541887500       -6.08901158488900       -7.00489395009200      h
        9.22433526168500      -12.32228082041900       -7.10614270462000      o
       10.48555815342500      -13.60928656155800       -6.95865470371900      h
        7.58940582140700      -13.22849300308200       -7.31043010786200      h
      -10.54376578899100        0.50118272032300       -7.09826637580800      o
      -12.18684988070000       -0.18626201341300       -7.62061465925400      h
       -9.80145194353200       -0.82019201599900       -6.05787300402900      h
        0.63668856027600       -9.67239883115900        0.89655763873900      o
       -0.55721791560000      -10.40175258513600        2.06829345803700      h
        2.06025814752500      -10.83802406739900        0.90258485993900      h
       17.75328507842500       -7.09108487050300        5.47321838924100      o
       19.12837703702500       -8.22904884688400        5.76014732643700      h
       18.51459313614500       -5.44581887267800        5.08176195855400      h
        4.37084938702800       -9.43039610961400        5.77370639396000      o
        3.64154563538900       -7.96411676571300        4.87600976447900      h
        5.87682148416600       -9.92035121350500        4.83404483594000      h
      -10.54993906503100      -10.74963727220600        7.32483756803900      o
      -11.82655247903100       -9.66737522281300        8.06739766255300      h
       -8.94973056948800      -10.15855449438600        8.01352892847300      h
       -7.25978797180400       -2.57223165069500       -0.64075022214700      o
       -6.93062795309800       -2.07581985873700        1.11267226165400      h
       -8.54427837205200       -3.90499089095400       -0.54858721234500      h
       -6.19299525059000       -8.93844902632400        9.57168313166000      o
       -5.91967258759400       -9.41401380323900       11.29554933086100      h
       -6.54393477697800       -7.09584758498500        9.56229945595200      h
       15.90203095216100       -6.91039663968200       -5.77151250055600      o
       16.04753522213000       -5.35024515150200       -6.78124501060400      h
       15.01113512644100       -8.03661034414100       -6.89618419525400      h
        8.30328624022900       10.97705600784900        6.39173487783700      o
        9.37773359554400        9.69050092269600        7.13246285564100      h
        7.27425337872600       11.63563159611200        7.72943226320800      h
      -15.82816272377200       -0.13438510660900        9.01863132610800      o
      -16.81676944092400       -0.60273144768200        7.51183258403800      h
      -16.81973579231300        1.08964500024100        9.91192318203500      h
       -3.20067949783000        8.37884117734000        2.40062285367300      o
       -3.16926734436800       10.19967820272500        2.51651560726600      h
       -4.63544466498800        8.02959731225000        1.29274572834100      h
      -19.80919447218900       -1.01400960124400       -2.96907123371100      o
      -19.25568148317600       -2.25440162394700       -4.22489638235800      h
      -20.36441181391700       -1.98961774982500       -1.50213766158400      h
      -15.37523089786600       -3.26090276989600        1.27427955256400      o
      -16.10087319303900       -4.96368389393800        1.45985288426800      h
      -15.39625455239700       -2.83864071540000       -0.54129818654700      h
      -17.39495269260100        2.85750762646100       -7.93236269336300      o
      -19.19331478151600        2.93289050232400       -7.62804157892200      h
      -16.65594098865900        2.78961397207400       -6.22083581255900      h
       11.87029743700600       -8.01422973069600       -9.12431817308200      o
       11.45951052734200       -6.52663348118900       -8.10061173698200      h
       10.84630553588000       -9.40337296447700       -8.54207704919100      h
        1.06801877446500       -9.76310375449600       11.65958887745900      o
        2.88001685503300       -9.73264100879900       11.45914251814200      h
        0.34627676366900       -9.55863102016100        9.97411999960100      h
       -2.39167907347300      -10.08540097301200       -3.12408964058700      o
       -1.25702448533000       -9.70193250632100       -1.70707593595400      h
       -2.81015224066900      -11.86954435419200       -2.86995701005700      h
       -4.55918203212300       13.41122218800600        1.61383225802300      o
       -5.53055247026300       14.65374101544000        2.49606563498200      h
       -5.31047449336700       13.31052100519200       -0.08618449061900      h
       10.19102261612700        1.92523541412200       -6.59113110831700      o
       10.08164178011000        1.84890605881300       -4.75865492576200      h
       11.96963731756000        2.14138812219600       -6.98101323798400      h
        1.53929713457500       -5.35129289248000      -10.63693320835400      o
        2.46150428383900       -4.27015714620800      -11.82026219683000      h
       -0.17536128120800       -4.73206203135000      -10.60940801292200      h
       -2.21667302672800      -12.93150832879700        3.68622953167000      o
       -1.15766168807000      -14.03128035301400        4.68634793981900      h
       -4.01437810347300      -13.31337460249100        3.96321148720600      h
       15.31341214151900        2.75473999544100       -7.17931127615000      o
       15.49485543502000        3.50230546225700       -8.81854933505600      h
       16.88345660601500        1.84775840292200       -6.78550006173700      h
       19.11533024718400       -3.78065671170400       -2.78640518868900      o
       17.93005659521300       -3.60269863958300       -1.39825748219000      h
       18.50331976472300       -5.17407134690600       -3.78890792113800      h
       -2.77072720282800      -14.76506066020300       -1.40461315552400      o
       -2.53078574540400      -14.32266994163700        0.35622760037000      h
       -1.09754982460900      -15.11450362133900       -2.08378947538300      h
      -12.85828702559900       10.19571182121500        4.71932214264100      o
      -12.48696414883700        8.62365057712400        3.80686151876600      h
      -11.46136049648100       10.45048101764600        5.86825121585900      h
      -18.36560259448800       -4.50987137391400       -6.35162792993000      o
      -17.90076274177000       -5.87269632995900       -5.14723470241300      h
      -19.62242536026600       -5.21436607820200       -7.44390821744700      h
      -16.96367528755900       -7.95638804320500        1.95249624936600      o
      -17.57399419903300       -7.64709026177700        3.68759233021500      h
      -15.46365329587300       -9.01914555228600        2.15611129246200      h
      -19.24504074116900        3.93096642909400        3.58030089747200      o
      -20.03650956902400        4.84785386658500        2.22486371598800      h
      -17.62581638731000        3.32173523707300        2.84784084410600      h
        7.04229191178800        5.82742581417800       -7.54182287859500      o
        8.49209746012100        4.69331929871700       -7.36455157785900      h
        7.58146256776000        7.51874607121300       -7.07646776753000      h
       18.34920862170100        1.66623126454800        6.79711511148500      o
       18.89789850021100        3.13063147139000        5.86330516564500      h
       16.62498209560300        1.99053658806100        7.36626341464500      h
        5.50041544056500        2.22487524539500       -4.02940522671000      o
        5.87090333020000        2.84580767699700       -2.30415450505200      h
        5.77489908391000        3.62891015347100       -5.16862913232500      h
       -7.88103733633600        1.33274124647800       13.08722352695200      o
       -7.06953180773500        2.96855279457800       12.94604623996900      h
       -6.52232269315600        0.15830285904600       13.46256277112100      h
       22.22273976663300       -0.84879035486100        0.42037978767300      o
       21.69812949823300       -2.05115766709200       -0.84608980495500      h
       21.79997803628200        0.80726329642400       -0.25387653279000      h
       -9.94066556771500       -4.41484568252200       -5.21659101016500      o
       -8.79464228829500       -5.64404713214600       -4.47915986393700      h
       -9.99466116098800       -4.73161587064400       -7.02036868496600      h
      -12.32780800331400       -9.06894068728500       -3.98137106193900      o
      -11.78950820241200      -10.60869672101900       -3.16205376398800      h
      -11.38594948127600       -8.99335081745600       -5.56645993045900      h
       -5.82454343257300       -1.35763575044800       -5.47367729047900      o
       -6.20082127395300       -1.81413594718700       -3.74566016102100      h
       -5.80180474346200       -2.93726420330300       -6.42569881290800      h
       -3.01473996917400       -2.76510438883900      -11.30474041760600      o
       -1.84672748107100       -1.46870253759600      -11.89954794032500      h
       -4.66504730248600       -1.96560488408000      -11.28661176408100      h
        3.21141288818800      -10.02586221581000       -9.70159953471900      o
        2.28885360928000       -8.50730817061200      -10.21206707880800      h
        4.93580494029500       -9.71811912458200      -10.18486128258800      h
       -1.24201006521000        8.93330744767800       10.68003998074300      o
       -0.99172068486100        7.78399942469200        9.24680555925600      h
       -2.02691868940100       10.41064915450100        9.92932489521600      h
      -19.52678160187800        6.08618744237000       -1.51410621896300      o
      -20.69092846506700        5.61159168517600       -2.84436824968600      h
      -18.47466717693000        7.44864967119000       -2.15019300319100      h
       10.78177320922700       -8.69645479021500        7.73341295636900      o
        9.66402216678800       -7.43681883514800        6.96085083399100      h
       11.75658632118800       -9.32831878565600        6.32637969949800      h
        8.28460946640100      -10.82211774462900        2.69739367145100      o
       10.09178399257000      -10.69486596343900        2.89438367627500      h
        7.80916622173100       -9.30198806879900        1.73030737469700      h
       -7.72793803138900       -0.51993673065200      -11.16077631888400      o
       -8.64044877552000       -1.98210391844900      -11.75112120501900      h
       -8.63850107958200       -0.05246484363300       -9.60693695492500      h
       13.70685720508900       11.01761180100600       -3.50102655885100      o
       14.06292215183200       10.07674647962000       -5.02804339683800      h
       12.74642811333200       12.47681765822700       -3.97764708030000      h
        2.48028082178000        3.58383862545400       -9.09103260559600      o
        3.99170961163400        2.51327078019200       -8.98822957358400      h
        2.08361086453300        4.06323128378600       -7.34678530706300      h
        6.63721505379900        5.48598964721200      -12.57770784916200      o
        5.93218466436000        3.86461654002300      -12.96646139896500      h
        6.58743846287000        5.64957904162400      -10.72748433710100      h
      -21.92360886501400        3.05472308844100       -5.15655449744800      o
      -21.33669177507700        1.52914804407900       -4.27114242135000      h
      -23.70796619907700        2.87031639076900       -5.37687232686500      h
       13.26773830908800       -8.86123775934700        2.98643395031800      o
       14.83955375690200       -8.25763681493000        3.70067573349600      h
       13.13825643830600       -8.06596021132900        1.33271160121300      h
       19.66745044297600        0.26669826609700       -5.95524355468300      o
       19.36241523681500       -1.06207129932200       -4.69745945829200      h
       19.90098347839100       -0.63187389174700       -7.51461321996300      h
        2.00010191481000        8.27742137615700      -10.69894016420900      o
        3.12926938205900        8.54159667934300      -12.09262916021800      h
        2.27239207501100        6.50898745479000      -10.18059288280800      h
        6.22257517660500       -8.97162808280900       10.37007217827200      o
        5.47298251742700       -8.95400223603700        8.65993646155500      h
        7.96683907770300       -9.42970969387500       10.09078500330900      h
        4.95984500259900        7.92017768034900       -2.96166221844100      o
        4.57165720707700        8.82519611405800       -1.40881814063600      h
        3.67715635834400        6.62525963171600       -3.13848210503200      h
      -11.52018405288200       -2.16250338175900       11.34976677928300      o
      -10.66477721397200       -0.83966559995400       12.27999281450600      h
      -13.02998435288000       -1.41106782687500       10.64026882750000      h
       -6.86256434639700        7.53129456658800      -10.75613974228600      o
       -5.90414053846500        6.01280354091600      -11.12768937217700      h
       -8.49474780095400        6.92708815246500      -10.14782669686100      h
       13.38127769492600        2.38090687759300        8.04344639318000      o
       12.70268892752500        2.18616618578800        6.32669280781300      h
       12.67444670978500        1.01872195188400        9.03595824563600      h
       12.50977577003200        7.73033365568300       -7.67548135212800      o
       11.90682869252500        6.98849076319000       -6.09719514855900      h
       11.33295260136500        9.08628509377000       -8.01380699333100      h
       -6.92473453507800       -8.01958026200900       -2.66116801768800      o
       -7.88093485801000       -9.58058235552300       -2.49144430072400      h
       -5.17461659558100       -8.56685260001500       -2.96338016754500      h
       -9.24164989686100       -9.25896607178500       -8.11580330190300      o
       -8.55417553127700      -10.92625151919800       -8.24578412761000      h
       -7.79239472516300       -8.10171302825800       -8.00443076371000      h
        1.02478297347800       11.21957260068200        5.17081343499200      o
       -0.50918647297900       12.01742101030600        5.76619544403700      h
        2.16288561152500       11.19907968569900        6.60410400703900      h
       -7.68068310512800       10.88559517315600        6.01417462987700      o
       -7.70023306613700       11.28226501418400        4.23323899821400      h
       -7.19952141613200        9.08642587778600        6.16520400234100      h
       -3.34868517706100       12.73836573778700        7.73278841989500      o
       -3.67447824477600       14.36934596566000        8.43816309661500      h
       -4.99460446939800       12.08027615415700        7.12458948047000      h
        8.51972315552600       10.91398543788500       -6.58434511736200      o
        6.81207645260500       11.45260147762200       -7.00125898512700      h
        8.68140884644200       11.29006853299000       -4.79385582555100      h
      -12.26413884281400        2.68032743565000        6.68698503012000      o
      -13.35226578273600        1.55712133000600        7.65465648353800      h
      -13.27353910729300        4.22892639226400        6.56702623389400      h
       10.17849333170500        6.97869564160800       -3.13280632448200      o
        8.37429212510000        7.34507527137500       -3.02052267306400      h
       11.07080227351400        8.47043838675200       -2.56791014508100      h
       19.62184234636200       -2.51269084125000        4.38553234014600      o
       20.89985317774200       -1.91648282373300        3.18110744573600      h
       19.21053703328100       -1.04857260552000        5.46303786542200      h
       -2.57024739592900        8.02598927871500       -3.26975851343300      o
       -1.80831760023100        9.45889948955900       -2.38363859890700      h
       -2.85330151923000        8.53804764021800       -5.00906219628600      h
      -15.49200376467400        8.57820726820300       -3.58821539005700      o
      -14.19415550207100        7.28980998144200       -3.30985748650700      h
      -14.55961988956200       10.14990286468500       -3.52526177882200      h
       16.64805449652200        9.09751544577000        0.33898181131200      o
       15.89315810962900       10.52172971794000       -0.51134148886100      h
       16.60597130987800        7.77386804357400       -0.95289617433700      h
        7.10714128456700        1.75262832552600       11.02242601146500      o
        8.67747043571000        0.85995265839700       11.28015211235600      h
        5.80164803793700        0.84215610474300       11.94373178186100      h
      -18.48495716936100       -1.12294673074200        4.80423789034300      o
      -19.12800921793200        0.57320175757400        4.49619607974100      h
      -17.22282092431600       -1.43472555321100        3.48283056437500      h
       -0.00223268815400       -3.79808163090800        7.69950122705600      o
        1.75158364968300       -3.16778085891300        7.76925270825100      h
       -1.07757300115300       -2.30314225312700        7.72412979915300      h
       -9.46272469663600      -12.32622751363100       -1.16634234075000      o
      -10.48329366760800      -11.83948860500900        0.30297565507600      h
       -8.24602466666800      -13.52260936023600       -0.54444512959600      h
        0.16376226257300       -4.85256419521900       12.55178567480400      o
        0.04203192839400       -4.65254419133600       10.69632713336900      h
        0.44514210342300       -6.66414113561900       12.76502670201700      h
       19.58610273313700        5.23932874609900        2.88111171557100      o
       20.71979395618800        4.78815185444700        1.52473010877300      h
       18.93894907483400        6.89048046887000        2.45845184333900      h
        2.11164828114500      -14.33061491852500       -3.18841587713000      o
        3.01437712308300      -14.44885668991100       -1.59695387666500      h
        2.14155122047400      -12.52650199311300       -3.60431841213300      h
       -4.73884388607300        5.13186455782300       11.27467717017900      o
       -5.26326851441000        5.16555980107700        9.50571748264500      h
       -3.97719482881800        6.77330280367700       11.55182518160400      h
        7.30120754281800        6.89167752314200       11.12605497995100      o
        8.86227420203200        7.09847687956200       10.19180710580800      h
        7.07822365571800        5.07462426749000       11.28268089883500      h
       -1.11712079143884        2.40884619625819        3.54978849802734      o
       -1.43658780131816        2.47849268867616        1.74608716374139      h
        0.46368651988930        1.51414525858739        3.61299867194309      h
        0.44919069774171        0.54956138190298       -0.96387408886902      o
        2.15946581247193        0.61294676778182       -1.56046954923764      h
       -0.12138266098307       -1.16286739749255       -1.18699082226276      h
$end
 
 Bond Distances (Angstroems)
 ---------------------------
O1-H2=0.9716         O1-H3=0.9734         H2-O1=0.9716         H3-O1=0.9734         O4-H5=0.9721         O4-H6=0.9673         
H5-O4=0.9721         H6-O4=0.9673         O7-H8=0.9651         O7-H9=0.9731         H8-O7=0.9651         H9-O7=0.9731         
O10-H11=0.9743       O10-H12=0.9708       H11-O10=0.9743       H12-O10=0.9708       O13-H14=0.9775       O13-H15=0.9709       
H14-O13=0.9775       H15-O13=0.9709       O16-H17=0.9823       O16-H18=0.9748       H17-O16=0.9823       H18-O16=0.9748       
O19-H20=0.9766       O19-H21=0.9732       H20-O19=0.9766       H21-O19=0.9732       O22-H23=0.9725       O22-H24=0.9724       
H23-O22=0.9725       H24-O22=0.9724       O25-H26=0.9814       O25-H27=0.9726       H26-O25=0.9814       H27-O25=0.9726       
O28-H29=0.9733       O28-H30=0.9746       H29-O28=0.9733       H30-O28=0.9746       O31-H32=0.9698       O31-H33=0.9706       
H32-O31=0.9698       H33-O31=0.9706       O34-H35=0.9800       O34-H36=0.9682       H35-O34=0.9800       H36-O34=0.9682       
O37-H38=0.9706       O37-H39=0.9693       H38-O37=0.9706       H39-O37=0.9693       O40-H41=0.9781       O40-H42=0.9762       
H41-O40=0.9781       H42-O40=0.9762       O43-H44=0.9715       O43-H45=0.9693       H44-O43=0.9715       H45-O43=0.9693       
O46-H47=0.9736       O46-H48=0.9626       H47-O46=0.9736       H48-O46=0.9626       O49-H50=0.9630       O49-H51=0.9761       
H50-O49=0.9630       H51-O49=0.9761       O52-H53=0.9867       O52-H54=0.9683       H53-O52=0.9867       H54-O52=0.9683       
O55-H56=0.9792       O55-H57=0.9721       H56-O55=0.9792       H57-O55=0.9721       O58-H59=0.9692       O58-H60=0.9656       
H59-O58=0.9692       H60-O58=0.9656       O61-H62=0.9802       O61-H63=0.9572       H62-O61=0.9802       H63-O61=0.9572       
O64-H65=0.9652       O64-H66=0.9860       H65-O64=0.9652       H66-O64=0.9860       O67-H68=0.9748       O67-H69=0.9749       
H68-O67=0.9748       H69-O67=0.9749       O70-H71=0.9814       O70-H72=0.9880       H71-O70=0.9814       H72-O70=0.9880       
O73-H74=0.9784       O73-H75=0.9800       H74-O73=0.9784       H75-O73=0.9800       O76-H77=0.9638       O76-H78=0.9813       
H77-O76=0.9638       H78-O76=0.9813       O79-H80=0.9867       O79-H81=0.9710       H80-O79=0.9867       H81-O79=0.9710       
O82-H83=0.9632       O82-H84=0.9663       H83-O82=0.9632       H84-O82=0.9663       O85-H86=0.9929       O85-H87=0.9628       
H86-O85=0.9929       H87-O85=0.9628       O88-H89=0.9673       O88-H90=0.9716       H89-O88=0.9673       H90-O88=0.9716       
O91-H92=0.9705       O91-H93=0.9795       H92-O91=0.9705       H93-O91=0.9795       O94-H95=0.9673       O94-H96=0.9746       
H95-O94=0.9673       H96-O94=0.9746       O97-H98=0.9719       O97-H99=0.9715       H98-O97=0.9719       H99-O97=0.9715       
O100-H101=0.9730     O100-H102=0.9793     H101-O100=0.9730     H102-O100=0.9793     O103-H104=0.9734     O103-H105=0.9700     
H104-O103=0.9734     H105-O103=0.9700     O106-H107=0.9775     O106-H108=0.9644     H107-O106=0.9775     H108-O106=0.9644     
O109-H110=0.9702     O109-H111=0.9794     H110-O109=0.9702     H111-O109=0.9794     O112-H113=0.9753     O112-H114=0.9712     
H113-O112=0.9753     H114-O112=0.9712     O115-H116=0.9724     O115-H117=0.9784     H116-O115=0.9724     H117-O115=0.9784     
O118-H119=0.9766     O118-H120=0.9754     H119-O118=0.9766     H120-O118=0.9754     O121-H122=0.9649     O121-H123=0.9807     
H122-O121=0.9649     H123-O121=0.9807     O124-H125=0.9765     O124-H126=0.9644     H125-O124=0.9765     H126-O124=0.9644     
O127-H128=0.9594     O127-H129=0.9875     H128-O127=0.9594     H129-O127=0.9875     O130-H131=0.9634     O130-H132=0.9799     
H131-O130=0.9634     H132-O130=0.9799     O133-H134=0.9807     O133-H135=0.9729     H134-O133=0.9807     H135-O133=0.9729     
O136-H137=0.9811     O136-H138=0.9666     H137-O136=0.9811     H138-O136=0.9666     O139-H140=0.9834     O139-H141=0.9610     
H140-O139=0.9834     H141-O139=0.9610     O142-H143=0.9730     O142-H144=0.9745     H143-O142=0.9730     H144-O142=0.9745     
O145-H146=0.9720     O145-H147=0.9843     H146-O145=0.9720     H147-O145=0.9843     O148-H149=0.9727     O148-H150=0.9658     
H149-O148=0.9727     H150-O148=0.9658     O151-H152=0.9822     O151-H153=0.9815     H152-O151=0.9822     H153-O151=0.9815     
O154-H155=0.9581     O154-H156=0.9781     H155-O154=0.9581     H156-O154=0.9781     O157-H158=0.9750     O157-H159=0.9738     
H158-O157=0.9750     H159-O157=0.9738     O160-H161=0.9704     O160-H162=0.9708     H161-O160=0.9704     H162-O160=0.9708     
O163-H164=0.9691     O163-H165=0.9799     H164-O163=0.9691     H165-O163=0.9799     O166-H167=0.9738     O166-H168=0.9717     
H167-O166=0.9738     H168-O166=0.9717     O169-H170=0.9671     O169-H171=0.9715     H170-O169=0.9671     H171-O169=0.9715     
O172-H173=0.9819     O172-H174=0.9645     H173-O172=0.9819     H174-O172=0.9645     O175-H176=0.9741     O175-H177=0.9704     
H176-O175=0.9741     H177-O175=0.9704     O178-H179=0.9764     O178-H180=0.9707     H179-O178=0.9764     H180-O178=0.9707     
O181-H182=0.9741     O181-H183=0.9654     H182-O181=0.9741     H183-O181=0.9654     O184-H185=0.9794     O184-H186=0.9766     
H185-O184=0.9794     H186-O184=0.9766     O187-H188=0.9753     O187-H189=0.9710     H188-O187=0.9753     H189-O187=0.9710     
O190-H191=0.9826     O190-H192=0.9658     H191-O190=0.9826     H192-O190=0.9658     O193-H194=0.9803     O193-H195=0.9652     
H194-O193=0.9803     H195-O193=0.9652     O196-H197=0.9801     O196-H198=0.9676     H197-O196=0.9801     H198-O196=0.9676     
O199-H200=0.9769     O199-H201=0.9798     H200-O199=0.9769     H201-O199=0.9798     O202-H203=0.9714     O202-H204=0.9840     
H203-O202=0.9714     H204-O202=0.9840     O205-H206=0.9746     O205-H207=0.9864     H206-O205=0.9746     H207-O205=0.9864     
O208-H209=0.9813     O208-H210=0.9663     H209-O208=0.9813     H210-O208=0.9663     O211-H212=0.9788     O211-H213=0.9722     
H212-O211=0.9788     H213-O211=0.9722     O214-H215=0.9809     O214-H216=0.9806     H215-O214=0.9809     H216-O214=0.9806     
O217-H218=0.9788     O217-H219=0.9657     H218-O217=0.9788     H219-O217=0.9657     O220-H221=0.9813     O220-H222=0.9635     
H221-O220=0.9813     H222-O220=0.9635     O223-H224=0.9600     O223-H225=0.9707     H224-O223=0.9600     H225-O223=0.9707     
O226-H227=0.9708     O226-H228=0.9714     H227-O226=0.9708     H228-O226=0.9714     O229-H230=0.9700     O229-H231=0.9777     
H230-O229=0.9700     H231-O229=0.9777     O232-H233=0.9687     O232-H234=0.9605     H233-O232=0.9687     H234-O232=0.9605     
O235-H236=0.9813     O235-H237=0.9753     H236-O235=0.9813     H237-O235=0.9753     O238-H239=0.9767     O238-H240=0.9737     
H239-O238=0.9767     H240-O238=0.9737     O241-H242=0.9758     O241-H243=0.9640     H242-O241=0.9758     H243-O241=0.9640     
O244-H245=0.9696     O244-H246=0.9728     H245-O244=0.9696     H246-O244=0.9728     O247-H248=0.9756     O247-H249=0.9784     
H248-O247=0.9756     H249-O247=0.9784     O250-H251=0.9717     O250-H252=0.9737     H251-O250=0.9717     H252-O250=0.9737     
O253-H254=0.9744     O253-H255=0.9757     H254-O253=0.9744     H255-O253=0.9757     O256-H257=0.9813     O256-H258=0.9752     
H257-O256=0.9813     H258-O256=0.9752     O259-H260=0.9800     O259-H261=0.9733     H260-O259=0.9800     H261-O259=0.9733     
O262-H263=0.9635     O262-H264=0.9813     H263-O262=0.9635     H264-O262=0.9813     O265-H266=0.9587     O265-H267=0.9756     
H266-O265=0.9587     H267-O265=0.9756     O268-H269=0.9735     O268-H270=0.9799     H269-O268=0.9735     H270-O268=0.9799     
O271-H272=0.9728     O271-H273=0.9674     H272-O271=0.9728     H273-O271=0.9674     O274-H275=0.9740     O274-H276=0.9780     
H275-O274=0.9740     H276-O274=0.9780     O277-H278=0.9873     O277-H279=0.9567     H278-O277=0.9873     H279-O277=0.9567     
O280-H281=0.9631     O280-H282=0.9769     H281-O280=0.9631     H282-O280=0.9769     O283-H284=0.9859     O283-H285=0.9619     
H284-O283=0.9859     H285-O283=0.9619     O286-H287=0.9782     O286-H288=0.9754     H287-O286=0.9782     H288-O286=0.9754     
O289-H290=0.9626     O289-H291=0.9922     H290-O289=0.9626     H291-O289=0.9922     O292-H293=0.9567     O292-H294=0.9951     
H293-O292=0.9567     H294-O292=0.9951     O295-H296=0.9822     O295-H297=0.9728     H296-O295=0.9822     H297-O295=0.9728     
O298-H299=0.9657     O298-H300=0.9736     H299-O298=0.9657     H300-O298=0.9736     O301-H302=0.9567     O301-H303=0.9814     
H302-O301=0.9567     H303-O301=0.9814     O304-H305=0.9883     O304-H306=0.9745     H305-O304=0.9883     H306-O304=0.9745     
O307-H308=0.9689     O307-H309=0.9735     H308-O307=0.9689     H309-O307=0.9735     O310-H311=0.9799     O310-H312=0.9807     
H311-O310=0.9799     H312-O310=0.9807     O313-H314=0.9573     O313-H315=0.9926     H314-O313=0.9573     H315-O313=0.9926     
O316-H317=0.9864     O316-H318=0.9652     H317-O316=0.9864     H318-O316=0.9652     O319-H320=0.9698     O319-H321=0.9587     
H320-O319=0.9698     H321-O319=0.9587     O322-H323=0.9853     O322-H324=0.9583     H323-O322=0.9853     H324-O322=0.9583     
O325-H326=0.9656     O325-H327=0.9769     H326-O325=0.9656     H327-O325=0.9769     O328-H329=0.9789     O328-H330=0.9775     
H329-O328=0.9789     H330-O328=0.9775     O331-H332=0.9844     O331-H333=0.9865     H332-O331=0.9844     H333-O331=0.9865     
O334-H335=0.9660     O334-H336=0.9872     H335-O334=0.9660     H336-O334=0.9872     O337-H338=0.9800     O337-H339=0.9638     
H338-O337=0.9800     H339-O337=0.9638     O340-H341=0.9649     O340-H342=0.9763     H341-O340=0.9649     H342-O340=0.9763     
O343-H344=0.9818     O343-H345=0.9790     H344-O343=0.9818     H345-O343=0.9790     O346-H347=0.9563     O346-H348=0.9850     
H347-O346=0.9563     H348-O346=0.9850     O349-H350=0.9723     O349-H351=0.9703     H350-O349=0.9723     H351-O349=0.9703     
O352-H353=0.9786     O352-H354=0.9648     H353-O352=0.9786     H354-O352=0.9648     O355-H356=0.9658     O355-H357=0.9835     
H356-O355=0.9658     H357-O355=0.9835     O358-H359=0.9582     O358-H360=0.9819     H359-O358=0.9582     H360-O358=0.9819     
O361-H362=0.9705     O361-H363=0.9644     H362-O361=0.9705     H363-O361=0.9644     O364-H365=0.9691     O364-H366=0.9733     
H365-O364=0.9691     H366-O364=0.9733     O367-H368=0.9817     O367-H369=0.9666     H368-O367=0.9817     H369-O367=0.9666     
O370-H371=0.9934     O370-H372=0.9568     H371-O370=0.9934     H372-O370=0.9568     O373-H374=0.9870     O373-H375=0.9788     
H374-O373=0.9870     H375-O373=0.9788     O376-H377=0.9619     O376-H378=0.9942     H377-O376=0.9619     H378-O376=0.9942     
O379-H380=0.9786     O379-H381=0.9711     H380-O379=0.9786     H381-O379=0.9711     O382-H383=0.9638     O382-H384=0.9761     
H383-O382=0.9638     H384-O382=0.9761     O385-H386=0.9899     O385-H387=0.9678     H386-O385=0.9899     H387-O385=0.9678     
O388-H389=0.9692     O388-H390=0.9709     H389-O388=0.9692     H390-O388=0.9709     O391-H392=0.9649     O391-H393=0.9723     
H392-O391=0.9649     H393-O391=0.9723     O394-H395=0.9712     O394-H396=0.9695     H395-O394=0.9712     H396-O394=0.9695     
[...]
   160   8 o      162   1 h                                       0.9708167
   163   8 o      164   1 h                                       0.9691057
   163   8 o      165   1 h                                       0.9798982
   166   8 o      167   1 h                                       0.9738382
   166   8 o      168   1 h                                       0.9716897
   169   8 o      170   1 h                                       0.9670916
   169   8 o      171   1 h                                       0.9714939
   172   8 o      173   1 h                                       0.9818678
   172   8 o      174   1 h                                       0.9644694
   175   8 o      176   1 h                                       0.9741416
   175   8 o      177   1 h                                       0.9704413
   178   8 o      179   1 h                                       0.9763853
   178   8 o      180   1 h                                       0.9706693
   181   8 o      182   1 h                                       0.9741347
   181   8 o      183   1 h                                       0.9654392
   184   8 o      185   1 h                                       0.9793933
   184   8 o      186   1 h                                       0.9766488
   187   8 o      188   1 h                                       0.9752942
   187   8 o      189   1 h                                       0.9709982
   190   8 o      191   1 h                                       0.9825699
   190   8 o      192   1 h                                       0.9658047
   193   8 o      194   1 h                                       0.9803336
   193   8 o      195   1 h                                       0.9652132
   196   8 o      197   1 h                                       0.9801378
   196   8 o      198   1 h                                       0.9676464
   199   8 o      200   1 h                                       0.9769482
   199   8 o      201   1 h                                       0.9797506
   202   8 o      203   1 h                                       0.9713811
   202   8 o      204   1 h                                       0.9839730
   205   8 o      206   1 h                                       0.9746043
   205   8 o      207   1 h                                       0.9864083
   208   8 o      209   1 h                                       0.9812869
   208   8 o      210   1 h                                       0.9663435
   211   8 o      212   1 h                                       0.9788363
   211   8 o      213   1 h                                       0.9721851
   214   8 o      215   1 h                                       0.9809135
   214   8 o      216   1 h                                       0.9805758
   217   8 o      218   1 h                                       0.9787911
   217   8 o      219   1 h                                       0.9656549
   220   8 o      221   1 h                                       0.9813041
   220   8 o      222   1 h                                       0.9634504
   223   8 o      224   1 h                                       0.9599777
   223   8 o      225   1 h                                       0.9707042
   226   8 o      227   1 h                                       0.9707844
   226   8 o      228   1 h                                       0.9714159
   229   8 o      230   1 h                                       0.9700135
   229   8 o      231   1 h                                       0.9776711
   232   8 o      233   1 h                                       0.9687421
   232   8 o      234   1 h                                       0.9604680
   235   8 o      236   1 h                                       0.9812775
   235   8 o      237   1 h                                       0.9752864
   238   8 o      239   1 h                                       0.9767151
   238   8 o      240   1 h                                       0.9737359
   241   8 o      242   1 h                                       0.9758248
   241   8 o      243   1 h                                       0.9639701
   244   8 o      245   1 h                                       0.9696065
   244   8 o      246   1 h                                       0.9728271
   247   8 o      248   1 h                                       0.9755522
   247   8 o      249   1 h                                       0.9784313
   250   8 o      251   1 h                                       0.9716899
   250   8 o      252   1 h                                       0.9737299
   253   8 o      254   1 h                                       0.9743594
   253   8 o      255   1 h                                       0.9756899
   256   8 o      257   1 h                                       0.9812939
   256   8 o      258   1 h                                       0.9752399
   259   8 o      260   1 h                                       0.9799885
   259   8 o      261   1 h                                       0.9732855
   262   8 o      263   1 h                                       0.9634943
   262   8 o      264   1 h                                       0.9813219
   265   8 o      266   1 h                                       0.9586642
   265   8 o      267   1 h                                       0.9756005
   268   8 o      269   1 h                                       0.9735034
   268   8 o      270   1 h                                       0.9798953
   271   8 o      272   1 h                                       0.9728279
   271   8 o      273   1 h                                       0.9674291
   274   8 o      275   1 h                                       0.9739764
   274   8 o      276   1 h                                       0.9779923
   277   8 o      278   1 h                                       0.9872673
   277   8 o      279   1 h                                       0.9567086
   280   8 o      281   1 h                                       0.9630667
   280   8 o      282   1 h                                       0.9769339
   283   8 o      284   1 h                                       0.9859437
   283   8 o      285   1 h                                       0.9618998
   286   8 o      287   1 h                                       0.9781695
   286   8 o      288   1 h                                       0.9753723
   289   8 o      290   1 h                                       0.9626147
   289   8 o      291   1 h                                       0.9922168
   292   8 o      293   1 h                                       0.9567460
   292   8 o      294   1 h                                       0.9950711 (max)
   295   8 o      296   1 h                                       0.9822125
   295   8 o      297   1 h                                       0.9728056
   298   8 o      299   1 h                                       0.9657064
   298   8 o      300   1 h                                       0.9736385
   301   8 o      302   1 h                                       0.9566506
   301   8 o      303   1 h                                       0.9814388
   304   8 o      305   1 h                                       0.9882615
   304   8 o      306   1 h                                       0.9744583
   307   8 o      308   1 h                                       0.9689044
   307   8 o      309   1 h                                       0.9735052
   310   8 o      311   1 h                                       0.9799445
   310   8 o      312   1 h                                       0.9807151
   313   8 o      314   1 h                                       0.9572964
   313   8 o      315   1 h                                       0.9926026
   316   8 o      317   1 h                                       0.9864301
   316   8 o      318   1 h                                       0.9652140
   319   8 o      320   1 h                                       0.9697582
   319   8 o      321   1 h                                       0.9586824
   322   8 o      323   1 h                                       0.9853408
   322   8 o      324   1 h                                       0.9582986
   325   8 o      326   1 h                                       0.9656384
   325   8 o      327   1 h                                       0.9768896
   328   8 o      329   1 h                                       0.9789130
   328   8 o      330   1 h                                       0.9774710
   331   8 o      332   1 h                                       0.9843917
   331   8 o      333   1 h                                       0.9864679
   334   8 o      335   1 h                                       0.9660058
   334   8 o      336   1 h                                       0.9871776
   337   8 o      338   1 h                                       0.9800019
   337   8 o      339   1 h                                       0.9638122
   340   8 o      341   1 h                                       0.9648519
   340   8 o      342   1 h                                       0.9762605
   343   8 o      344   1 h                                       0.9818223
   343   8 o      345   1 h                                       0.9790310
   346   8 o      347   1 h                                       0.9562966
   346   8 o      348   1 h                                       0.9849861
   349   8 o      350   1 h                                       0.9722701
   349   8 o      351   1 h                                       0.9703155
   352   8 o      353   1 h                                       0.9785614
   352   8 o      354   1 h                                       0.9648250
   355   8 o      356   1 h                                       0.9658377
   355   8 o      357   1 h                                       0.9835133
   358   8 o      359   1 h                                       0.9582167
   358   8 o      360   1 h                                       0.9818688
   361   8 o      362   1 h                                       0.9705025
   361   8 o      363   1 h                                       0.9643772
   364   8 o      365   1 h                                       0.9691086
   364   8 o      366   1 h                                       0.9732998
   367   8 o      368   1 h                                       0.9817403
   367   8 o      369   1 h                                       0.9665780
   370   8 o      371   1 h                                       0.9933788
   370   8 o      372   1 h                                       0.9567713
   373   8 o      374   1 h                                       0.9869848
   373   8 o      375   1 h                                       0.9787603
   376   8 o      377   1 h                                       0.9619266
   376   8 o      378   1 h                                       0.9941701
   379   8 o      380   1 h                                       0.9785572
   379   8 o      381   1 h                                       0.9711267
   382   8 o      383   1 h                                       0.9638481
   382   8 o      384   1 h                                       0.9760503
   385   8 o      386   1 h                                       0.9899022
   385   8 o      387   1 h                                       0.9677560
   388   8 o      389   1 h                                       0.9691823
   388   8 o      390   1 h                                       0.9709055
   391   8 o      392   1 h                                       0.9649106
   391   8 o      393   1 h                                       0.9722850
   394   8 o      395   1 h                                       0.9711679
   394   8 o      396   1 h                                       0.9695464
   397   8 o      398   1 h                                       0.9659328
   397   8 o      399   1 h                                       0.9765175
   400   8 o      401   1 h                                       0.9665304
   400   8 o      402   1 h                                       0.9760542
   403   8 o      404   1 h                                       0.9755691
   403   8 o      405   1 h                                       0.9704370
   406   8 o      407   1 h                                       0.9782911
   406   8 o      408   1 h                                       0.9615568
   409   8 o      410   1 h                                       0.9811515
   409   8 o      411   1 h                                       0.9703145
   412   8 o      413   1 h                                       0.9685644
   412   8 o      414   1 h                                       0.9711310
   415   8 o      416   1 h                                       0.9804646
   415   8 o      417   1 h                                       0.9655499
   418   8 o      419   1 h                                       0.9643343
   418   8 o      420   1 h                                       0.9860457
   421   8 o      422   1 h                                       0.9640785
   421   8 o      423   1 h                                       0.9846213
   424   8 o      425   1 h                                       0.9676553
   424   8 o      426   1 h                                       0.9582161
   427   8 o      428   1 h                                       0.9816347
   427   8 o      429   1 h                                       0.9799876
   430   8 o      431   1 h                                       0.9579494
   430   8 o      432   1 h                                       0.9832686
   433   8 o      434   1 h                                       0.9837298
   433   8 o      435   1 h                                       0.9564031
   436   8 o      437   1 h                                       0.9678418
   436   8 o      438   1 h                                       0.9734603
   439   8 o      440   1 h                                       0.9815769
   439   8 o      441   1 h                                       0.9603661
   442   8 o      443   1 h                                       0.9594287
   442   8 o      444   1 h                                       0.9857742
   445   8 o      446   1 h                                       0.9881263
   445   8 o      447   1 h                                       0.9657009
   448   8 o      449   1 h                                       0.9730349
   448   8 o      450   1 h                                       0.9690402
   451   8 o      452   1 h                                       0.9681111
   451   8 o      453   1 h                                       0.9681977
   454   8 o      455   1 h                                       0.9703501
   454   8 o      456   1 h                                       0.9756302
   457   8 o      458   1 h                                       0.9822832
   457   8 o      459   1 h                                       0.9671411
   460   8 o      461   1 h                                       0.9764523
   460   8 o      462   1 h                                       0.9668144
   463   8 o      464   1 h                                       0.9728594
   463   8 o      465   1 h                                       0.9834375
   466   8 o      467   1 h                                       0.9568246
   466   8 o      468   1 h                                       0.9831850
   469   8 o      470   1 h                                       0.9677007
   469   8 o      471   1 h                                       0.9685562
   472   8 o      473   1 h                                       0.9655797
   472   8 o      474   1 h                                       0.9887740
   475   8 o      476   1 h                                       0.9560098 (min)
   475   8 o      477   1 h                                       0.9917011
   478   8 o      479   1 h                                       0.9728779
   478   8 o      480   1 h                                       0.9719349
   481   8 o      482   1 h                                       0.9731684
   481   8 o      483   1 h                                       0.9802554
   484   8 o      485   1 h                                       0.9760393
   484   8 o      486   1 h                                       0.9671964
   487   8 o      488   1 h                                       0.9813941
   487   8 o      489   1 h                                       0.9862922
   490   8 o      491   1 h                                       0.9784740
   490   8 o      492   1 h                                       0.9710800
   493   8 o      494   1 h                                       0.9788865
   493   8 o      495   1 h                                       0.9676176
   496   8 o      497   1 h                                       0.9643963
   496   8 o      498   1 h                                       0.9790154
   499   8 o      500   1 h                                       0.9655457
   499   8 o      501   1 h                                       0.9731794
   502   8 o      503   1 h                                       0.9736467
   502   8 o      504   1 h                                       0.9809512
   505   8 o      506   1 h                                       0.9868859
   505   8 o      507   1 h                                       0.9745783
   508   8 o      509   1 h                                       0.9811025
   508   8 o      510   1 h                                       0.9610717
   511   8 o      512   1 h                                       0.9896538
   511   8 o      513   1 h                                       0.9766808
   514   8 o      515   1 h                                       0.9654530
   514   8 o      516   1 h                                       0.9647514
   517   8 o      518   1 h                                       0.9702363
   517   8 o      519   1 h                                       0.9798632
   520   8 o      521   1 h                                       0.9765256
   520   8 o      522   1 h                                       0.9687326
   523   8 o      524   1 h                                       0.9689168
   523   8 o      525   1 h                                       0.9722955
   526   8 o      527   1 h                                       0.9700338
   526   8 o      528   1 h                                       0.9617987
   529   8 o      530   1 h                                       0.9591088
   529   8 o      531   1 h                                       0.9624260

 * 1 distinct bonds (by element types)

   Z      Z             #   av. dist./Å        max./Å        min./Å
   1 H    8 O         354     0.9734005     0.9950711     0.9560098


optimized geometry written to: xtbopt.coord


           -------------------------------------------------
          | TOTAL ENERGY             -901.181121246063 Eh   |
          | GRADIENT NORM               0.001784799769 Eh/α |
          | HOMO-LUMO GAP               6.364079283709 eV   |
           -------------------------------------------------

------------------------------------------------------------------------
 * finished run on 2022/11/17 at 06:50:24.986     
------------------------------------------------------------------------
 total:
 * wall-time:     0 d,  0 h,  1 min, 37.001 sec
 *  cpu-time:     0 d,  0 h,  2 min, 30.077 sec
 * ratio c/w:     1.547 speedup
 SCF:
 * wall-time:     0 d,  0 h,  0 min,  8.362 sec
 *  cpu-time:     0 d,  0 h,  0 min, 13.204 sec
 * ratio c/w:     1.579 speedup
 ANC optimizer:
 * wall-time:     0 d,  0 h,  1 min, 28.058 sec
 *  cpu-time:     0 d,  0 h,  2 min, 15.802 sec
 * ratio c/w:     1.542 speedup

