      -----------------------------------------------------------      
     |                   =====================                   |     
     |                           x T B                           |     
     |                   =====================                   |     
     |                         S. Grimme                         |     
     |          Mulliken Center for Theoretical Chemistry        |     
     |                    University of Bonn                     |     
      -----------------------------------------------------------      

   * xtb version 6.5.1 (579679a) compiled by 'ehlert@majestix' on 2022-07-11

   xtb is free software: you can redistribute it and/or modify it under
   the terms of the GNU Lesser General Public License as published by
   the Free Software Foundation, either version 3 of the License, or
   (at your option) any later version.
   
   xtb is distributed in the hope that it will be useful,
   but WITHOUT ANY WARRANTY; without even the implied warranty of
   MERCHANTABILITY or FITNESS FOR A PARTICULAR PURPOSE.  See the
   GNU Lesser General Public License for more details.
   
   Cite this work as:
   * C. Bannwarth, E. Caldeweyher, S. Ehlert, A. Hansen, P. Pracht,
     J. Seibert, S. Spicher, S. Grimme, WIREs Comput. Mol. Sci., 2020, 11,
     e01493. DOI: 10.1002/wcms.1493
   
   for GFN2-xTB:
   * C. Bannwarth, S. Ehlert and S. Grimme., J. Chem. Theory Comput., 2019,
     15, 1652-1671. DOI: 10.1021/acs.jctc.8b01176
   for GFN1-xTB:
   * S. Grimme, C. Bannwarth, P. Shushkov, J. Chem. Theory Comput., 2017,
     13, 1989-2009. DOI: 10.1021/acs.jctc.7b00118
   for GFN0-xTB:
   * P. Pracht, E. Caldeweyher, S. Ehlert, S. Grimme, ChemRxiv, 2019, preprint.
     DOI: 10.26434/chemrxiv.8326202.v1
   for GFN-FF:
   * S. Spicher and S. Grimme, Angew. Chem. Int. Ed., 2020, 59, 15665-15673.
     DOI: 10.1002/anie.202004239
   
   for ALPB and GBSA implicit solvation:
   * S. Ehlert, M. Stahn, S. Spicher, S. Grimme, J. Chem. Theory Comput.,
     2021, 17, 4250-4261. DOI: 10.1021/acs.jctc.1c00471
   
   for DFT-D4:
   * E. Caldeweyher, C. Bannwarth and S. Grimme, J. Chem. Phys., 2017,
     147, 034112. DOI: 10.1063/1.4993215
   * E. Caldeweyher, S. Ehlert, A. Hansen, H. Neugebauer, S. Spicher,
     C. Bannwarth and S. Grimme, J. Chem. Phys., 2019, 150, 154122.
     DOI: 10.1063/1.5090222
   * E. Caldeweyher, J.-M. Mewes, S. Ehlert and S. Grimme, Phys. Chem. Chem. Phys.
     2020, 22, 8499-8512. DOI: 10.1039/D0CP00502A
   
   for sTDA-xTB:
   * S. Grimme and C. Bannwarth, J. Chem. Phys., 2016, 145, 054103.
     DOI: 10.1063/1.4959605
   
   in the mass-spec context:
   * V. Asgeirsson, C. Bauer and S. Grimme, Chem. Sci., 2017, 8, 4879.
     DOI: 10.1039/c7sc00601b
   * J. Koopman and S. Grimme, ACS Omega 2019, 4, 12, 15120-15133.
     DOI: 10.1021/acsomega.9b02011
   
   for metadynamics refer to:
   * S. Grimme, J. Chem. Theory Comput., 2019, 155, 2847-2862
     DOI: 10.1021/acs.jctc.9b00143
   
   for SPH calculations refer to:
   * S. Spicher and S. Grimme, J. Chem. Theory Comput., 2021, 17, 1701-1714
     DOI: 10.1021/acs.jctc.0c01306
   
   with help from (in alphabetical order)
   P. Atkinson, C. Bannwarth, F. Bohle, G. Brandenburg, E. Caldeweyher
   M. Checinski, S. Dohm, S. Ehlert, S. Ehrlich, I. Gerasimov, C. Hölzer
   A. Katbashev, J. Koopman, C. Lavigne, S. Lehtola, F. März, M. Müller,
   F. Musil, H. Neugebauer, J. Pisarek, C. Plett, P. Pracht, F. Pultar,
   J. Seibert, P. Shushkov, S. Spicher, M. Stahn, M. Steiner, T. Strunk,
   J. Stückrath, T. Rose, and J. Unsleber
   
 * started run on 2022/11/17 at 06:54:59.739     

           -------------------------------------------------
          |                Calculation Setup                |
           -------------------------------------------------

          program call               : xtb solvent_cluster.coord --gfn2 --sp --lmo --chrg 0
          hostname                   : cn0363
          coordinate file            : solvent_cluster.coord
          omp threads                :                     2

   ID    Z sym.   atoms
    1    8 o      1, 4, 7, 10, 13, 16, 19, 22, 25, 28, 31, 34, 37, 40, 43,
                  46, 49, 52, 55, 58, 61, 64, 67, 70, 73, 76, 79, 82, 85, 88,
                  91, 94, 97, 100, 103, 106, 109, 112, 115, 118, 121, 124,
                  127, 130, 133, 136, 139, 142, 145, 148, 151, 154, 157, 160,
                  163, 166, 169, 172, 175, 178, 181, 184, 187, 190, 193, 196,
                  199, 202, 205, 208, 211, 214, 217, 220, 223, 226, 229, 232,
                  235, 238, 241, 244, 247, 250, 253, 256, 259, 262, 265, 268,
                  271, 274, 277, 280, 283, 286, 289, 292, 295, 298, 301, 304,
                  307, 310, 313, 316, 319, 322, 325, 328, 331, 334, 337, 340,
                  343, 346, 349, 352, 355, 358, 361, 364, 367, 370, 373, 376,
                  379, 382, 385, 388, 391, 394, 397, 400, 403, 406, 409, 412,
                  415, 418, 421, 424, 427, 430, 433, 436, 439, 442, 445, 448,
                  451, 454, 457, 460, 463, 466, 469, 472, 475, 478, 481, 484,
                  487, 490, 493, 496, 499, 502, 505, 508, 511, 514, 517, 520,
                  523, 526, 529
    2    1 h      2, 3, 5, 6, 8, 9, 11, 12, 14, 15, 17, 18, 20, 21, 23, 24,
                  26, 27, 29, 30, 32, 33, 35, 36, 38, 39, 41, 42, 44, 45, 47,
                  48, 50, 51, 53, 54, 56, 57, 59, 60, 62, 63, 65, 66, 68, 69,
                  71, 72, 74, 75, 77, 78, 80, 81, 83, 84, 86, 87, 89, 90, 92,
                  93, 95, 96, 98, 99, 101, 102, 104, 105, 107, 108, 110, 111,
                  113, 114, 116, 117, 119, 120, 122, 123, 125, 126, 128, 129,
                  131, 132, 134, 135, 137, 138, 140, 141, 143, 144, 146, 147,
                  149, 150, 152, 153, 155, 156, 158, 159, 161, 162, 164, 165,
                  167, 168, 170, 171, 173, 174, 176, 177, 179, 180, 182, 183,
                  185, 186, 188, 189, 191, 192, 194, 195, 197, 198, 200, 201,
                  203, 204, 206, 207, 209, 210, 212, 213, 215, 216, 218, 219,
                  221, 222, 224, 225, 227, 228, 230, 231, 233, 234, 236, 237,
                  239, 240, 242, 243, 245, 246, 248, 249, 251, 252, 254, 255,
                  257, 258, 260, 261, 263, 264, 266, 267, 269, 270, 272, 273,
                  275, 276, 278, 279, 281, 282, 284, 285, 287, 288, 290, 291,
                  293, 294, 296, 297, 299, 300, 302, 303, 305, 306, 308, 309,
                  311, 312, 314, 315, 317, 318, 320, 321, 323, 324, 326, 327,
                  329, 330, 332, 333, 335, 336, 338, 339, 341, 342, 344, 345,
                  347, 348, 350, 351, 353, 354, 356, 357, 359, 360, 362, 363,
                  365, 366, 368, 369, 371, 372, 374, 375, 377, 378, 380, 381,
                  383, 384, 386, 387, 389, 390, 392, 393, 395, 396, 398, 399,
                  401, 402, 404, 405, 407, 408, 410, 411, 413, 414, 416, 417,
                  419, 420, 422, 423, 425, 426, 428, 429, 431, 432, 434, 435,
                  437, 438, 440, 441, 443, 444, 446, 447, 449, 450, 452, 453,
                  455, 456, 458, 459, 461, 462, 464, 465, 467, 468, 470, 471,
                  473, 474, 476, 477, 479, 480, 482, 483, 485, 486, 488, 489,
                  491, 492, 494, 495, 497, 498, 500, 501, 503, 504, 506, 507,
                  509, 510, 512, 513, 515, 516, 518, 519, 521, 522, 524, 525,
                  527, 528, 530, 531

molecular fragmentation (1/2 indicates fragments):
111222222222222222222222222222222222222222222222222222222222222222222222
222222222222222222222222222222222222222222222222222222222222222222222222
222222222222222222222222222222222222222222222222222222222222222222222222
222222222222222222222222222222222222222222222222222222222222222222222222
222222222222222222222222222222222222222222222222222222222222222222222222
222222222222222222222222222222222222222222222222222222222222222222222222
222222222222222222222222222222222222222222222222222222222222222222222222
222222222222222222222222222
# atoms in fragment 1/2:     3   528
 fragment masses (1/2) :       18.02     3170.69
CMA distance (Bohr)    :   6.431
constraining FC (au)   :  0.0500

           -------------------------------------------------
          |                 G F N 2 - x T B                 |
           -------------------------------------------------

        Reference                      10.1021/acs.jctc.8b01176
      * Hamiltonian:
        H0-scaling (s, p, d)           1.850000    2.230000    2.230000
        zeta-weighting                 0.500000
      * Dispersion:
        s8                             2.700000
        a1                             0.520000
        a2                             5.000000
        s9                             5.000000
      * Repulsion:
        kExp                           1.500000    1.000000
        rExp                           1.000000
      * Coulomb:
        alpha                          2.000000
        third order                    shell-resolved
        anisotropic                    true
        a3                             3.000000
        a5                             4.000000
        cn-shift                       1.200000
        cn-exp                         4.000000
        max-rad                        5.000000


          ...................................................
          :                      SETUP                      :
          :.................................................:
          :  # basis functions                1062          :
          :  # atomic orbitals                1062          :
          :  # shells                          708          :
          :  # electrons                      1416          :
          :  max. iterations                   250          :
          :  Hamiltonian                  GFN2-xTB          :
          :  restarted?                      false          :
          :  GBSA solvation                  false          :
          :  PC potential                    false          :
          :  electronic temp.          300.0000000     K    :
          :  accuracy                    1.0000000          :
          :  -> integral cutoff          0.2500000E+02      :
          :  -> integral neglect         0.1000000E-07      :
          :  -> SCF convergence          0.1000000E-05 Eh   :
          :  -> wf. convergence          0.1000000E-03 e    :
          :  Broyden damping             0.4000000          :
          ...................................................

 iter      E             dE          RMSdq      gap      omega  full diag
   1   -906.5642324 -0.906564E+03  0.407E+00    8.73       0.0  T
   2   -906.6215650 -0.573326E-01  0.241E+00    7.67       1.0  T
   3   -906.6442205 -0.226554E-01  0.214E-01    5.95       1.0  T
   4   -906.6481971 -0.397661E-02  0.466E-02    6.40       1.0  T
   5   -906.6482662 -0.691556E-04  0.314E-02    6.33       1.0  T
   6   -906.6482962 -0.299369E-04  0.437E-03    6.37       1.0  T
   7   -906.6482980 -0.180852E-05  0.762E-04    6.36       5.7  T
   8   -906.6482980 -0.217000E-07  0.391E-04    6.36      11.1  T
   9   -906.6482980 -0.105856E-07  0.586E-05    6.36      74.0  T

   *** convergence criteria satisfied after 9 iterations ***

         #    Occupation            Energy/Eh            Energy/eV
      -------------------------------------------------------------
         1        2.0000           -0.6924082             -18.8414
       ...           ...                  ...                  ...
       702        2.0000           -0.3511493              -9.5553
       703        2.0000           -0.3510096              -9.5515
       704        2.0000           -0.3500394              -9.5251
       705        2.0000           -0.3433050              -9.3418
       706        2.0000           -0.3396382              -9.2420
       707        2.0000           -0.3273696              -8.9082
       708        2.0000           -0.3138597              -8.5406 (HOMO)
       709                         -0.0799868              -2.1766 (LUMO)
       710                         -0.0600125              -1.6330
       711                         -0.0518635              -1.4113
       712                         -0.0464514              -1.2640
       713                         -0.0408801              -1.1124
       ...                                ...                  ...
      1062                          0.4763634              12.9625
      -------------------------------------------------------------
                  HL-Gap            0.2338729 Eh            6.3640 eV
             Fermi-level           -0.1969232 Eh           -5.3586 eV
 
 localization/xTB-IFF output generation
 averaging CT terms over            1  occ. levels
 averaging CT terms over            1  virt. levels
 dipole moment from electron density (au)
     X       Y       Z   
  -6.3984  -0.2145  -0.5737  total (Debye):   16.338
cpu  time for init local    0.41 s
wall time for init local    0.20 s
 doing rotations ...
 initialization of trafo matrix to unity

 converged in     16 iterations, threshold :   0.99994107D-06
 doing transformations ...
 lmo centers(Z=2) and atoms on file <lmocent.coord>
 LMO Fii/eV  ncent    charge center   contributions...
    1 LP   *******   0.00  16.13244  -4.38491  -7.81399  226O : 11.97    7O :  7.92  409O :  6.06  400O :  5.86   34O :  4.92  193O :  4.74  496O :  4.71  499O :  4.64  130O :  4.30  199O :  4.24  271O :  3.61  112O :  3.52
  169O :  3.42  391O :  3.29   22O :  3.28  190O :  3.10  268O :  3.10  238O :  2.95  478O :  2.83  277O :  2.80    4O :  2.73  202O :  2.72  133O :  2.72   55O :  2.69
   97O :  2.68  295O :  2.59  316O :  2.53  523O :  2.52  439O :  2.48   37O :  2.40  490O :  2.40   76O :  2.39   10O :  2.34  346O :  2.30  229O :  2.25   58O :  2.24
  427O :  2.21  124O :  2.20  247O :  2.18  103O :  2.16   16O :  2.15  178O :  2.13  505O :  2.10  358O :  2.06  313O :  2.06  214O :  2.06   64O :  2.01  175O :  1.97
  211O :  1.97  160O :  1.97  217O :  1.96  529O :  1.89  292O :  1.88  109O :  1.85   52O :  1.84    1O :  1.83  163O :  1.81  250O :  1.79   91O :  1.71  502O :  1.71
  121O :  1.70  379O :  1.68  115O :  1.67  208O :  1.66   28O :  1.62  310O :  1.59   73O :  1.59  463O :  1.56  364O :  1.54  373O :  1.44  286O :  1.42  448O :  1.39
  331O :  1.38   82O :  1.36  472O :  1.33  244O :  1.31  328O :  1.31  136O :  1.30  388O :  1.29  430O :  1.27  469O :  1.27  172O :  1.26  100O :  1.25   85O :  1.25
   31O :  1.22  454O :  1.22  352O :  1.20  394O :  1.20    9H :  1.16   94O :  1.16  526O :  1.13  418O :  1.09  256O :  1.07  265O :  1.06  307O :  1.04  457O :  1.03
  376O :  0.99   43O :  0.96   40O :  0.95   13O :  0.94  433O :  0.93  514O :  0.92  520O :  0.91  460O :  0.87  157O :  0.86  106O :  0.83  259O :  0.79  154O :  0.79
  184O :  0.79  235O :  0.76  101H :  0.74  412O :  0.74  385O :  0.73  196O :  0.72  359H :  0.70   70O :  0.70  145O :  0.70  151O :  0.69  322O :  0.69  280O :  0.68
   25O :  0.68  415O :  0.67   49O :  0.64  382O :  0.64  487O :  0.60  135H :  0.59  166O :  0.59  481O :  0.58  343O :  0.58  442O :  0.58   88O :  0.57  370O :  0.57
   46O :  0.56  181O :  0.56  508O :  0.55  424O :  0.55  148O :  0.53  403O :  0.53   23H :  0.53  253O :  0.51  111H :  0.50  479H :  0.49  304O :  0.48  334O :  0.48
  201H :  0.48  223O :  0.46  205O :  0.46  325O :  0.46  528H :  0.45  436O :  0.44  257H :  0.43  274O :  0.42  355O :  0.40  127O :  0.40  445O :  0.40  262O :  0.39
  475O :  0.39  451O :  0.38  406O :  0.38   67O :  0.37   19O :  0.37  195H :  0.35  511O :  0.35    8H :  0.35  276H :  0.35   30H :  0.34  319O :  0.34  493O :  0.34
   29H :  0.34  232O :  0.33  220O :  0.32  449H :  0.32  440H :  0.30  142O :  0.29  525H :  0.29  267H :  0.29  177H :  0.28  531H :  0.28  164H :  0.28  517O :  0.27
  401H :  0.26  466O :  0.26  212H :  0.26  215H :  0.26   59H :  0.25  289O :  0.25  187O :  0.25  390H :  0.24   77H :  0.24  361O :  0.24  455H :  0.24    6H :  0.23
  297H :  0.23  484O :  0.23  340O :  0.23  337O :  0.22  367O :  0.22   74H :  0.22  506H :  0.22  396H :  0.22  192H :  0.22  301O :  0.21   24H :  0.20   44H :  0.20
  183H :  0.20  218H :  0.20  123H :  0.19  349O :  0.19  139O :  0.18  470H :  0.18  241O :  0.18  464H :  0.18   99H :  0.17   33H :  0.17  501H :  0.16   12H :  0.16
  326H :  0.16  283O :  0.15   35H :  0.15  432H :  0.15  443H :  0.15  110H :  0.15  441H :  0.15  311H :  0.14  240H :  0.14  489H :  0.14  421O :  0.14  107H :  0.14
  435H :  0.14  209H :  0.14  498H :  0.14  230H :  0.13  437H :  0.13  527H :  0.13  258H :  0.13   84H :  0.13  504H :  0.12  144H :  0.12  156H :  0.12  260H :  0.12
  458H :  0.11  131H :  0.11  146H :  0.11  239H :  0.11  269H :  0.11  380H :  0.11   53H :  0.11  429H :  0.11  305H :  0.11  128H :  0.11  507H :  0.10  150H :  0.10
  197H :  0.10   65H :  0.10  228H :  0.10  366H :  0.10  200H :  0.09   21H :  0.09  516H :  0.09  179H :  0.09  354H :  0.09  273H :  0.09   60H :  0.09   61O :  0.09
  165H :  0.09  462H :  0.09   50H :  0.08  357H :  0.08   14H :  0.08  494H :  0.08   87H :  0.08  118O :  0.08  234H :  0.08
    2 LP   *******   0.00   5.96179   3.11310  -1.20289    7O : 10.50  226O :  7.55  409O :  5.58  400O :  5.39   34O :  4.53  193O :  4.38  496O :  4.34  499O :  4.27  130O :  3.96  199O :  3.91  271O :  3.33  112O :  3.24
  169O :  3.15  391O :  3.03   22O :  3.02  190O :  2.86  268O :  2.85  238O :  2.71  478O :  2.61  277O :  2.58    4O :  2.51  133O :  2.51  202O :  2.51   55O :  2.48
   97O :  2.47  316O :  2.39  295O :  2.39  523O :  2.32  439O :  2.28   37O :  2.21  490O :  2.20   76O :  2.20   10O :  2.15  346O :  2.11  229O :  2.07   58O :  2.06
  427O :  2.04  124O :  2.03  247O :  1.99  103O :  1.99   16O :  1.98  178O :  1.96  505O :  1.93  313O :  1.90  214O :  1.90  358O :  1.89   64O :  1.85  211O :  1.85
  175O :  1.81  160O :  1.81  217O :  1.80  529O :  1.74  292O :  1.73  109O :  1.70   52O :  1.70    1O :  1.69  163O :  1.66  250O :  1.65   91O :  1.58  502O :  1.58
  121O :  1.57  379O :  1.54  208O :  1.53  115O :  1.52   28O :  1.49  310O :  1.47   73O :  1.46  463O :  1.44  364O :  1.42  373O :  1.32  286O :  1.31  448O :  1.28
  331O :  1.27   82O :  1.25  472O :  1.22  244O :  1.21  328O :  1.21  136O :  1.20  388O :  1.19  430O :  1.17  469O :  1.17  172O :  1.16  100O :  1.15   85O :  1.15
   31O :  1.12  454O :  1.12  352O :  1.11  394O :  1.10   94O :  1.06  526O :  1.04  418O :  1.00  256O :  0.99    9H :  0.97  265O :  0.97  307O :  0.96  457O :  0.95
  376O :  0.91   43O :  0.88   40O :  0.87   13O :  0.87  433O :  0.86  514O :  0.85  520O :  0.84  460O :  0.80  157O :  0.79  106O :  0.77  259O :  0.73  154O :  0.73
  184O :  0.73  235O :  0.70  101H :  0.68  412O :  0.68  196O :  0.66  385O :  0.66  359H :  0.65   70O :  0.64  145O :  0.64  151O :  0.64  322O :  0.63  280O :  0.63
   25O :  0.63  415O :  0.62   49O :  0.59  382O :  0.59  487O :  0.55  135H :  0.54  166O :  0.54  481O :  0.53  343O :  0.53  442O :  0.53   88O :  0.53  370O :  0.52
   46O :  0.52  181O :  0.52  508O :  0.51  424O :  0.51  148O :  0.49  403O :  0.49   23H :  0.49  253O :  0.47  111H :  0.46  479H :  0.45  201H :  0.45  304O :  0.44
  334O :  0.44  223O :  0.43  205O :  0.43  325O :  0.42  528H :  0.41  436O :  0.41  257H :  0.40  274O :  0.39  355O :  0.37  127O :  0.37  445O :  0.37  262O :  0.36
  475O :  0.36  451O :  0.35  406O :  0.35   67O :  0.34   19O :  0.34  195H :  0.32  511O :  0.32  276H :  0.32  319O :  0.32   30H :  0.31  493O :  0.31   29H :  0.31
  232O :  0.30  220O :  0.30  449H :  0.29  440H :  0.28  142O :  0.27  525H :  0.27  267H :  0.26    8H :  0.26  177H :  0.26  531H :  0.26  164H :  0.25  517O :  0.25
  401H :  0.24  212H :  0.24  466O :  0.24  215H :  0.24   59H :  0.23  289O :  0.23  187O :  0.23  390H :  0.22   77H :  0.22  455H :  0.22  361O :  0.22    6H :  0.21
  297H :  0.21  484O :  0.21  340O :  0.21  367O :  0.21  337O :  0.21   74H :  0.20  506H :  0.20  396H :  0.20  192H :  0.20  301O :  0.19   24H :  0.19   44H :  0.19
  183H :  0.19  218H :  0.18  123H :  0.18  349O :  0.17  139O :  0.17  470H :  0.17  241O :  0.17  464H :  0.16   99H :  0.16   33H :  0.15  501H :  0.15   12H :  0.15
   35H :  0.15  326H :  0.15  283O :  0.14  432H :  0.14  443H :  0.14  110H :  0.14  441H :  0.13  240H :  0.13  311H :  0.13  489H :  0.13  421O :  0.13  107H :  0.13
  435H :  0.13  209H :  0.13  498H :  0.13  230H :  0.12  437H :  0.12  527H :  0.12  258H :  0.12   84H :  0.12  504H :  0.11  144H :  0.11  156H :  0.11  260H :  0.11
  228H :  0.11  458H :  0.10  131H :  0.10  146H :  0.10  380H :  0.10  269H :  0.10   53H :  0.10  239H :  0.10  429H :  0.10  305H :  0.10  128H :  0.10  386H :  0.09
  507H :  0.09  150H :  0.09  197H :  0.09   65H :  0.09  366H :  0.09  200H :  0.09   21H :  0.09  516H :  0.09  179H :  0.08  354H :  0.08  273H :  0.08   60H :  0.08
   61O :  0.08  165H :  0.08  462H :  0.08   50H :  0.08  357H :  0.07   14H :  0.07  494H :  0.07
    3 LP   *******   0.00   0.35762   9.36455  11.30069  409O :  6.85  226O :  5.45    7O :  5.26  400O :  3.89   34O :  3.27  193O :  3.16  496O :  3.13  499O :  3.08  130O :  2.86  199O :  2.82  271O :  2.40  112O :  2.34
  169O :  2.28  391O :  2.19   22O :  2.18  190O :  2.06  268O :  2.06  238O :  1.96  478O :  1.88  277O :  1.86    4O :  1.81  133O :  1.81  202O :  1.80   55O :  1.79
   97O :  1.78  316O :  1.73  295O :  1.72  523O :  1.68  439O :  1.64   37O :  1.59  490O :  1.59   76O :  1.59   10O :  1.55  346O :  1.53  229O :  1.49   58O :  1.49
  427O :  1.47  124O :  1.46  247O :  1.45  103O :  1.44   16O :  1.43  178O :  1.42  505O :  1.39  313O :  1.37  214O :  1.37  358O :  1.36   64O :  1.33  211O :  1.33
  175O :  1.31  160O :  1.31  217O :  1.30  529O :  1.26  292O :  1.25  109O :  1.23   52O :  1.22    1O :  1.22  163O :  1.20  250O :  1.19   91O :  1.14  502O :  1.14
  121O :  1.13  379O :  1.11  115O :  1.11  208O :  1.11   28O :  1.06  310O :  1.06   73O :  1.05  463O :  1.04  364O :  1.03  373O :  0.95  286O :  0.95  448O :  0.92
  331O :  0.91   82O :  0.90  472O :  0.88  244O :  0.87  328O :  0.87  136O :  0.87  388O :  0.86  430O :  0.84  469O :  0.84  172O :  0.84  100O :  0.83   85O :  0.83
   31O :  0.81  454O :  0.81  352O :  0.80  394O :  0.80    9H :  0.77   94O :  0.77  526O :  0.75  418O :  0.72  256O :  0.71  265O :  0.70  307O :  0.69  457O :  0.68
  376O :  0.66   43O :  0.64   40O :  0.63   13O :  0.62  433O :  0.62  514O :  0.61  520O :  0.59  460O :  0.58  157O :  0.57  106O :  0.55  259O :  0.53  154O :  0.52
  184O :  0.52  235O :  0.51  101H :  0.49  412O :  0.49  385O :  0.48  196O :  0.48  359H :  0.47   70O :  0.46  145O :  0.46  151O :  0.46  322O :  0.46  280O :  0.45
   25O :  0.45  415O :  0.45   49O :  0.43  382O :  0.42  487O :  0.40  135H :  0.39  166O :  0.39  481O :  0.38  343O :  0.38  442O :  0.38   88O :  0.38  370O :  0.38
   46O :  0.37  181O :  0.37  508O :  0.37  424O :  0.37  148O :  0.35  403O :  0.35   23H :  0.35  253O :  0.34  111H :  0.33  479H :  0.33  201H :  0.32  304O :  0.32
  334O :  0.32  223O :  0.31  205O :  0.31  325O :  0.31  528H :  0.30  436O :  0.30  257H :  0.29  274O :  0.28  355O :  0.27  127O :  0.27  445O :  0.27  262O :  0.26
  451O :  0.25  406O :  0.25  475O :  0.25   67O :  0.24   19O :  0.24  195H :  0.23  511O :  0.23  276H :  0.23    8H :  0.23   30H :  0.23  319O :  0.23  493O :  0.22
   29H :  0.22  232O :  0.22  220O :  0.21  449H :  0.21  440H :  0.20  142O :  0.20  525H :  0.19  267H :  0.19  177H :  0.19  531H :  0.19  164H :  0.18  517O :  0.18
  401H :  0.18  212H :  0.18  466O :  0.17  215H :  0.17   59H :  0.17  289O :  0.17  187O :  0.17  390H :  0.16   77H :  0.16  455H :  0.16  361O :  0.16    6H :  0.15
  297H :  0.15  484O :  0.15  340O :  0.15  367O :  0.15  337O :  0.15   74H :  0.15  506H :  0.15  396H :  0.14  192H :  0.14  301O :  0.14   24H :  0.14   44H :  0.13
  183H :  0.13  218H :  0.13  123H :  0.13  349O :  0.13  470H :  0.12  139O :  0.12  241O :  0.12  464H :  0.12   99H :  0.11   33H :  0.11  501H :  0.11   12H :  0.11
  326H :  0.11  283O :  0.10   35H :  0.10  432H :  0.10  443H :  0.10  110H :  0.10  441H :  0.10  311H :  0.10  240H :  0.09  489H :  0.09  421O :  0.09  107H :  0.09
  435H :  0.09  209H :  0.09  498H :  0.09  230H :  0.09  437H :  0.09  527H :  0.09  258H :  0.08   84H :  0.08  504H :  0.08  156H :  0.08  144H :  0.08  260H :  0.08
  228H :  0.08  458H :  0.08  131H :  0.07  146H :  0.07  239H :  0.07  380H :  0.07  269H :  0.07   53H :  0.07  429H :  0.07  305H :  0.07  128H :  0.07
    4 LP   *******   0.00   3.27569   7.17438   4.09662   34O :  5.86  226O :  5.41    7O :  5.22  409O :  4.00  400O :  3.86  193O :  3.13  496O :  3.11  499O :  3.07  130O :  2.84  199O :  2.80  271O :  2.38  112O :  2.32
  169O :  2.26  391O :  2.17   22O :  2.16  190O :  2.05  268O :  2.04  238O :  1.94  478O :  1.87  277O :  1.85    4O :  1.80  133O :  1.80  202O :  1.77   97O :  1.77
   55O :  1.74  316O :  1.71  295O :  1.71  523O :  1.66  439O :  1.63   76O :  1.58   37O :  1.58  490O :  1.58   10O :  1.54  346O :  1.51  229O :  1.48   58O :  1.48
  427O :  1.46  124O :  1.45  247O :  1.43  103O :  1.42   16O :  1.42  178O :  1.40  505O :  1.39  313O :  1.36  214O :  1.36  358O :  1.35   64O :  1.32  211O :  1.32
  175O :  1.30  160O :  1.30  217O :  1.29  529O :  1.25  292O :  1.24  109O :  1.22   52O :  1.21    1O :  1.21  163O :  1.19  250O :  1.18   91O :  1.13  502O :  1.13
  121O :  1.12  379O :  1.10  115O :  1.10  208O :  1.10   28O :  1.07  310O :  1.05   73O :  1.05  463O :  1.03  364O :  1.02  373O :  0.95  286O :  0.94  448O :  0.92
  331O :  0.91   82O :  0.90  472O :  0.88  244O :  0.86  328O :  0.86  136O :  0.86  388O :  0.85  430O :  0.84  172O :  0.83  469O :  0.83  100O :  0.82   85O :  0.82
   31O :  0.81  454O :  0.81  352O :  0.79  394O :  0.79   94O :  0.76    9H :  0.76  526O :  0.75  418O :  0.72  256O :  0.71  265O :  0.70  307O :  0.68  457O :  0.68
  376O :  0.66   43O :  0.63   40O :  0.62   13O :  0.62  433O :  0.61  514O :  0.61  520O :  0.60  460O :  0.57  157O :  0.57  106O :  0.55  259O :  0.52  154O :  0.52
  184O :  0.52  235O :  0.50  101H :  0.49  412O :  0.49  385O :  0.48  359H :  0.47   70O :  0.46  196O :  0.46  145O :  0.46  151O :  0.46  322O :  0.45  280O :  0.45
   25O :  0.45  415O :  0.44   49O :  0.43  382O :  0.42  487O :  0.39  135H :  0.39  166O :  0.39  481O :  0.38  343O :  0.38  442O :  0.38   88O :  0.38  370O :  0.37
   46O :  0.37  181O :  0.37  508O :  0.36  424O :  0.36  148O :  0.35  403O :  0.35   23H :  0.35  253O :  0.33  111H :  0.33  479H :  0.32  201H :  0.32  304O :  0.32
  334O :  0.32  223O :  0.31  205O :  0.31  325O :  0.31  436O :  0.29  528H :  0.29  257H :  0.28  274O :  0.28  355O :  0.27  127O :  0.27  445O :  0.26  262O :  0.26
  475O :  0.25  451O :  0.25  406O :  0.25   67O :  0.24   19O :  0.24  195H :  0.23  511O :  0.23   30H :  0.23  276H :  0.23  493O :  0.22  319O :  0.22    8H :  0.22
  232O :  0.22  220O :  0.21  449H :  0.21  440H :  0.20   29H :  0.20  142O :  0.19  267H :  0.19  525H :  0.19  177H :  0.19  531H :  0.18  164H :  0.18  517O :  0.18
  401H :  0.17  212H :  0.17  466O :  0.17  215H :  0.17   59H :  0.17  289O :  0.17  187O :  0.16  390H :  0.16   77H :  0.16  455H :  0.16  361O :  0.15    6H :  0.15
  297H :  0.15  340O :  0.15  484O :  0.15  367O :  0.15  337O :  0.15   74H :  0.15  506H :  0.14  396H :  0.14  192H :  0.14  301O :  0.14   24H :  0.13   44H :  0.13
  183H :  0.13  218H :  0.13  123H :  0.13  349O :  0.12  470H :  0.12  139O :  0.12  241O :  0.12  464H :  0.12   99H :  0.11   33H :  0.11  501H :  0.11   12H :  0.10
  326H :  0.10  283O :  0.10  432H :  0.10  443H :  0.10  110H :  0.10  441H :  0.10  311H :  0.09  240H :  0.09  489H :  0.09  421O :  0.09  107H :  0.09  435H :  0.09
  209H :  0.09  498H :  0.09  230H :  0.09  437H :  0.09  527H :  0.08  258H :  0.08   84H :  0.08  504H :  0.08  144H :  0.08  156H :  0.08  260H :  0.08   35H :  0.08
  228H :  0.08  458H :  0.07  131H :  0.07  146H :  0.07  239H :  0.07  380H :  0.07  269H :  0.07   53H :  0.07  429H :  0.07  305H :  0.07
    5 LP   *******   0.00  18.27327   9.40205   0.86461  496O :  5.74  226O :  5.06    7O :  4.89  409O :  3.74  400O :  3.62   34O :  3.04  193O :  2.94  499O :  2.86  130O :  2.66  199O :  2.62  271O :  2.23  112O :  2.17
  169O :  2.12  391O :  2.03   22O :  2.02  268O :  1.92  190O :  1.92  238O :  1.82  478O :  1.75  277O :  1.73    4O :  1.69  202O :  1.68  133O :  1.68   55O :  1.66
   97O :  1.66  316O :  1.61  295O :  1.60  523O :  1.56  439O :  1.53   37O :  1.48  490O :  1.48   76O :  1.48   10O :  1.44  346O :  1.42  229O :  1.39   58O :  1.38
  427O :  1.37  124O :  1.36  247O :  1.35  103O :  1.34   16O :  1.33  178O :  1.32  505O :  1.30  313O :  1.27  214O :  1.27  358O :  1.27   64O :  1.24  211O :  1.24
  175O :  1.22  160O :  1.21  217O :  1.21  529O :  1.17  292O :  1.16  109O :  1.14   52O :  1.14    1O :  1.13  163O :  1.12  250O :  1.11   91O :  1.06  502O :  1.06
  121O :  1.05  379O :  1.03  115O :  1.03  208O :  1.03   28O :  1.00  310O :  0.98   73O :  0.98  463O :  0.97  364O :  0.95  373O :  0.89  286O :  0.88  448O :  0.86
  331O :  0.85   82O :  0.84  472O :  0.82  244O :  0.81  328O :  0.81  136O :  0.81  388O :  0.80  430O :  0.78  469O :  0.78  172O :  0.78  100O :  0.77   85O :  0.77
   31O :  0.75  454O :  0.75  352O :  0.74  394O :  0.74    9H :  0.72   94O :  0.71  526O :  0.70  418O :  0.67  256O :  0.66  265O :  0.65  307O :  0.64  457O :  0.64
  376O :  0.61   43O :  0.59   40O :  0.58   13O :  0.58  433O :  0.57  514O :  0.57  520O :  0.56  460O :  0.54  157O :  0.53  106O :  0.51  259O :  0.49  154O :  0.49
  184O :  0.49  235O :  0.47  101H :  0.46  412O :  0.46  385O :  0.45  196O :  0.44  359H :  0.44   70O :  0.43  145O :  0.43  151O :  0.43  322O :  0.43  280O :  0.42
   25O :  0.42  415O :  0.41   49O :  0.40  382O :  0.39  487O :  0.37  135H :  0.36  166O :  0.36  481O :  0.36  343O :  0.36  442O :  0.36   88O :  0.35  370O :  0.35
   46O :  0.35  181O :  0.35  508O :  0.34  424O :  0.33  148O :  0.33  403O :  0.33   23H :  0.33  253O :  0.31  111H :  0.31  479H :  0.30  201H :  0.30  304O :  0.30
  334O :  0.30  223O :  0.29  205O :  0.29  325O :  0.28  528H :  0.28  436O :  0.27  257H :  0.27  274O :  0.26  355O :  0.25  127O :  0.25  445O :  0.25  262O :  0.24
  475O :  0.24  451O :  0.23  406O :  0.23   67O :  0.23   19O :  0.23  195H :  0.22  511O :  0.22    8H :  0.21  276H :  0.21  319O :  0.21   30H :  0.21  493O :  0.21
   29H :  0.21  232O :  0.20  220O :  0.20  449H :  0.20  440H :  0.19  142O :  0.18  525H :  0.18  267H :  0.18  177H :  0.18  531H :  0.17  164H :  0.17  517O :  0.17
  401H :  0.16  212H :  0.16  466O :  0.16  215H :  0.16   59H :  0.16  289O :  0.15  187O :  0.15  390H :  0.15   77H :  0.15  455H :  0.15  361O :  0.14    6H :  0.14
  297H :  0.14  484O :  0.14  340O :  0.14  367O :  0.14  337O :  0.14   74H :  0.14  506H :  0.14  396H :  0.13  192H :  0.13  301O :  0.13   24H :  0.13   44H :  0.13
  183H :  0.12  218H :  0.12  123H :  0.12  349O :  0.12  139O :  0.11  470H :  0.11  241O :  0.11  464H :  0.11   99H :  0.11   33H :  0.10  501H :  0.10   12H :  0.10
  326H :  0.10  283O :  0.10  432H :  0.09  443H :  0.09   35H :  0.09  110H :  0.09  441H :  0.09  311H :  0.09  240H :  0.09  516H :  0.09  489H :  0.09  421O :  0.08
  107H :  0.08  435H :  0.08  209H :  0.08  230H :  0.08  437H :  0.08  527H :  0.08  258H :  0.08   84H :  0.08  504H :  0.08  144H :  0.08  156H :  0.08  260H :  0.08
  498H :  0.07  228H :  0.07  458H :  0.07
    6 LP   *******   0.00  15.44418  -0.45446  -4.36122  193O :  5.24  226O :  4.83    7O :  4.67  409O :  3.57  400O :  3.45   34O :  2.90  496O :  2.78  499O :  2.73  199O :  2.54  130O :  2.53  271O :  2.13  112O :  2.07
  169O :  2.02  391O :  1.94   22O :  1.93  190O :  1.83  268O :  1.82  238O :  1.74  478O :  1.67  277O :  1.65    4O :  1.61  202O :  1.60  133O :  1.60   55O :  1.58
   97O :  1.58  316O :  1.53  295O :  1.53  523O :  1.48  439O :  1.46   76O :  1.41   37O :  1.41  490O :  1.41   10O :  1.37  346O :  1.35   58O :  1.32  229O :  1.32
  427O :  1.30  124O :  1.30  247O :  1.28  103O :  1.27   16O :  1.27  178O :  1.26  505O :  1.24  313O :  1.21  214O :  1.21  358O :  1.19   64O :  1.18  211O :  1.18
  175O :  1.16  160O :  1.16  217O :  1.15  529O :  1.11  292O :  1.10  109O :  1.09   52O :  1.08    1O :  1.08  163O :  1.06  250O :  1.06   91O :  1.01  502O :  1.01
  121O :  1.00  379O :  0.99  208O :  0.98  115O :  0.95   28O :  0.95  310O :  0.94   73O :  0.93  463O :  0.92  364O :  0.91  373O :  0.85  286O :  0.84  448O :  0.82
  331O :  0.81   82O :  0.80  472O :  0.78  244O :  0.77  328O :  0.77  136O :  0.77  388O :  0.76  430O :  0.75  469O :  0.75  172O :  0.74  100O :  0.74   85O :  0.73
   31O :  0.72  454O :  0.72  352O :  0.71  394O :  0.71    9H :  0.68   94O :  0.68  526O :  0.67  418O :  0.64  256O :  0.63  265O :  0.62  307O :  0.61  457O :  0.61
  376O :  0.59   43O :  0.57   40O :  0.56   13O :  0.55  433O :  0.55  514O :  0.54  520O :  0.54  460O :  0.51  157O :  0.51  106O :  0.49  259O :  0.47  154O :  0.47
  184O :  0.46  235O :  0.45  101H :  0.44  412O :  0.44  385O :  0.43  196O :  0.42  359H :  0.42  145O :  0.41  151O :  0.41   70O :  0.41  322O :  0.41  280O :  0.40
   25O :  0.40  415O :  0.39   49O :  0.38  382O :  0.38  487O :  0.35  135H :  0.35  166O :  0.34  481O :  0.34  343O :  0.34  442O :  0.34   88O :  0.34  370O :  0.33
   46O :  0.33  181O :  0.33  508O :  0.33  424O :  0.32  148O :  0.31  403O :  0.31   23H :  0.31  201H :  0.31  253O :  0.30  111H :  0.29  479H :  0.29  304O :  0.28
  334O :  0.28  223O :  0.27  205O :  0.27  325O :  0.27  528H :  0.26  436O :  0.26  257H :  0.25  274O :  0.25  355O :  0.24  127O :  0.24  445O :  0.24  262O :  0.23
  475O :  0.23  451O :  0.22  406O :  0.22   67O :  0.22   19O :  0.22  511O :  0.21  276H :  0.20    8H :  0.20  319O :  0.20   30H :  0.20  493O :  0.20   29H :  0.20
  232O :  0.19  220O :  0.19  449H :  0.19  195H :  0.18  142O :  0.17  525H :  0.17  267H :  0.17  177H :  0.17  440H :  0.17  531H :  0.16  164H :  0.16  517O :  0.16
  212H :  0.16  401H :  0.16  466O :  0.16  215H :  0.15  289O :  0.15  187O :  0.15   59H :  0.14  390H :  0.14  361O :  0.14   77H :  0.14  455H :  0.14    6H :  0.14
  297H :  0.13  484O :  0.13  340O :  0.13  337O :  0.13  367O :  0.13   74H :  0.13  506H :  0.13  396H :  0.13  192H :  0.13  301O :  0.12   24H :  0.12   44H :  0.12
  183H :  0.12  218H :  0.12  123H :  0.11  349O :  0.11  139O :  0.11  470H :  0.11  241O :  0.11  464H :  0.10   99H :  0.10   33H :  0.10  501H :  0.10   12H :  0.09
  326H :  0.09  283O :  0.09   35H :  0.09  432H :  0.09  443H :  0.09  110H :  0.09  441H :  0.08  311H :  0.08  240H :  0.08  489H :  0.08  421O :  0.08  107H :  0.08
  435H :  0.08  209H :  0.08  498H :  0.08  230H :  0.08  437H :  0.08  527H :  0.08  258H :  0.07   84H :  0.07  504H :  0.07  144H :  0.07  156H :  0.07  260H :  0.07
    7 LP   *******   0.00  -7.14361  -0.36465  -6.07986  400O :  5.68  226O :  4.72    7O :  4.56  409O :  3.49   34O :  2.83  193O :  2.74  496O :  2.71  499O :  2.67  130O :  2.48  199O :  2.44  271O :  2.08  112O :  2.03
  169O :  1.97  391O :  1.89   22O :  1.89  190O :  1.79  268O :  1.78  238O :  1.70  478O :  1.63  277O :  1.61    4O :  1.57  133O :  1.57  202O :  1.57   55O :  1.55
   97O :  1.54  316O :  1.50  295O :  1.47  523O :  1.45  439O :  1.42   37O :  1.38  490O :  1.38   76O :  1.38   10O :  1.35  346O :  1.32  229O :  1.29   58O :  1.29
  427O :  1.27  124O :  1.27  247O :  1.25  103O :  1.25   16O :  1.24  178O :  1.23  505O :  1.21  313O :  1.19  214O :  1.18  358O :  1.18  211O :  1.15   64O :  1.15
  160O :  1.13  175O :  1.13  217O :  1.13  529O :  1.09  292O :  1.08  109O :  1.07   52O :  1.06    1O :  1.06  163O :  1.04  250O :  1.03   91O :  0.99  502O :  0.99
  121O :  0.98  379O :  0.96  115O :  0.96  208O :  0.96   28O :  0.93   73O :  0.91  310O :  0.91  463O :  0.90  364O :  0.89  373O :  0.83  286O :  0.82  448O :  0.80
  331O :  0.79   82O :  0.78  472O :  0.77  244O :  0.75  328O :  0.75  136O :  0.75  388O :  0.74  430O :  0.73  469O :  0.73  172O :  0.73  100O :  0.72   85O :  0.72
   31O :  0.70  454O :  0.70  352O :  0.69  394O :  0.69    9H :  0.67   94O :  0.67  526O :  0.65  418O :  0.63  256O :  0.62  265O :  0.61  307O :  0.60  457O :  0.59
  376O :  0.57   43O :  0.55   40O :  0.54   13O :  0.54  433O :  0.54  514O :  0.53  520O :  0.53  460O :  0.50  157O :  0.50  106O :  0.48  259O :  0.46  154O :  0.45
  184O :  0.45  235O :  0.44  101H :  0.43  412O :  0.43  385O :  0.42  196O :  0.41  359H :  0.41   70O :  0.40  145O :  0.40  151O :  0.40  322O :  0.40  280O :  0.39
   25O :  0.39  415O :  0.39   49O :  0.37  382O :  0.37  487O :  0.34  135H :  0.34  166O :  0.34  481O :  0.33  343O :  0.33  442O :  0.33   88O :  0.33  370O :  0.33
   46O :  0.32  181O :  0.32  508O :  0.32  424O :  0.32  148O :  0.31  403O :  0.30   23H :  0.30  253O :  0.29  111H :  0.29  479H :  0.28  201H :  0.28  304O :  0.28
  334O :  0.28  223O :  0.27  205O :  0.27  325O :  0.26  528H :  0.26  436O :  0.26  257H :  0.25  274O :  0.24  355O :  0.23  127O :  0.23  445O :  0.23  262O :  0.23
  475O :  0.22  451O :  0.22  406O :  0.22   67O :  0.21   19O :  0.21  195H :  0.20  511O :  0.20    8H :  0.20  276H :  0.20   30H :  0.20  319O :  0.20  493O :  0.19
   29H :  0.19  232O :  0.19  220O :  0.18  449H :  0.18  440H :  0.17  142O :  0.17  525H :  0.17  267H :  0.17  177H :  0.16  531H :  0.16  164H :  0.16  289O :  0.16
  517O :  0.15  466O :  0.15  212H :  0.15  215H :  0.15   59H :  0.15  187O :  0.14  390H :  0.14   77H :  0.14  455H :  0.14  361O :  0.14    6H :  0.13  484O :  0.13
  340O :  0.13  367O :  0.13  337O :  0.13   74H :  0.13  506H :  0.13  192H :  0.12  401H :  0.12  396H :  0.12  301O :  0.12   24H :  0.12   44H :  0.12  183H :  0.12
  218H :  0.11  123H :  0.11  349O :  0.11  139O :  0.11  470H :  0.11   33H :  0.10  241O :  0.10  464H :  0.10   99H :  0.10  501H :  0.09  297H :  0.09   12H :  0.09
  326H :  0.09  283O :  0.09  432H :  0.09   35H :  0.09  443H :  0.09  110H :  0.09  441H :  0.08  311H :  0.08  240H :  0.08  489H :  0.08  421O :  0.08  107H :  0.08
  435H :  0.08  209H :  0.08  498H :  0.08  230H :  0.08  437H :  0.08  527H :  0.07  258H :  0.07  504H :  0.07  144H :  0.07  156H :  0.07  260H :  0.07
    8 LP   *******   0.00   6.73005   1.69741   9.23092  499O :  5.06  226O :  4.56    7O :  4.40  409O :  3.37  400O :  3.25   34O :  2.74  193O :  2.64  496O :  2.62  130O :  2.39  199O :  2.36  271O :  2.01  112O :  1.95
  169O :  1.90  391O :  1.83   22O :  1.82  190O :  1.72  268O :  1.72  238O :  1.64  478O :  1.57  277O :  1.56    4O :  1.52  133O :  1.51  202O :  1.51   97O :  1.49
   55O :  1.48  316O :  1.44  295O :  1.44  523O :  1.41  439O :  1.37   37O :  1.33  490O :  1.33   76O :  1.33   10O :  1.30  346O :  1.28  229O :  1.25   58O :  1.24
  427O :  1.23  124O :  1.21  247O :  1.21   16O :  1.19  178O :  1.19  103O :  1.18  505O :  1.16  313O :  1.14  214O :  1.14  358O :  1.14   64O :  1.12  211O :  1.11
  175O :  1.09  160O :  1.09  217O :  1.09  529O :  1.05  292O :  1.04  109O :  1.04   52O :  1.02    1O :  1.02  163O :  1.00  250O :  1.00   91O :  0.95  502O :  0.95
  121O :  0.95  379O :  0.93  115O :  0.93  208O :  0.92   28O :  0.90  310O :  0.88   73O :  0.88  463O :  0.87  364O :  0.86  373O :  0.80  286O :  0.79  448O :  0.77
  331O :  0.76   82O :  0.76  472O :  0.74  244O :  0.73  328O :  0.73  136O :  0.72  388O :  0.72  430O :  0.70  469O :  0.70  172O :  0.70  100O :  0.69   85O :  0.69
   31O :  0.68  454O :  0.68  352O :  0.67  394O :  0.67    9H :  0.65   94O :  0.64  526O :  0.63  418O :  0.60  256O :  0.60  265O :  0.59  307O :  0.58  457O :  0.57
  376O :  0.55   43O :  0.53   40O :  0.53   13O :  0.52  433O :  0.52  514O :  0.51  520O :  0.51  460O :  0.48  157O :  0.48  106O :  0.46  154O :  0.44  184O :  0.44
  259O :  0.44  235O :  0.42  101H :  0.41  412O :  0.41  385O :  0.40  196O :  0.40  359H :  0.39   70O :  0.39  145O :  0.39  151O :  0.39  322O :  0.38  280O :  0.38
   25O :  0.38  415O :  0.37   49O :  0.36  382O :  0.35  487O :  0.33  135H :  0.33  166O :  0.33  481O :  0.32  343O :  0.32  442O :  0.32   88O :  0.31  370O :  0.31
   46O :  0.31  181O :  0.31  508O :  0.31  424O :  0.31  148O :  0.30  403O :  0.30   23H :  0.29  111H :  0.29  253O :  0.28  479H :  0.27  201H :  0.27  304O :  0.27
  334O :  0.27  223O :  0.26  205O :  0.26  325O :  0.26  528H :  0.25  436O :  0.25  257H :  0.24  274O :  0.23  355O :  0.22  445O :  0.22  127O :  0.22  262O :  0.22
  475O :  0.21  451O :  0.21  406O :  0.21   67O :  0.20   19O :  0.20  195H :  0.19  511O :  0.19  276H :  0.19    8H :  0.19  319O :  0.19   30H :  0.19  493O :  0.19
   29H :  0.19  232O :  0.18  220O :  0.18  449H :  0.18  440H :  0.17  142O :  0.16  267H :  0.16  177H :  0.16  531H :  0.16  164H :  0.15  525H :  0.15  517O :  0.15
  401H :  0.15  212H :  0.15  466O :  0.15  215H :  0.14   59H :  0.14  289O :  0.14  187O :  0.14  390H :  0.13   77H :  0.13  455H :  0.13  361O :  0.13    6H :  0.13
  297H :  0.13  340O :  0.13  484O :  0.13  367O :  0.12  337O :  0.12   74H :  0.12  506H :  0.12  396H :  0.12  192H :  0.12  301O :  0.12   24H :  0.11   44H :  0.11
  183H :  0.11  218H :  0.11  123H :  0.11  349O :  0.11  139O :  0.10  470H :  0.10  241O :  0.10  464H :  0.10   99H :  0.09   33H :  0.09   12H :  0.09  326H :  0.09
  283O :  0.09   35H :  0.08  432H :  0.08  443H :  0.08  441H :  0.08  311H :  0.08  240H :  0.08  489H :  0.08  421O :  0.08  107H :  0.08  435H :  0.08  209H :  0.08
  498H :  0.08  230H :  0.07  501H :  0.07  437H :  0.07  527H :  0.07
    9 LP   *******   0.00  -0.45462  -5.02459  -4.01320  226O :  4.35  199O :  4.33    7O :  4.20  409O :  3.22  400O :  3.10   34O :  2.61  193O :  2.56  496O :  2.50  499O :  2.46  130O :  2.28  271O :  1.92  112O :  1.86
  169O :  1.82  391O :  1.74   22O :  1.74  190O :  1.65  268O :  1.64  238O :  1.56  478O :  1.50  277O :  1.49    4O :  1.45  202O :  1.44  133O :  1.44   55O :  1.43
   97O :  1.42  295O :  1.38  316O :  1.37  523O :  1.34  439O :  1.31   76O :  1.29   37O :  1.27  490O :  1.27   10O :  1.24  346O :  1.22   58O :  1.19  229O :  1.18
  427O :  1.17  124O :  1.17   16O :  1.16  247O :  1.16  103O :  1.15  178O :  1.13  505O :  1.11  313O :  1.09  214O :  1.09  358O :  1.09  211O :  1.08   64O :  1.07
  175O :  1.04  160O :  1.04  217O :  1.04  529O :  1.00  292O :  0.99  109O :  0.98   52O :  0.98    1O :  0.97  163O :  0.96  250O :  0.95   91O :  0.91  502O :  0.91
  121O :  0.90  379O :  0.89  115O :  0.88  208O :  0.88   28O :  0.86  310O :  0.84   73O :  0.84  463O :  0.83  364O :  0.82  373O :  0.76  286O :  0.76  448O :  0.74
  331O :  0.73   82O :  0.72  472O :  0.71  328O :  0.69  244O :  0.69  136O :  0.69  388O :  0.69  430O :  0.67  469O :  0.67  172O :  0.67  100O :  0.66   85O :  0.66
   31O :  0.65  454O :  0.65  352O :  0.64  394O :  0.64    9H :  0.62   94O :  0.61  526O :  0.60  418O :  0.58  256O :  0.57  265O :  0.56  307O :  0.55  457O :  0.55
  376O :  0.53   43O :  0.51   40O :  0.50   13O :  0.50  433O :  0.49  514O :  0.49  520O :  0.48  460O :  0.46  157O :  0.46  106O :  0.44  259O :  0.42  154O :  0.42
  184O :  0.42  235O :  0.40  101H :  0.39  412O :  0.39  385O :  0.39  196O :  0.38  359H :  0.38   70O :  0.37  145O :  0.37  151O :  0.37  322O :  0.36  280O :  0.36
   25O :  0.36  415O :  0.36   49O :  0.34  382O :  0.34  487O :  0.32  135H :  0.31  166O :  0.31  481O :  0.31  343O :  0.31  442O :  0.31   88O :  0.30  370O :  0.30
   46O :  0.30  181O :  0.30  508O :  0.29  424O :  0.29  148O :  0.28  403O :  0.28   23H :  0.28  253O :  0.27  111H :  0.26  479H :  0.26  304O :  0.26  334O :  0.25
  223O :  0.25  212H :  0.25  205O :  0.25  325O :  0.24  528H :  0.24  436O :  0.24  257H :  0.23  201H :  0.22  274O :  0.22  355O :  0.21  127O :  0.21  445O :  0.21
  262O :  0.21  475O :  0.20  451O :  0.20  406O :  0.20   67O :  0.20   19O :  0.19  195H :  0.19  511O :  0.19    8H :  0.18  276H :  0.18   30H :  0.18  319O :  0.18
  493O :  0.18   29H :  0.18  232O :  0.17  220O :  0.17  449H :  0.17  440H :  0.16  142O :  0.16  525H :  0.15  267H :  0.15  177H :  0.15  531H :  0.15  164H :  0.15
  517O :  0.14  401H :  0.14  466O :  0.14  215H :  0.14  289O :  0.13  187O :  0.13   59H :  0.13  390H :  0.13   77H :  0.13  455H :  0.12  361O :  0.12    6H :  0.12
  337O :  0.12  297H :  0.12  484O :  0.12  340O :  0.12  367O :  0.12   74H :  0.12  506H :  0.12  396H :  0.12  192H :  0.11  301O :  0.11   24H :  0.11   44H :  0.11
  183H :  0.11  123H :  0.10  349O :  0.10  218H :  0.10  139O :  0.10  470H :  0.10  241O :  0.09  464H :  0.09   99H :  0.09   33H :  0.09  501H :  0.09  326H :  0.08
   12H :  0.08  283O :  0.08  432H :  0.08   35H :  0.08  240H :  0.08  443H :  0.08  110H :  0.08  441H :  0.08  311H :  0.08  489H :  0.07  421O :  0.07  107H :  0.07
  435H :  0.07  209H :  0.07  498H :  0.07
   10 LP   *******   0.01   7.89263   5.72141   1.30155    7O :  5.25  226O :  4.08  409O :  3.02  400O :  2.91   34O :  2.45  193O :  2.37  496O :  2.34  499O :  2.31  130O :  2.14  199O :  2.11  271O :  1.80  112O :  1.75
  169O :  1.70  391O :  1.64   22O :  1.63  190O :  1.54  268O :  1.53    9H :  1.51  238O :  1.47  478O :  1.41  277O :  1.39    4O :  1.36  133O :  1.36  202O :  1.35
   55O :  1.34   97O :  1.34  316O :  1.29  295O :  1.29  523O :  1.25  439O :  1.23  490O :  1.19   76O :  1.19   37O :  1.18   10O :  1.16  346O :  1.14  229O :  1.12
   58O :  1.11  427O :  1.10  124O :  1.10  247O :  1.08  103O :  1.08   16O :  1.07  178O :  1.05  505O :  1.05  313O :  1.03  214O :  1.02  358O :  1.02   64O :  1.00
  211O :  1.00  175O :  0.98  160O :  0.98  217O :  0.98  529O :  0.94  292O :  0.93  109O :  0.92   52O :  0.92    1O :  0.91  163O :  0.90  250O :  0.89   91O :  0.85
  502O :  0.85  121O :  0.85  115O :  0.84  379O :  0.83  208O :  0.83   28O :  0.81  310O :  0.79   73O :  0.79  463O :  0.78  364O :  0.77  373O :  0.71  286O :  0.71
  448O :  0.69  331O :  0.68   82O :  0.68  472O :  0.66  244O :  0.65  328O :  0.65  136O :  0.65  388O :  0.64  430O :  0.63  469O :  0.63  172O :  0.63  100O :  0.62
   85O :  0.62   31O :  0.61  454O :  0.61  352O :  0.60  394O :  0.60   94O :  0.58  526O :  0.56  418O :  0.54  256O :  0.53  265O :  0.52  307O :  0.52  457O :  0.51
  376O :  0.49   43O :  0.48   40O :  0.47   13O :  0.47  433O :  0.46  514O :  0.46  520O :  0.45  460O :  0.43  157O :  0.43  106O :  0.41  259O :  0.39  154O :  0.39
  184O :  0.39  235O :  0.38  101H :  0.37  412O :  0.37  385O :  0.36  196O :  0.36  359H :  0.35   70O :  0.35  145O :  0.35  151O :  0.35  322O :  0.34  280O :  0.34
   25O :  0.34  415O :  0.33   49O :  0.32  382O :  0.32  487O :  0.30  135H :  0.29  166O :  0.29  481O :  0.29  343O :  0.29  442O :  0.29   88O :  0.28  370O :  0.28
   46O :  0.28  181O :  0.28  424O :  0.28  508O :  0.28  148O :  0.27  403O :  0.26   23H :  0.26  253O :  0.25  111H :  0.25  479H :  0.24  201H :  0.24  304O :  0.24
  334O :  0.24  223O :  0.23  205O :  0.23  325O :  0.23  436O :  0.22  528H :  0.22  257H :  0.21  274O :  0.21  355O :  0.20    8H :  0.20  127O :  0.20  445O :  0.20
  262O :  0.20  475O :  0.19  451O :  0.19  406O :  0.19   67O :  0.18   19O :  0.18  195H :  0.17  511O :  0.17  276H :  0.17   30H :  0.17  319O :  0.17  493O :  0.17
   29H :  0.17  449H :  0.16  232O :  0.16  220O :  0.16  440H :  0.15  142O :  0.15  525H :  0.14  267H :  0.14  177H :  0.14  531H :  0.14  164H :  0.14  517O :  0.13
  401H :  0.13  212H :  0.13  466O :  0.13  215H :  0.13   59H :  0.13  289O :  0.12  187O :  0.12  390H :  0.12   77H :  0.12  455H :  0.12  361O :  0.12    6H :  0.12
  297H :  0.11  340O :  0.11  484O :  0.11  367O :  0.11  337O :  0.11   74H :  0.11  506H :  0.11  396H :  0.11  192H :  0.11  301O :  0.10   24H :  0.10   44H :  0.10
  183H :  0.10  218H :  0.10  123H :  0.10  349O :  0.09  139O :  0.09  470H :  0.09  241O :  0.09  464H :  0.09   99H :  0.09   35H :  0.08   33H :  0.08  501H :  0.08
   12H :  0.08  326H :  0.08  283O :  0.08  432H :  0.08  443H :  0.08  110H :  0.07  441H :  0.07  311H :  0.07  240H :  0.07
   11 LP   *******   0.01  37.43301   2.84376  19.82788  226O :  3.97    7O :  3.83  391O :  3.82  409O :  2.93  400O :  2.83   34O :  2.38  193O :  2.30  496O :  2.28  499O :  2.24  130O :  2.08  199O :  2.05  271O :  1.75
  112O :  1.70  169O :  1.66   22O :  1.59  190O :  1.50  268O :  1.50  238O :  1.43  478O :  1.37  277O :  1.36    4O :  1.32  202O :  1.32  133O :  1.32   55O :  1.30
   97O :  1.30  316O :  1.26  295O :  1.26  523O :  1.22  439O :  1.20   37O :  1.16  490O :  1.16   76O :  1.16   10O :  1.13  346O :  1.11  229O :  1.09   58O :  1.08
  427O :  1.07  124O :  1.07  247O :  1.05  103O :  1.05   16O :  1.04  178O :  1.03  505O :  1.02  313O :  1.00  214O :  1.00  358O :  0.99   64O :  0.97  211O :  0.97
  175O :  0.95  160O :  0.95  217O :  0.95  529O :  0.92  292O :  0.91  109O :  0.90   52O :  0.89    1O :  0.89  163O :  0.87  250O :  0.87   91O :  0.83  502O :  0.83
  121O :  0.82  379O :  0.81  115O :  0.81  208O :  0.81   28O :  0.78  310O :  0.77   73O :  0.77  463O :  0.76  364O :  0.75  373O :  0.69  286O :  0.69  448O :  0.67
  331O :  0.67   82O :  0.66  472O :  0.64  244O :  0.63  328O :  0.63  136O :  0.63  388O :  0.63  430O :  0.61  469O :  0.61  172O :  0.61  100O :  0.60   85O :  0.60
   31O :  0.59  454O :  0.59  352O :  0.58  394O :  0.58    9H :  0.56   94O :  0.56  526O :  0.55  418O :  0.53  256O :  0.52  265O :  0.51  307O :  0.50  457O :  0.50
  376O :  0.48   43O :  0.46   40O :  0.46   13O :  0.45  433O :  0.45  514O :  0.44  520O :  0.44  460O :  0.42  157O :  0.42  106O :  0.40  259O :  0.38  154O :  0.38
  184O :  0.38  235O :  0.37  101H :  0.36  412O :  0.36  385O :  0.35  196O :  0.35  359H :  0.34  145O :  0.34   70O :  0.34  151O :  0.34  322O :  0.33  280O :  0.33
   25O :  0.33  415O :  0.32   49O :  0.31  382O :  0.31  487O :  0.29  135H :  0.28  166O :  0.28  481O :  0.28  343O :  0.28  442O :  0.28   88O :  0.28  370O :  0.27
   46O :  0.27  181O :  0.27  508O :  0.27  424O :  0.27  148O :  0.26  403O :  0.26   23H :  0.26  253O :  0.25  111H :  0.24  479H :  0.24  201H :  0.23  304O :  0.23
  334O :  0.23  223O :  0.22  205O :  0.22  325O :  0.22  528H :  0.22  436O :  0.21  257H :  0.21  274O :  0.20  355O :  0.20  127O :  0.19  445O :  0.19  475O :  0.19
  451O :  0.18  406O :  0.18  262O :  0.18   67O :  0.18   19O :  0.18  195H :  0.17  511O :  0.17    8H :  0.17  276H :  0.17  319O :  0.17   30H :  0.17  493O :  0.16
   29H :  0.16  232O :  0.16  220O :  0.16  449H :  0.15  142O :  0.14  440H :  0.14  525H :  0.14  267H :  0.14  177H :  0.14  531H :  0.14  164H :  0.13  517O :  0.13
  401H :  0.13  212H :  0.13  466O :  0.13  215H :  0.13   59H :  0.12  289O :  0.12  187O :  0.12  390H :  0.12   77H :  0.11  455H :  0.11    6H :  0.11  297H :  0.11
  361O :  0.11  484O :  0.11  340O :  0.11  367O :  0.11  337O :  0.11   74H :  0.11  506H :  0.11  396H :  0.11  192H :  0.10  301O :  0.10   24H :  0.10   44H :  0.10
  183H :  0.10  218H :  0.10  123H :  0.09  349O :  0.09  139O :  0.09  470H :  0.09  241O :  0.09  464H :  0.08   99H :  0.08   33H :  0.08  501H :  0.08   12H :  0.08
  326H :  0.08  283O :  0.07  432H :  0.07   35H :  0.07  443H :  0.07  110H :  0.07
   12 LP   *******   0.01 -16.28100   6.38841   8.48289  169O :  3.81  226O :  3.76    7O :  3.63  409O :  2.78  400O :  2.69   34O :  2.26  193O :  2.18  496O :  2.16  499O :  2.13  130O :  1.97  199O :  1.95  271O :  1.66
  112O :  1.61  391O :  1.51   22O :  1.50  190O :  1.42  268O :  1.42  238O :  1.35  478O :  1.30  277O :  1.29    4O :  1.25  202O :  1.25  133O :  1.25   55O :  1.23
   97O :  1.23  316O :  1.19  295O :  1.19  523O :  1.16  439O :  1.14   37O :  1.10  490O :  1.10   76O :  1.10   10O :  1.07  346O :  1.05  229O :  1.03   58O :  1.03
  427O :  1.01  124O :  1.01  247O :  1.00  103O :  0.99   16O :  0.99  178O :  0.98  505O :  0.96  313O :  0.95  214O :  0.94  358O :  0.94   64O :  0.92  211O :  0.92
  175O :  0.90  160O :  0.90  217O :  0.90  529O :  0.87  292O :  0.86  109O :  0.85   52O :  0.84    1O :  0.84  163O :  0.83  250O :  0.82   91O :  0.79  502O :  0.79
  121O :  0.78  379O :  0.77  115O :  0.76  208O :  0.76   28O :  0.74  310O :  0.73   73O :  0.73  463O :  0.72  364O :  0.71  373O :  0.66  286O :  0.65  448O :  0.64
  331O :  0.63   82O :  0.62  472O :  0.61  244O :  0.60  328O :  0.60  136O :  0.60  388O :  0.59  430O :  0.58  469O :  0.58  172O :  0.58  100O :  0.57   85O :  0.57
   31O :  0.56  454O :  0.56  352O :  0.55  394O :  0.55    9H :  0.53   94O :  0.53  526O :  0.52  418O :  0.50  256O :  0.49  265O :  0.48  307O :  0.48  457O :  0.47
  376O :  0.44   43O :  0.44   40O :  0.43   13O :  0.43  433O :  0.43  514O :  0.42  520O :  0.42  460O :  0.40  157O :  0.40  106O :  0.38  259O :  0.36  154O :  0.36
  184O :  0.36  235O :  0.35  101H :  0.34  412O :  0.34  385O :  0.33  196O :  0.33  359H :  0.33   70O :  0.32  145O :  0.32  151O :  0.32  322O :  0.32  280O :  0.31
   25O :  0.31  415O :  0.31   49O :  0.30  382O :  0.29  487O :  0.27  135H :  0.27  166O :  0.27  481O :  0.27  343O :  0.27  442O :  0.27   88O :  0.26  370O :  0.26
   46O :  0.26  181O :  0.26  508O :  0.25  424O :  0.25  148O :  0.24  403O :  0.24   23H :  0.24  253O :  0.23  111H :  0.23  479H :  0.22  201H :  0.22  304O :  0.22
  334O :  0.22  205O :  0.21  223O :  0.21  325O :  0.21  528H :  0.20  436O :  0.20  257H :  0.20  274O :  0.19  355O :  0.19  127O :  0.18  445O :  0.18  262O :  0.18
  475O :  0.18  451O :  0.17  406O :  0.17   67O :  0.17   19O :  0.17  195H :  0.16  511O :  0.16    8H :  0.16  276H :  0.16   30H :  0.16  319O :  0.16  493O :  0.16
   29H :  0.15  232O :  0.15  220O :  0.15  449H :  0.14  440H :  0.14  142O :  0.13  525H :  0.13  267H :  0.13  177H :  0.13  531H :  0.13  164H :  0.13  517O :  0.12
  401H :  0.12  212H :  0.12  466O :  0.12  215H :  0.12   59H :  0.12  289O :  0.12  187O :  0.11  390H :  0.11   77H :  0.11  455H :  0.11  361O :  0.11    6H :  0.11
  297H :  0.10  484O :  0.10  340O :  0.10  337O :  0.10   74H :  0.10  506H :  0.10  192H :  0.10  396H :  0.10  367O :  0.10  301O :  0.10   24H :  0.09   44H :  0.09
  183H :  0.09  218H :  0.09  123H :  0.09  349O :  0.09  139O :  0.08  470H :  0.08  241O :  0.08  464H :  0.08   99H :  0.08   33H :  0.08  501H :  0.07   12H :  0.07
  326H :  0.07  283O :  0.07
   13 LP   *******   0.01  -2.05822  -1.04869   7.61155  130O :  3.30  226O :  3.11    7O :  3.00  409O :  2.30  400O :  2.22   34O :  1.86  193O :  1.80  496O :  1.79  499O :  1.76  199O :  1.61  271O :  1.37  112O :  1.33
  169O :  1.30  391O :  1.25   22O :  1.24  190O :  1.17  268O :  1.17  238O :  1.12  478O :  1.07  277O :  1.06    4O :  1.04  202O :  1.03  133O :  1.03   55O :  1.02
   97O :  1.02  316O :  0.98  295O :  0.98  523O :  0.95  439O :  0.94  490O :  0.91   37O :  0.91   76O :  0.91   10O :  0.88  346O :  0.87  229O :  0.85   58O :  0.85
  427O :  0.84  124O :  0.83  247O :  0.82   16O :  0.81  178O :  0.81  103O :  0.79  313O :  0.78  214O :  0.78  358O :  0.78   64O :  0.76  211O :  0.76  160O :  0.75
  505O :  0.75  175O :  0.74  217O :  0.74  529O :  0.72  292O :  0.71  109O :  0.70   52O :  0.70    1O :  0.69  163O :  0.68  250O :  0.68   91O :  0.65  502O :  0.65
  121O :  0.65  379O :  0.63  115O :  0.63  208O :  0.63   28O :  0.62  310O :  0.60   73O :  0.60  463O :  0.59  364O :  0.58  373O :  0.54  286O :  0.54  448O :  0.53
  331O :  0.52   82O :  0.52  472O :  0.50  244O :  0.50  328O :  0.50  136O :  0.49  388O :  0.49  430O :  0.48  469O :  0.48  172O :  0.48  100O :  0.47   85O :  0.47
   31O :  0.46  454O :  0.46  352O :  0.46  394O :  0.45    9H :  0.44   94O :  0.44  526O :  0.43  418O :  0.41  256O :  0.41  265O :  0.40  307O :  0.39  457O :  0.39
  376O :  0.38   43O :  0.36   40O :  0.36   13O :  0.36  433O :  0.35  514O :  0.35  520O :  0.34  460O :  0.33  157O :  0.33  106O :  0.31  154O :  0.30  259O :  0.30
  184O :  0.30  235O :  0.29  101H :  0.28  412O :  0.28  385O :  0.28  196O :  0.27  359H :  0.27   70O :  0.26  145O :  0.26  151O :  0.26  322O :  0.26  280O :  0.26
   25O :  0.26  415O :  0.25   49O :  0.24  382O :  0.24  487O :  0.23  135H :  0.22  166O :  0.22  343O :  0.22  442O :  0.22  481O :  0.22   88O :  0.22  370O :  0.21
   46O :  0.21  181O :  0.21  508O :  0.21  424O :  0.21  148O :  0.20  403O :  0.20   23H :  0.20  253O :  0.19  111H :  0.19  479H :  0.19  201H :  0.18  304O :  0.18
  334O :  0.18  205O :  0.18  223O :  0.18  325O :  0.17  528H :  0.17  436O :  0.17  257H :  0.16  274O :  0.16  355O :  0.15  445O :  0.15  127O :  0.15  262O :  0.15
  475O :  0.15  451O :  0.14  406O :  0.14   67O :  0.14   19O :  0.14   30H :  0.13  195H :  0.13  511O :  0.13  276H :  0.13    8H :  0.13  319O :  0.13  493O :  0.13
   29H :  0.13  232O :  0.12  220O :  0.12  449H :  0.12  440H :  0.11  142O :  0.11  525H :  0.11  267H :  0.11  177H :  0.11  531H :  0.11  164H :  0.10  517O :  0.10
  401H :  0.10  212H :  0.10  466O :  0.10  215H :  0.10   59H :  0.10  289O :  0.09  187O :  0.09  390H :  0.09   77H :  0.09    6H :  0.09  455H :  0.09  361O :  0.09
  297H :  0.09  484O :  0.09  340O :  0.09  367O :  0.08  337O :  0.08   74H :  0.08  396H :  0.08  192H :  0.08  506H :  0.08  301O :  0.08   24H :  0.08   44H :  0.08
  183H :  0.08  218H :  0.08  123H :  0.07  349O :  0.07
   14 LP   *******   0.01 -27.15399  -1.17528   0.01285  226O :  2.97    7O :  2.87   10O :  2.34  409O :  2.20  400O :  2.12   34O :  1.78  193O :  1.72  496O :  1.71  499O :  1.68  130O :  1.56  199O :  1.54  271O :  1.31
  112O :  1.27  169O :  1.24  391O :  1.19   22O :  1.19  190O :  1.12  268O :  1.12  238O :  1.07  478O :  1.03  277O :  1.01    4O :  0.99  202O :  0.99  133O :  0.98
   55O :  0.97   97O :  0.97  316O :  0.94  295O :  0.94  523O :  0.91  439O :  0.90   76O :  0.88   37O :  0.87  490O :  0.87  346O :  0.83  229O :  0.81   58O :  0.81
  124O :  0.80  427O :  0.80  247O :  0.79  103O :  0.78   16O :  0.78  178O :  0.77  505O :  0.76  313O :  0.75  214O :  0.75  358O :  0.74  211O :  0.73  217O :  0.71
  175O :  0.71   64O :  0.71  160O :  0.71   52O :  0.69  529O :  0.69  292O :  0.68  109O :  0.67    1O :  0.66  163O :  0.65  250O :  0.65   91O :  0.62  502O :  0.62
  121O :  0.62  379O :  0.61  115O :  0.60  208O :  0.60   28O :  0.59  310O :  0.58   73O :  0.57  463O :  0.57  364O :  0.56  373O :  0.52  286O :  0.52  448O :  0.50
  331O :  0.50   82O :  0.49  472O :  0.48  244O :  0.47  328O :  0.47  136O :  0.47  388O :  0.47  430O :  0.46  469O :  0.46  172O :  0.46  100O :  0.45   85O :  0.45
  454O :  0.44   31O :  0.44  394O :  0.43  352O :  0.42    9H :  0.42   94O :  0.42  526O :  0.41  418O :  0.39  256O :  0.39  265O :  0.38  307O :  0.38  457O :  0.37
  376O :  0.36   43O :  0.35   40O :  0.34   13O :  0.34  433O :  0.34  514O :  0.33  520O :  0.33  460O :  0.31  157O :  0.31  106O :  0.30  259O :  0.29  154O :  0.29
  184O :  0.29  235O :  0.28  101H :  0.27  412O :  0.27  385O :  0.26  196O :  0.26  359H :  0.26   70O :  0.25  145O :  0.25  151O :  0.25  322O :  0.25  280O :  0.25
   25O :  0.25  415O :  0.24   49O :  0.23  382O :  0.23  487O :  0.22  166O :  0.21  135H :  0.21  343O :  0.21  481O :  0.21  442O :  0.21   88O :  0.21  370O :  0.20
   46O :  0.20  181O :  0.20  508O :  0.20  424O :  0.20  148O :  0.19  403O :  0.19   23H :  0.19  253O :  0.18  111H :  0.18  479H :  0.18  201H :  0.17  304O :  0.17
  334O :  0.17  223O :  0.17  205O :  0.17  325O :  0.17  528H :  0.16  436O :  0.16  257H :  0.16  274O :  0.15  355O :  0.15  127O :  0.15  445O :  0.15  262O :  0.14
  475O :  0.14  406O :  0.14  451O :  0.14   67O :  0.13   19O :  0.13   77H :  0.13  195H :  0.13  511O :  0.13    8H :  0.13  276H :  0.13   30H :  0.12  319O :  0.12
  493O :  0.12   29H :  0.12  232O :  0.12  220O :  0.12  449H :  0.11  440H :  0.11  142O :  0.11  525H :  0.10  267H :  0.10  177H :  0.10  164H :  0.10  531H :  0.10
  517O :  0.10  401H :  0.10  212H :  0.10  466O :  0.10  215H :  0.09   59H :  0.09  289O :  0.09  187O :  0.09  390H :  0.09  455H :  0.09  361O :  0.08    6H :  0.08
  297H :  0.08  484O :  0.08  340O :  0.08  367O :  0.08  337O :  0.08   74H :  0.08  506H :  0.08  396H :  0.08  192H :  0.08  301O :  0.08   24H :  0.07   44H :  0.07
  183H :  0.07  218H :  0.07  123H :  0.07
   15 LP   *******   0.01  -2.33660   8.16154  11.81158  409O :  3.86  226O :  2.90    7O :  2.80  400O :  2.07   34O :  1.74  193O :  1.68  496O :  1.67  499O :  1.64  130O :  1.52  199O :  1.50  271O :  1.28  112O :  1.24
  169O :  1.21  391O :  1.16   22O :  1.16  190O :  1.10  268O :  1.09  238O :  1.04  478O :  1.00  277O :  0.99    4O :  0.97  133O :  0.96   55O :  0.95  202O :  0.95
   97O :  0.95  316O :  0.92  295O :  0.92  523O :  0.89  439O :  0.87  490O :  0.85   37O :  0.85   76O :  0.85   10O :  0.83  346O :  0.81  229O :  0.80   58O :  0.79
  427O :  0.78  124O :  0.78  247O :  0.77  103O :  0.76   16O :  0.76  178O :  0.75  505O :  0.74  313O :  0.73  214O :  0.73  358O :  0.73   64O :  0.71  211O :  0.71
  160O :  0.70  175O :  0.70  217O :  0.69  529O :  0.67  292O :  0.66  109O :  0.65   52O :  0.65    1O :  0.65  163O :  0.64  250O :  0.63   91O :  0.61  502O :  0.60
  121O :  0.60  379O :  0.59   28O :  0.59  115O :  0.59  208O :  0.59  310O :  0.56   73O :  0.56  463O :  0.55  364O :  0.55  373O :  0.51  286O :  0.50  448O :  0.49
  331O :  0.49   82O :  0.48  472O :  0.47  244O :  0.46  328O :  0.46  136O :  0.46  388O :  0.46  430O :  0.45  172O :  0.45  469O :  0.45  100O :  0.44   85O :  0.44
   31O :  0.43  454O :  0.43  352O :  0.43  394O :  0.42    9H :  0.41   94O :  0.41  526O :  0.40  418O :  0.38  256O :  0.38  265O :  0.37  307O :  0.37  457O :  0.36
  376O :  0.35   43O :  0.34   40O :  0.33   13O :  0.33  433O :  0.33  514O :  0.32  520O :  0.31  460O :  0.31  157O :  0.30  106O :  0.29  259O :  0.28  154O :  0.28
  184O :  0.28  235O :  0.27  101H :  0.26  412O :  0.26  385O :  0.26  196O :  0.25  359H :  0.25   70O :  0.25  145O :  0.25  151O :  0.25  322O :  0.24  280O :  0.24
   25O :  0.24  415O :  0.24   49O :  0.23  382O :  0.23  487O :  0.21  135H :  0.21  166O :  0.21  481O :  0.20  343O :  0.20  442O :  0.20   88O :  0.20  370O :  0.20
   46O :  0.20  181O :  0.20  508O :  0.20  424O :  0.20  148O :  0.19  403O :  0.19   23H :  0.19  253O :  0.18  111H :  0.18  479H :  0.17  201H :  0.17  304O :  0.17
  334O :  0.17  223O :  0.16  205O :  0.16  325O :  0.16  528H :  0.16  436O :  0.16  257H :  0.15  274O :  0.15  355O :  0.14  475O :  0.14  127O :  0.14  445O :  0.14
  262O :  0.14  451O :  0.13  406O :  0.13   67O :  0.13   19O :  0.13  195H :  0.12   29H :  0.12  511O :  0.12    8H :  0.12  276H :  0.12   30H :  0.12  319O :  0.12
  493O :  0.12  232O :  0.12  220O :  0.11  449H :  0.11  440H :  0.11  142O :  0.10  525H :  0.10  267H :  0.10  177H :  0.10  531H :  0.10  164H :  0.10  517O :  0.09
  401H :  0.09  212H :  0.09  466O :  0.09  215H :  0.09   59H :  0.09  289O :  0.09  187O :  0.09  390H :  0.08   77H :  0.08  455H :  0.08  361O :  0.08    6H :  0.08
  297H :  0.08  484O :  0.08  340O :  0.08  367O :  0.08  337O :  0.08   74H :  0.08  506H :  0.08  396H :  0.08  192H :  0.08  301O :  0.07   24H :  0.07   44H :  0.07
  183H :  0.07  218H :  0.07
   16 LP   *******   0.01 -14.58984  12.25576  36.51224  226O :  2.83    7O :  2.73   55O :  2.46  409O :  2.09  400O :  2.02   34O :  1.66  193O :  1.64  496O :  1.63  499O :  1.57  130O :  1.48  199O :  1.46  271O :  1.25
  112O :  1.21  169O :  1.18  391O :  1.13   22O :  1.13  190O :  1.07  268O :  1.07  238O :  1.02  478O :  0.98  277O :  0.97  202O :  0.94    4O :  0.94  133O :  0.94
   97O :  0.92  316O :  0.90  295O :  0.89  523O :  0.87  439O :  0.85   37O :  0.83  490O :  0.83   76O :  0.83   10O :  0.81  346O :  0.79  229O :  0.78   58O :  0.77
  427O :  0.76  124O :  0.76  103O :  0.75  247O :  0.74   16O :  0.74  178O :  0.74  505O :  0.72  313O :  0.71  214O :  0.71  358O :  0.71   64O :  0.69  211O :  0.69
  175O :  0.68  160O :  0.68  217O :  0.68  529O :  0.65  292O :  0.65  109O :  0.64   52O :  0.63    1O :  0.63  163O :  0.62  250O :  0.62   91O :  0.59  502O :  0.59
  121O :  0.59  379O :  0.58  208O :  0.57  115O :  0.57   28O :  0.56  310O :  0.55   73O :  0.55  463O :  0.54  364O :  0.53  373O :  0.50  286O :  0.49  448O :  0.48
  331O :  0.47   82O :  0.47  472O :  0.46  244O :  0.45  328O :  0.45  136O :  0.45  388O :  0.45  430O :  0.44  469O :  0.44  172O :  0.44  100O :  0.43   85O :  0.43
   31O :  0.42  454O :  0.42  352O :  0.41  394O :  0.41    9H :  0.40   94O :  0.40  526O :  0.39  418O :  0.37  256O :  0.37  265O :  0.36  307O :  0.36  457O :  0.36
  376O :  0.34   43O :  0.33   40O :  0.33   13O :  0.32  433O :  0.32  514O :  0.32  520O :  0.32  460O :  0.30  157O :  0.30  106O :  0.29  259O :  0.28  154O :  0.27
  184O :  0.27  235O :  0.26  101H :  0.26  412O :  0.26  385O :  0.25  196O :  0.25  359H :  0.24  145O :  0.24   70O :  0.24  151O :  0.24  322O :  0.24  280O :  0.24
   25O :  0.23  415O :  0.23   49O :  0.22  382O :  0.22  487O :  0.21  166O :  0.20  135H :  0.20  343O :  0.20  481O :  0.20  442O :  0.20   88O :  0.20  370O :  0.19
   46O :  0.19  181O :  0.19  508O :  0.19  424O :  0.19  148O :  0.18  403O :  0.18   23H :  0.18  253O :  0.17  111H :  0.17  479H :  0.17  201H :  0.17  304O :  0.17
  334O :  0.17  223O :  0.16  205O :  0.16  325O :  0.16  528H :  0.15  436O :  0.15  257H :  0.15  274O :  0.15  355O :  0.14  127O :  0.14  445O :  0.14  262O :  0.14
  475O :  0.13  451O :  0.13  406O :  0.13   19O :  0.13   67O :  0.13  195H :  0.12  511O :  0.12    8H :  0.12  276H :  0.12  319O :  0.12   30H :  0.12  493O :  0.12
   29H :  0.12  232O :  0.11  220O :  0.11  449H :  0.11  440H :  0.10  525H :  0.10  142O :  0.10  267H :  0.10  177H :  0.10  531H :  0.10  164H :  0.09  517O :  0.09
  401H :  0.09  212H :  0.09  466O :  0.09  215H :  0.09   59H :  0.09  289O :  0.09  187O :  0.09  390H :  0.08   77H :  0.08  455H :  0.08  361O :  0.08    6H :  0.08
  297H :  0.08  340O :  0.08  484O :  0.08  367O :  0.08  337O :  0.08   74H :  0.08  506H :  0.08  396H :  0.07  192H :  0.07  301O :  0.07
   17 LP   *******   0.01  13.94256  15.80898  -7.54796  226O :  2.69    7O :  2.60  358O :  2.15  409O :  1.99  400O :  1.92   34O :  1.62  496O :  1.55  193O :  1.54  499O :  1.52  130O :  1.41  199O :  1.40  271O :  1.19
  112O :  1.15  169O :  1.13  359H :  1.09  391O :  1.08   22O :  1.08  190O :  1.02  268O :  1.02  238O :  0.97  478O :  0.93  277O :  0.92    4O :  0.90  202O :  0.90
  133O :  0.89   55O :  0.88   97O :  0.88  316O :  0.85  295O :  0.85  523O :  0.83  439O :  0.81   37O :  0.79  490O :  0.79   76O :  0.79   10O :  0.77  346O :  0.75
  229O :  0.74   58O :  0.73  427O :  0.73  124O :  0.72  247O :  0.72  103O :  0.71   16O :  0.71  178O :  0.70  505O :  0.69  313O :  0.68  214O :  0.68  211O :  0.66
   64O :  0.66  175O :  0.65  160O :  0.65  217O :  0.64  529O :  0.62  292O :  0.62  109O :  0.61   52O :  0.60    1O :  0.60  163O :  0.59  250O :  0.59   91O :  0.56
  502O :  0.56  121O :  0.56  379O :  0.55  115O :  0.55  208O :  0.55   28O :  0.53  310O :  0.52   73O :  0.52  463O :  0.51  364O :  0.51  373O :  0.47  286O :  0.47
  448O :  0.46  331O :  0.45   82O :  0.45  472O :  0.44  328O :  0.43  136O :  0.43  244O :  0.43  388O :  0.42  469O :  0.42  430O :  0.42  172O :  0.42  100O :  0.41
   85O :  0.41   31O :  0.40  454O :  0.40  352O :  0.40  394O :  0.39    9H :  0.38   94O :  0.38  526O :  0.37  418O :  0.36  256O :  0.35  265O :  0.35  307O :  0.34
  457O :  0.34  376O :  0.33   43O :  0.32   40O :  0.31   13O :  0.31  433O :  0.31  514O :  0.30  520O :  0.30  157O :  0.28  460O :  0.28  106O :  0.27  259O :  0.26
  154O :  0.26  184O :  0.26  235O :  0.25  101H :  0.24  412O :  0.24  385O :  0.24  196O :  0.24  145O :  0.23   70O :  0.23  151O :  0.23  322O :  0.23  280O :  0.22
   25O :  0.22  415O :  0.22   49O :  0.21  382O :  0.21  487O :  0.20  135H :  0.19  166O :  0.19  481O :  0.19  343O :  0.19  442O :  0.19   88O :  0.19  370O :  0.19
   46O :  0.19  181O :  0.18  508O :  0.18  424O :  0.18  148O :  0.18  403O :  0.17   23H :  0.17  253O :  0.17  111H :  0.16  479H :  0.16  201H :  0.16  304O :  0.16
  334O :  0.16  223O :  0.15  205O :  0.15  325O :  0.15  528H :  0.15  436O :  0.15  257H :  0.14  274O :  0.14  355O :  0.13  127O :  0.13  445O :  0.13  262O :  0.13
  475O :  0.13  451O :  0.12  406O :  0.12   67O :  0.12   19O :  0.12  195H :  0.12  511O :  0.11    8H :  0.11  276H :  0.11  319O :  0.11   30H :  0.11  493O :  0.11
   29H :  0.11  232O :  0.11  220O :  0.11  449H :  0.10  440H :  0.10  142O :  0.10  525H :  0.09  267H :  0.09  177H :  0.09  531H :  0.09  164H :  0.09  517O :  0.09
  212H :  0.09  401H :  0.09  466O :  0.09  215H :  0.09   59H :  0.08  289O :  0.08  187O :  0.08  390H :  0.08   77H :  0.08  455H :  0.08  361O :  0.08    6H :  0.08
  297H :  0.08  484O :  0.07  340O :  0.07  337O :  0.07  367O :  0.07   74H :  0.07  506H :  0.07  396H :  0.07  192H :  0.07
   18 LP   *******   0.01  -7.10796  44.40967  12.33443  226O :  2.61    7O :  2.52  178O :  2.43  409O :  1.93  400O :  1.87   34O :  1.56  193O :  1.51  496O :  1.50  499O :  1.48  130O :  1.37  199O :  1.35  271O :  1.15
  112O :  1.12  169O :  1.09  391O :  1.05   22O :  1.04  268O :  0.99  190O :  0.99  238O :  0.94  277O :  0.89  478O :  0.89    4O :  0.87  202O :  0.87  133O :  0.87
   55O :  0.86   97O :  0.85  316O :  0.83  295O :  0.83  523O :  0.80  439O :  0.79   37O :  0.76   76O :  0.76  490O :  0.76   10O :  0.74  346O :  0.73  229O :  0.72
   58O :  0.71  427O :  0.70  124O :  0.70  247O :  0.69  103O :  0.69   16O :  0.69  505O :  0.67  313O :  0.66  214O :  0.66  358O :  0.65   64O :  0.64  211O :  0.64
  175O :  0.63  160O :  0.63  217O :  0.62  529O :  0.60  292O :  0.60  109O :  0.59   52O :  0.59    1O :  0.58  163O :  0.58  250O :  0.57   91O :  0.55  502O :  0.55
  121O :  0.54  379O :  0.53  115O :  0.53  208O :  0.53   28O :  0.52  310O :  0.51   73O :  0.51  463O :  0.50  364O :  0.49  373O :  0.46  286O :  0.45  448O :  0.44
  331O :  0.44   82O :  0.43  472O :  0.42  136O :  0.42  244O :  0.42  328O :  0.42  388O :  0.41  430O :  0.40  469O :  0.40  172O :  0.40  100O :  0.40   85O :  0.40
   31O :  0.39  454O :  0.39  352O :  0.38  394O :  0.38   94O :  0.37    9H :  0.37  526O :  0.36  418O :  0.35  256O :  0.34  307O :  0.33  265O :  0.33  457O :  0.33
  376O :  0.32   43O :  0.31   40O :  0.30   13O :  0.30  433O :  0.30  514O :  0.29  520O :  0.29  460O :  0.28  157O :  0.27  106O :  0.27  259O :  0.25  154O :  0.25
  184O :  0.25  235O :  0.24  101H :  0.24  412O :  0.24  196O :  0.23  385O :  0.23  359H :  0.23   70O :  0.22  145O :  0.22  151O :  0.22  322O :  0.22  280O :  0.22
   25O :  0.22  415O :  0.21   49O :  0.21  382O :  0.20  487O :  0.19  135H :  0.19  166O :  0.19  481O :  0.18  343O :  0.18  442O :  0.18   88O :  0.18  370O :  0.18
   46O :  0.18  181O :  0.18  508O :  0.18  424O :  0.17  148O :  0.17  403O :  0.17   23H :  0.17  253O :  0.16  111H :  0.16  479H :  0.15  201H :  0.15  304O :  0.15
  334O :  0.15  223O :  0.15  205O :  0.15  325O :  0.15  528H :  0.14  436O :  0.14  257H :  0.14  274O :  0.13  355O :  0.13  127O :  0.13  445O :  0.13  262O :  0.13
  475O :  0.12  451O :  0.12  406O :  0.12   67O :  0.12   19O :  0.12  195H :  0.11  511O :  0.11  276H :  0.11    8H :  0.11   30H :  0.11  319O :  0.11  493O :  0.11
   29H :  0.11  232O :  0.10  220O :  0.10  449H :  0.10  440H :  0.10  267H :  0.10  142O :  0.09  525H :  0.09  177H :  0.09  531H :  0.09  164H :  0.09  517O :  0.09
  401H :  0.08  212H :  0.08  466O :  0.08  215H :  0.08   59H :  0.08  289O :  0.08  187O :  0.08  390H :  0.08   77H :  0.08  455H :  0.07  361O :  0.07    6H :  0.07
  484O :  0.07  297H :  0.07  340O :  0.07  367O :  0.07  337O :  0.07   74H :  0.07  506H :  0.07
   19 LP   *******   0.01  14.40210 -16.12642   1.30049  226O :  2.51    7O :  2.47  316O :  2.47  409O :  1.89  400O :  1.83   34O :  1.53  193O :  1.48  496O :  1.47  499O :  1.45  130O :  1.34  199O :  1.32  271O :  1.13
  112O :  1.10  169O :  1.07  391O :  1.03   22O :  1.02  190O :  0.97  268O :  0.97  238O :  0.92  478O :  0.88  277O :  0.87    4O :  0.85  202O :  0.85  133O :  0.85
   55O :  0.84   97O :  0.84  295O :  0.81  523O :  0.79  439O :  0.77   37O :  0.75   76O :  0.75  490O :  0.75   10O :  0.73  346O :  0.72  229O :  0.71   58O :  0.70
  427O :  0.69  124O :  0.69  247O :  0.68  103O :  0.67   16O :  0.67  178O :  0.67  505O :  0.66  313O :  0.64  214O :  0.64  358O :  0.64   64O :  0.63  211O :  0.62
  175O :  0.61  160O :  0.61  217O :  0.61  529O :  0.59  292O :  0.59  109O :  0.58   52O :  0.57    1O :  0.57  163O :  0.56  250O :  0.56   91O :  0.54  502O :  0.53
  121O :  0.53  379O :  0.52  115O :  0.52  208O :  0.52   28O :  0.51  310O :  0.50   73O :  0.49  463O :  0.49  364O :  0.48  373O :  0.45  286O :  0.44  448O :  0.43
  331O :  0.43   82O :  0.42  472O :  0.42  244O :  0.41  328O :  0.41  136O :  0.41  388O :  0.40  430O :  0.40  469O :  0.40  172O :  0.39  100O :  0.39   85O :  0.39
   31O :  0.38  454O :  0.38  352O :  0.38  394O :  0.37    9H :  0.36   94O :  0.36  526O :  0.35  418O :  0.34  256O :  0.33  265O :  0.33  307O :  0.32  457O :  0.32
  376O :  0.31   43O :  0.30   40O :  0.30   13O :  0.29  433O :  0.29  514O :  0.29  520O :  0.29  460O :  0.27  157O :  0.27  106O :  0.26  259O :  0.25  154O :  0.25
  184O :  0.25  235O :  0.24  101H :  0.23  412O :  0.23  385O :  0.23  196O :  0.22  359H :  0.22  145O :  0.22   70O :  0.22  151O :  0.22  322O :  0.21  280O :  0.21
   25O :  0.21  415O :  0.21   49O :  0.20  382O :  0.20  487O :  0.19  135H :  0.18  166O :  0.18  481O :  0.18  343O :  0.18  442O :  0.18   88O :  0.18  370O :  0.18
   46O :  0.18  181O :  0.17  508O :  0.17  424O :  0.17  148O :  0.17  403O :  0.17   23H :  0.16  253O :  0.16  111H :  0.15  479H :  0.15  304O :  0.15  334O :  0.15
  201H :  0.14  223O :  0.14  205O :  0.14  325O :  0.14  528H :  0.14  436O :  0.14  257H :  0.13  274O :  0.13  355O :  0.13  127O :  0.13  445O :  0.13  262O :  0.12
  475O :  0.12  451O :  0.12  406O :  0.12   67O :  0.11   19O :  0.11  511O :  0.11    8H :  0.11  276H :  0.11   30H :  0.11  319O :  0.11  195H :  0.11  493O :  0.11
   29H :  0.10  232O :  0.10  220O :  0.10  449H :  0.10  440H :  0.09  142O :  0.09  525H :  0.09  267H :  0.09  177H :  0.09  531H :  0.09  164H :  0.09  517O :  0.08
  401H :  0.08  212H :  0.08  466O :  0.08  215H :  0.08   59H :  0.08  289O :  0.08  187O :  0.08  390H :  0.08   77H :  0.07  361O :  0.07  455H :  0.07    6H :  0.07
  337O :  0.07  297H :  0.07  340O :  0.07  484O :  0.07
   20 LP   *******   0.01  -9.55132  -4.86700  -0.31218  112O :  2.85  226O :  2.54    7O :  2.45  409O :  1.88  400O :  1.81   34O :  1.52  193O :  1.47  496O :  1.46  499O :  1.44  130O :  1.33  199O :  1.31  271O :  1.12
  169O :  1.06  391O :  1.02   22O :  1.01  190O :  0.96  268O :  0.96  238O :  0.91  478O :  0.88  277O :  0.87    4O :  0.85  202O :  0.84  133O :  0.84   55O :  0.83
   97O :  0.83  316O :  0.80  295O :  0.80  523O :  0.78  439O :  0.77   37O :  0.74  490O :  0.74   76O :  0.74   10O :  0.72  346O :  0.71  229O :  0.70   58O :  0.69
  427O :  0.68  124O :  0.68  247O :  0.67  103O :  0.67   16O :  0.67  178O :  0.66  505O :  0.65  214O :  0.64  313O :  0.64  358O :  0.63   64O :  0.62  211O :  0.62
  175O :  0.61  160O :  0.61  217O :  0.61  529O :  0.59  292O :  0.58  109O :  0.57   52O :  0.57    1O :  0.57  163O :  0.56  250O :  0.55   91O :  0.53  502O :  0.53
  121O :  0.53  379O :  0.52  115O :  0.52  208O :  0.52  310O :  0.51   28O :  0.50   73O :  0.49  463O :  0.48  364O :  0.48  373O :  0.45  286O :  0.44  448O :  0.43
   82O :  0.42  472O :  0.41  331O :  0.41  244O :  0.41  328O :  0.41  136O :  0.40  388O :  0.40  430O :  0.39  469O :  0.39  172O :  0.39  100O :  0.39   85O :  0.39
   31O :  0.38  454O :  0.38  352O :  0.37  394O :  0.37    9H :  0.36   94O :  0.36  526O :  0.35  418O :  0.34  256O :  0.33  265O :  0.33  307O :  0.32  457O :  0.32
  376O :  0.31   43O :  0.30   40O :  0.29   13O :  0.29  433O :  0.29  514O :  0.28  520O :  0.28  460O :  0.27  157O :  0.27  106O :  0.26  259O :  0.25  154O :  0.24
  184O :  0.24  235O :  0.24  101H :  0.23  412O :  0.23  385O :  0.23  196O :  0.22  359H :  0.22   70O :  0.22  145O :  0.22  151O :  0.22  322O :  0.21  280O :  0.21
   25O :  0.21  415O :  0.21   49O :  0.20  382O :  0.20  487O :  0.18  135H :  0.18  166O :  0.18  481O :  0.18  343O :  0.18  442O :  0.18   88O :  0.18  370O :  0.17
   46O :  0.17  181O :  0.17  424O :  0.17  508O :  0.17  148O :  0.17  403O :  0.16   23H :  0.16  253O :  0.16  111H :  0.15  479H :  0.15  201H :  0.15  304O :  0.15
  334O :  0.15  205O :  0.14  223O :  0.14  325O :  0.14  528H :  0.14  436O :  0.14  257H :  0.13  274O :  0.13  355O :  0.13  127O :  0.12  445O :  0.12  262O :  0.12
  475O :  0.12  451O :  0.12  406O :  0.12   67O :  0.11   19O :  0.11  195H :  0.11  511O :  0.11    8H :  0.11  276H :  0.11   30H :  0.11  319O :  0.11  493O :  0.10
   29H :  0.10  232O :  0.10  220O :  0.10  449H :  0.10  440H :  0.09  142O :  0.09  525H :  0.09  267H :  0.09  215H :  0.09  177H :  0.09  531H :  0.09  164H :  0.09
  401H :  0.08  517O :  0.08  466O :  0.08  212H :  0.08   59H :  0.08  289O :  0.08  187O :  0.08  390H :  0.07   77H :  0.07  455H :  0.07  361O :  0.07    6H :  0.07
  297H :  0.07  484O :  0.07  340O :  0.07
   21 LP   *******   0.01 -10.35741 -11.67507  32.32893  226O :  2.50    7O :  2.42   22O :  2.29  409O :  1.85  400O :  1.79   34O :  1.50  193O :  1.45  496O :  1.44  499O :  1.41  130O :  1.31  199O :  1.30  271O :  1.10
  112O :  1.07  169O :  1.04  391O :  1.00  190O :  0.95  268O :  0.94  238O :  0.90  478O :  0.86  277O :  0.85    4O :  0.84  202O :  0.83  133O :  0.83   97O :  0.82
   55O :  0.82   23H :  0.81  316O :  0.79  295O :  0.79  523O :  0.77  439O :  0.75   76O :  0.73   37O :  0.73  490O :  0.73   10O :  0.71  346O :  0.70   58O :  0.69
  229O :  0.69  427O :  0.67  247O :  0.67  124O :  0.67  103O :  0.66   16O :  0.66  178O :  0.65  505O :  0.64  313O :  0.63  214O :  0.63  358O :  0.63   64O :  0.61
  211O :  0.61  175O :  0.60  160O :  0.60  217O :  0.60  529O :  0.58  292O :  0.57  109O :  0.57   52O :  0.56    1O :  0.56  163O :  0.55  250O :  0.55   91O :  0.52
  502O :  0.52  379O :  0.51  115O :  0.51  208O :  0.51  121O :  0.50   28O :  0.49  310O :  0.49   73O :  0.48  463O :  0.48  364O :  0.47  373O :  0.44  286O :  0.43
  448O :  0.42  331O :  0.42   82O :  0.41  472O :  0.41  244O :  0.40  328O :  0.40  136O :  0.40  388O :  0.39  430O :  0.39  469O :  0.39  172O :  0.39  100O :  0.38
   85O :  0.38   31O :  0.37  454O :  0.37  352O :  0.37  394O :  0.37    9H :  0.35   94O :  0.35  526O :  0.34  418O :  0.33  256O :  0.33  265O :  0.32  307O :  0.32
  457O :  0.31  376O :  0.30   43O :  0.29   40O :  0.29   13O :  0.29  433O :  0.28  514O :  0.28  520O :  0.28  460O :  0.26  157O :  0.26  106O :  0.25  259O :  0.24
  154O :  0.24  184O :  0.24  235O :  0.23  101H :  0.23  412O :  0.23  385O :  0.22  196O :  0.22  359H :  0.22   70O :  0.21  145O :  0.21  151O :  0.21  322O :  0.21
  280O :  0.21   25O :  0.21  415O :  0.21   49O :  0.20  382O :  0.19  487O :  0.18  135H :  0.18  166O :  0.18  481O :  0.18  343O :  0.18  442O :  0.18   88O :  0.17
[...]
   144   1 h    0.881 --   142 o    0.825
   145   8 o    1.852 --   146 h    0.822   147 h    0.800
   146   1 h    0.887 --   145 o    0.822
   147   1 h    0.876 --   145 o    0.800
   148   8 o    1.863 --   150 h    0.861   149 h    0.841
   149   1 h    0.885 --   148 o    0.841
   150   1 h    0.892 --   148 o    0.861
   151   8 o    1.898 --   153 h    0.814   152 h    0.813
   152   1 h    0.887 --   151 o    0.813
   153   1 h    0.881 --   151 o    0.814
   154   8 o    1.848 --   155 h    0.907   156 h    0.826
   155   1 h    0.913 --   154 o    0.907
   156   1 h    0.880 --   154 o    0.826
   157   8 o    1.858 --   159 h    0.842   158 h    0.839
   158   1 h    0.886 --   157 o    0.839
   159   1 h    0.894 --   157 o    0.842
   160   8 o    1.831 --   161 h    0.838   162 h    0.836
   161   1 h    0.892 --   160 o    0.838
   162   1 h    0.896 --   160 o    0.836
   163   8 o    1.850 --   164 h    0.856   165 h    0.830
   164   1 h    0.901 --   163 o    0.856
   165   1 h    0.892 --   163 o    0.830
   166   8 o    1.860 --   168 h    0.845   167 h    0.817
   167   1 h    0.886 --   166 o    0.817
   168   1 h    0.896 --   166 o    0.845
   169   8 o    1.852 --   170 h    0.868   171 h    0.857
   170   1 h    0.901 --   169 o    0.868
   171   1 h    0.898 --   169 o    0.857
   172   8 o    1.833 --   174 h    0.874   173 h    0.803
   173   1 h    0.877 --   172 o    0.803
   174   1 h    0.901 --   172 o    0.874
   175   8 o    1.866 --   177 h    0.845   176 h    0.842
   176   1 h    0.895 --   175 o    0.842
   177   1 h    0.895 --   175 o    0.845
   178   8 o    1.842 --   180 h    0.845   179 h    0.835
   179   1 h    0.894 --   178 o    0.835
   180   1 h    0.889 --   178 o    0.845
   181   8 o    1.817 --   183 h    0.843   182 h    0.835
   182   1 h    0.897 --   181 o    0.835
   183   1 h    0.892 --   181 o    0.843
   184   8 o    1.865 --   186 h    0.814   185 h    0.805
   185   1 h    0.883 --   184 o    0.805
   186   1 h    0.887 --   184 o    0.814
   187   8 o    1.844 --   189 h    0.851   188 h    0.844
   188   1 h    0.897 --   187 o    0.844
   189   1 h    0.899 --   187 o    0.851
   190   8 o    1.889 --   192 h    0.850   191 h    0.789
   191   1 h    0.866 --   190 o    0.789
   192   1 h    0.885 --   190 o    0.850
   193   8 o    1.835 --   195 h    0.849   194 h    0.798
   194   1 h    0.875 --   193 o    0.798
   195   1 h    0.891 --   193 o    0.849
   196   8 o    1.860 --   198 h    0.839   197 h    0.807
   197   1 h    0.886 --   196 o    0.807
   198   1 h    0.891 --   196 o    0.839
   199   8 o    1.834 --   201 h    0.811   200 h    0.795
   200   1 h    0.880 --   199 o    0.795
   201   1 h    0.886 --   199 o    0.811
   202   8 o    1.822 --   203 h    0.855   204 h    0.809
   203   1 h    0.901 --   202 o    0.855
   204   1 h    0.887 --   202 o    0.809
   205   8 o    1.871 --   206 h    0.836   207 h    0.790
   206   1 h    0.890 --   205 o    0.836
   207   1 h    0.880 --   205 o    0.790
   208   8 o    1.867 --   210 h    0.836   209 h    0.790
   209   1 h    0.869 --   208 o    0.790
   210   1 h    0.877 --   208 o    0.836
   211   8 o    1.850 --   213 h    0.842   212 h    0.817
   212   1 h    0.879 --   211 o    0.817
   213   1 h    0.890 --   211 o    0.842
   214   8 o    1.883 --   215 h    0.807   216 h    0.804
   215   1 h    0.880 --   214 o    0.807
   216   1 h    0.878 --   214 o    0.804
   217   8 o    1.818 --   219 h    0.841   218 h    0.825
   218   1 h    0.894 --   217 o    0.825
   219   1 h    0.887 --   217 o    0.841
   220   8 o    1.845 --   222 h    0.882   221 h    0.810
   221   1 h    0.877 --   220 o    0.810
   222   1 h    0.903 --   220 o    0.882
   223   8 o    1.859 --   224 h    0.894   225 h    0.855
   224   1 h    0.908 --   223 o    0.894
   225   1 h    0.890 --   223 o    0.855
   226   8 o    1.854 --   228 h    0.847   227 h    0.842
   227   1 h    0.881 --   226 o    0.842
   228   1 h    0.893 --   226 o    0.847
   229   8 o    1.832 --   230 h    0.847   231 h    0.833
   230   1 h    0.894 --   229 o    0.847
   231   1 h    0.894 --   229 o    0.833
   232   8 o    1.853 --   234 h    0.891   233 h    0.858
   233   1 h    0.895 --   232 o    0.858
   234   1 h    0.902 --   232 o    0.891
   235   8 o    1.862 --   237 h    0.830   236 h    0.808
   236   1 h    0.877 --   235 o    0.808
   237   1 h    0.892 --   235 o    0.830
   238   8 o    1.872 --   240 h    0.817   239 h    0.811
   239   1 h    0.868 --   238 o    0.811
   240   1 h    0.877 --   238 o    0.817
   241   8 o    1.839 --   243 h    0.863   242 h    0.825
   242   1 h    0.888 --   241 o    0.825
   243   1 h    0.894 --   241 o    0.863
   244   8 o    1.813 --   245 h    0.861   246 h    0.845
   245   1 h    0.902 --   244 o    0.861
   246   1 h    0.897 --   244 o    0.845
   247   8 o    1.810 --   248 h    0.838   249 h    0.832
   248   1 h    0.891 --   247 o    0.838
   249   1 h    0.887 --   247 o    0.832
   250   8 o    1.847 --   251 h    0.833   252 h    0.832
   251   1 h    0.887 --   250 o    0.833
   252   1 h    0.884 --   250 o    0.832
   253   8 o    1.877 --   254 h    0.849   255 h    0.844
   254   1 h    0.898 --   253 o    0.849
   255   1 h    0.896 --   253 o    0.844
   256   8 o    1.851 --   258 h    0.840   257 h    0.811
   257   1 h    0.879 --   256 o    0.811
   258   1 h    0.895 --   256 o    0.840
   259   8 o    1.884 --   261 h    0.828   260 h    0.796
   260   1 h    0.876 --   259 o    0.796
   261   1 h    0.881 --   259 o    0.828
   262   8 o    1.823 --   263 h    0.880   264 h    0.816
   263   1 h    0.906 --   262 o    0.880
   264   1 h    0.887 --   262 o    0.816
   265   8 o    1.843 --   266 h    0.903   267 h    0.837
   266   1 h    0.911 --   265 o    0.903
   267   1 h    0.885 --   265 o    0.837
   268   8 o    1.869 --   269 h    0.828   270 h    0.813
   269   1 h    0.873 --   268 o    0.828
   270   1 h    0.892 --   268 o    0.813
   271   8 o    1.858 --   273 h    0.862   272 h    0.835
   272   1 h    0.887 --   271 o    0.835
   273   1 h    0.896 --   271 o    0.862
   274   8 o    1.851 --   275 h    0.835   276 h    0.804
   275   1 h    0.896 --   274 o    0.835
   276   1 h    0.881 --   274 o    0.804
   277   8 o    1.828 --   279 h    0.913   278 h    0.798
   278   1 h    0.874 --   277 o    0.798
   279   1 h    0.921 --   277 o    0.913
   280   8 o    1.863 --   281 h    0.881   282 h    0.835
   281   1 h    0.903 --   280 o    0.881
   282   1 h    0.889 --   280 o    0.835
   283   8 o    1.850 --   285 h    0.882   284 h    0.799
   284   1 h    0.879 --   283 o    0.799
   285   1 h    0.902 --   283 o    0.882
   286   8 o    1.866 --   288 h    0.832   287 h    0.818
   287   1 h    0.880 --   286 o    0.818
   288   1 h    0.889 --   286 o    0.832
   289   8 o    1.864 --   290 h    0.872   291 h    0.769
   290   1 h    0.899 --   289 o    0.872
   291   1 h    0.874 --   289 o    0.769
   292   8 o    1.848 --   293 h    0.913   294 h    0.785
   293   1 h    0.920 --   292 o    0.913
   294   1 h    0.880 --   292 o    0.785
   295   8 o    1.855 --   297 h    0.823   296 h    0.815
   296   1 h    0.887 --   295 o    0.815
   297   1 h    0.873 --   295 o    0.823
   298   8 o    1.865 --   299 h    0.854   300 h    0.839
   299   1 h    0.894 --   298 o    0.854
   300   1 h    0.890 --   298 o    0.839
   301   8 o    1.855 --   302 h    0.917   303 h    0.818
   302   1 h    0.922 --   301 o    0.917
   303   1 h    0.880 --   301 o    0.818
   304   8 o    1.887 --   306 h    0.834   305 h    0.771
   305   1 h    0.866 --   304 o    0.771
   306   1 h    0.888 --   304 o    0.834
   307   8 o    1.832 --   308 h    0.862   309 h    0.841
   308   1 h    0.899 --   307 o    0.862
   309   1 h    0.892 --   307 o    0.841
   310   8 o    1.870 --   312 h    0.813   311 h    0.796
   311   1 h    0.867 --   310 o    0.796
   312   1 h    0.880 --   310 o    0.813
   313   8 o    1.876 --   314 h    0.912   315 h    0.784
   314   1 h    0.916 --   313 o    0.912
   315   1 h    0.875 --   313 o    0.784
   316   8 o    1.831 --   318 h    0.876   317 h    0.805
   317   1 h    0.884 --   316 o    0.805
   318   1 h    0.906 --   316 o    0.876
   319   8 o    1.846 --   321 h    0.895   320 h    0.849
   320   1 h    0.886 --   319 o    0.849
   321   1 h    0.909 --   319 o    0.895
   322   8 o    1.866 --   324 h    0.908   323 h    0.806
   323   1 h    0.882 --   322 o    0.806
   324   1 h    0.912 --   322 o    0.908
   325   8 o    1.861 --   326 h    0.866   327 h    0.812
   326   1 h    0.897 --   325 o    0.866
   327   1 h    0.873 --   325 o    0.812
   328   8 o    1.872 --   330 h    0.823   329 h    0.822
   329   1 h    0.888 --   328 o    0.822
   330   1 h    0.887 --   328 o    0.823
   331   8 o    1.862 --   332 h    0.801   333 h    0.796
   332   1 h    0.887 --   331 o    0.801
   333   1 h    0.879 --   331 o    0.796
   334   8 o    1.865 --   335 h    0.876   336 h    0.804
   335   1 h    0.904 --   334 o    0.876
   336   1 h    0.879 --   334 o    0.804
   337   8 o    1.827 --   339 h    0.880   338 h    0.818
   338   1 h    0.877 --   337 o    0.818
   339   1 h    0.908 --   337 o    0.880
   340   8 o    1.838 --   341 h    0.877   342 h    0.839
   341   1 h    0.902 --   340 o    0.877
   342   1 h    0.889 --   340 o    0.839
   343   8 o    1.849 --   345 h    0.826   344 h    0.807
   344   1 h    0.879 --   343 o    0.807
   345   1 h    0.897 --   343 o    0.826
   346   8 o    1.835 --   347 h    0.906   348 h    0.810
   347   1 h    0.919 --   346 o    0.906
   348   1 h    0.878 --   346 o    0.810
   349   8 o    1.854 --   351 h    0.839   350 h    0.813
   350   1 h    0.870 --   349 o    0.813
   351   1 h    0.889 --   349 o    0.839
   352   8 o    1.843 --   354 h    0.853   353 h    0.828
   353   1 h    0.893 --   352 o    0.828
   354   1 h    0.889 --   352 o    0.853
   355   8 o    1.876 --   356 h    0.868   357 h    0.807
   356   1 h    0.900 --   355 o    0.868
   357   1 h    0.884 --   355 o    0.807
   358   8 o    1.875 --   359 h    0.896   360 h    0.813
   359   1 h    0.906 --   358 o    0.896
   360   1 h    0.882 --   358 o    0.813
   361   8 o    1.851 --   363 h    0.869   362 h    0.840
   362   1 h    0.883 --   361 o    0.840
   363   1 h    0.896 --   361 o    0.869
   364   8 o    1.852 --   365 h    0.865   366 h    0.855
   365   1 h    0.898 --   364 o    0.865
   366   1 h    0.897 --   364 o    0.855
   367   8 o    1.852 --   369 h    0.877   368 h    0.813
   368   1 h    0.882 --   367 o    0.813
   369   1 h    0.902 --   367 o    0.877
   370   8 o    1.878 --   372 h    0.914   371 h    0.784
   371   1 h    0.874 --   370 o    0.784
   372   1 h    0.920 --   370 o    0.914
   373   8 o    1.857 --   375 h    0.830   374 h    0.806
   374   1 h    0.889 --   373 o    0.806
   375   1 h    0.888 --   373 o    0.830
   376   8 o    1.827 --   377 h    0.890   378 h    0.775
   377   1 h    0.909 --   376 o    0.890
   378   1 h    0.880 --   376 o    0.775
   379   8 o    1.869 --   381 h    0.841   380 h    0.818
   380   1 h    0.881 --   379 o    0.818
   381   1 h    0.891 --   379 o    0.841
   382   8 o    1.850 --   383 h    0.880   384 h    0.829
   383   1 h    0.903 --   382 o    0.880
   384   1 h    0.889 --   382 o    0.829
   385   8 o    1.821 --   387 h    0.845   386 h    0.784
   386   1 h    0.878 --   385 o    0.784
   387   1 h    0.895 --   385 o    0.845
   388   8 o    1.853 --   389 h    0.857   390 h    0.853
   389   1 h    0.893 --   388 o    0.857
   390   1 h    0.891 --   388 o    0.853
   391   8 o    1.851 --   392 h    0.877   393 h    0.848
   392   1 h    0.900 --   391 o    0.877
   393   1 h    0.894 --   391 o    0.848
   394   8 o    1.836 --   396 h    0.844   395 h    0.827
   395   1 h    0.879 --   394 o    0.827
   396   1 h    0.894 --   394 o    0.844
   397   8 o    1.874 --   398 h    0.861   399 h    0.823
   398   1 h    0.892 --   397 o    0.861
   399   1 h    0.885 --   397 o    0.823
   400   8 o    1.862 --   401 h    0.836   402 h    0.827
   401   1 h    0.884 --   400 o    0.836
   402   1 h    0.887 --   400 o    0.827
   403   8 o    1.788 --   405 h    0.844   404 h    0.827
   404   1 h    0.893 --   403 o    0.827
   405   1 h    0.899 --   403 o    0.844
   406   8 o    1.860 --   408 h    0.897   407 h    0.820
   407   1 h    0.881 --   406 o    0.820
   408   1 h    0.905 --   406 o    0.897
   409   8 o    1.836 --   411 h    0.863   410 h    0.807
   410   1 h    0.875 --   409 o    0.807
   411   1 h    0.903 --   409 o    0.863
   412   8 o    1.876 --   413 h    0.870   414 h    0.854
   413   1 h    0.901 --   412 o    0.870
   414   1 h    0.892 --   412 o    0.854
   415   8 o    1.845 --   417 h    0.871   416 h    0.809
   416   1 h    0.876 --   415 o    0.809
   417   1 h    0.900 --   415 o    0.871
   418   8 o    1.835 --   419 h    0.864   420 h    0.786
   419   1 h    0.898 --   418 o    0.864
   420   1 h    0.875 --   418 o    0.786
   421   8 o    1.831 --   422 h    0.870   423 h    0.801
   422   1 h    0.901 --   421 o    0.870
   423   1 h    0.881 --   421 o    0.801
   424   8 o    1.849 --   426 h    0.902   425 h    0.866
   425   1 h    0.893 --   424 o    0.866
   426   1 h    0.910 --   424 o    0.902
   427   8 o    1.866 --   428 h    0.798   429 h    0.785
   428   1 h    0.879 --   427 o    0.798
   429   1 h    0.867 --   427 o    0.785
   430   8 o    1.819 --   431 h    0.910   432 h    0.805
   431   1 h    0.914 --   430 o    0.910
   432   1 h    0.880 --   430 o    0.805
   433   8 o    1.844 --   435 h    0.919   434 h    0.818
   434   1 h    0.882 --   433 o    0.818
   435   1 h    0.924 --   433 o    0.919
   436   8 o    1.806 --   437 h    0.869   438 h    0.843
   437   1 h    0.902 --   436 o    0.869
   438   1 h    0.890 --   436 o    0.843
   439   8 o    1.866 --   441 h    0.899   440 h    0.821
   440   1 h    0.881 --   439 o    0.821
   441   1 h    0.911 --   439 o    0.899
   442   8 o    1.848 --   443 h    0.898   444 h    0.790
   443   1 h    0.912 --   442 o    0.898
   444   1 h    0.874 --   442 o    0.790
   445   8 o    1.864 --   447 h    0.872   446 h    0.793
   446   1 h    0.878 --   445 o    0.793
   447   1 h    0.900 --   445 o    0.872
   448   8 o    1.866 --   449 h    0.837   450 h    0.825
   449   1 h    0.885 --   448 o    0.837
   450   1 h    0.869 --   448 o    0.825
   451   8 o    1.835 --   452 h    0.861   453 h    0.856
   452   1 h    0.893 --   451 o    0.861
   453   1 h    0.895 --   451 o    0.856
   454   8 o    1.826 --   455 h    0.851   456 h    0.836
   455   1 h    0.897 --   454 o    0.851
   456   1 h    0.892 --   454 o    0.836
   457   8 o    1.864 --   459 h    0.858   458 h    0.806
   458   1 h    0.878 --   457 o    0.806
   459   1 h    0.894 --   457 o    0.858
   460   8 o    1.841 --   462 h    0.872   461 h    0.824
   461   1 h    0.879 --   460 o    0.824
   462   1 h    0.900 --   460 o    0.872
   463   8 o    1.857 --   464 h    0.847   465 h    0.802
   464   1 h    0.897 --   463 o    0.847
   465   1 h    0.881 --   463 o    0.802
   466   8 o    1.842 --   467 h    0.915   468 h    0.806
   467   1 h    0.919 --   466 o    0.915
   468   1 h    0.875 --   466 o    0.806
   469   8 o    1.854 --   470 h    0.862   471 h    0.858
   470   1 h    0.898 --   469 o    0.862
   471   1 h    0.895 --   469 o    0.858
   472   8 o    1.870 --   473 h    0.869   474 h    0.793
   473   1 h    0.891 --   472 o    0.869
   474   1 h    0.879 --   472 o    0.793
   475   8 o    1.847 --   476 h    0.920   477 h    0.792
   476   1 h    0.925 --   475 o    0.920
   477   1 h    0.880 --   475 o    0.792
   478   8 o    1.825 --   480 h    0.847   479 h    0.842
   479   1 h    0.898 --   478 o    0.842
   480   1 h    0.890 --   478 o    0.847
   481   8 o    1.856 --   482 h    0.841   483 h    0.812
   482   1 h    0.897 --   481 o    0.841
   483   1 h    0.885 --   481 o    0.812
   484   8 o    1.868 --   486 h    0.857   485 h    0.814
   485   1 h    0.870 --   484 o    0.814
   486   1 h    0.894 --   484 o    0.857
   487   8 o    1.888 --   488 h    0.821   489 h    0.804
   488   1 h    0.889 --   487 o    0.821
   489   1 h    0.880 --   487 o    0.804
   490   8 o    1.870 --   492 h    0.843   491 h    0.815
   491   1 h    0.884 --   490 o    0.815
   492   1 h    0.892 --   490 o    0.843
   493   8 o    1.856 --   495 h    0.863   494 h    0.823
   494   1 h    0.882 --   493 o    0.823
   495   1 h    0.899 --   493 o    0.863
   496   8 o    1.858 --   497 h    0.873   498 h    0.821
   497   1 h    0.900 --   496 o    0.873
   498   1 h    0.878 --   496 o    0.821
   499   8 o    1.871 --   500 h    0.862   501 h    0.835
   500   1 h    0.891 --   499 o    0.862
   501   1 h    0.885 --   499 o    0.835
   502   8 o    1.881 --   503 h    0.842   504 h    0.819
   503   1 h    0.887 --   502 o    0.842
   504   1 h    0.875 --   502 o    0.819
   505   8 o    1.871 --   507 h    0.821   506 h    0.787
   506   1 h    0.880 --   505 o    0.787
   507   1 h    0.883 --   505 o    0.821
   508   8 o    1.840 --   510 h    0.885   509 h    0.825
   509   1 h    0.886 --   508 o    0.825
   510   1 h    0.901 --   508 o    0.885
   511   8 o    1.838 --   513 h    0.834   512 h    0.788
   512   1 h    0.880 --   511 o    0.788
   513   1 h    0.899 --   511 o    0.834
   514   8 o    1.865 --   516 h    0.875   515 h    0.874
   515   1 h    0.895 --   514 o    0.874
   516   1 h    0.896 --   514 o    0.875
   517   8 o    1.862 --   518 h    0.854   519 h    0.819
   518   1 h    0.896 --   517 o    0.854
   519   1 h    0.881 --   517 o    0.819
   520   8 o    1.841 --   522 h    0.862   521 h    0.828
   521   1 h    0.879 --   520 o    0.828
   522   1 h    0.903 --   520 o    0.862
   523   8 o    1.836 --   524 h    0.856   525 h    0.838
   524   1 h    0.895 --   523 o    0.856
   525   1 h    0.891 --   523 o    0.838
   526   8 o    1.848 --   528 h    0.886   527 h    0.845
   527   1 h    0.874 --   526 o    0.845
   528   1 h    0.895 --   526 o    0.886
   529   8 o    1.812 --   530 h    0.884   531 h    0.870
   530   1 h    0.895 --   529 o    0.884
   531   1 h    0.898 --   529 o    0.870
 ---------------------------------------------------------------------------

Topologies differ in total number of bonds
Writing topology from bond orders to xtbtopo.mol

molecular dipole:
                 x           y           z       tot (Debye)
 q only:       -5.306       0.032      -0.290
   full:       -6.398      -0.215      -0.574      16.338
molecular quadrupole (traceless):
                xx          xy          yy          xz          yz          zz
 q only:       33.922     -13.534       5.413      21.047       9.916     -39.336
  q+dip:       32.646     -39.942      12.525      17.813      13.227     -45.171
   full:       32.895     -42.209      12.904      17.662      13.429     -45.799


           -------------------------------------------------
          | TOTAL ENERGY             -901.181121245835 Eh   |
          | GRADIENT NORM               0.097934264523 Eh/α |
          | HOMO-LUMO GAP               6.364004986307 eV   |
           -------------------------------------------------

------------------------------------------------------------------------
 * finished run on 2022/11/17 at 06:55:19.810     
------------------------------------------------------------------------
 total:
 * wall-time:     0 d,  0 h,  0 min, 20.071 sec
 *  cpu-time:     0 d,  0 h,  0 min, 26.115 sec
 * ratio c/w:     1.301 speedup
 SCF:
 * wall-time:     0 d,  0 h,  0 min, 19.509 sec
 *  cpu-time:     0 d,  0 h,  0 min, 25.081 sec
 * ratio c/w:     1.286 speedup

