      -----------------------------------------------------------      
     |                   =====================                   |     
     |                           x T B                           |     
     |                   =====================                   |     
     |                         S. Grimme                         |     
     |          Mulliken Center for Theoretical Chemistry        |     
     |                    University of Bonn                     |     
      -----------------------------------------------------------      

   * xtb version 6.5.1 (579679a) compiled by 'ehlert@majestix' on 2022-07-11

   xtb is free software: you can redistribute it and/or modify it under
   the terms of the GNU Lesser General Public License as published by
   the Free Software Foundation, either version 3 of the License, or
   (at your option) any later version.
   
   xtb is distributed in the hope that it will be useful,
   but WITHOUT ANY WARRANTY; without even the implied warranty of
   MERCHANTABILITY or FITNESS FOR A PARTICULAR PURPOSE.  See the
   GNU Lesser General Public License for more details.
   
   Cite this work as:
   * C. Bannwarth, E. Caldeweyher, S. Ehlert, A. Hansen, P. Pracht,
     J. Seibert, S. Spicher, S. Grimme, WIREs Comput. Mol. Sci., 2020, 11,
     e01493. DOI: 10.1002/wcms.1493
   
   for GFN2-xTB:
   * C. Bannwarth, S. Ehlert and S. Grimme., J. Chem. Theory Comput., 2019,
     15, 1652-1671. DOI: 10.1021/acs.jctc.8b01176
   for GFN1-xTB:
   * S. Grimme, C. Bannwarth, P. Shushkov, J. Chem. Theory Comput., 2017,
     13, 1989-2009. DOI: 10.1021/acs.jctc.7b00118
   for GFN0-xTB:
   * P. Pracht, E. Caldeweyher, S. Ehlert, S. Grimme, ChemRxiv, 2019, preprint.
     DOI: 10.26434/chemrxiv.8326202.v1
   for GFN-FF:
   * S. Spicher and S. Grimme, Angew. Chem. Int. Ed., 2020, 59, 15665-15673.
     DOI: 10.1002/anie.202004239
   
   for ALPB and GBSA implicit solvation:
   * S. Ehlert, M. Stahn, S. Spicher, S. Grimme, J. Chem. Theory Comput.,
     2021, 17, 4250-4261. DOI: 10.1021/acs.jctc.1c00471
   
   for DFT-D4:
   * E. Caldeweyher, C. Bannwarth and S. Grimme, J. Chem. Phys., 2017,
     147, 034112. DOI: 10.1063/1.4993215
   * E. Caldeweyher, S. Ehlert, A. Hansen, H. Neugebauer, S. Spicher,
     C. Bannwarth and S. Grimme, J. Chem. Phys., 2019, 150, 154122.
     DOI: 10.1063/1.5090222
   * E. Caldeweyher, J.-M. Mewes, S. Ehlert and S. Grimme, Phys. Chem. Chem. Phys.
     2020, 22, 8499-8512. DOI: 10.1039/D0CP00502A
   
   for sTDA-xTB:
   * S. Grimme and C. Bannwarth, J. Chem. Phys., 2016, 145, 054103.
     DOI: 10.1063/1.4959605
   
   in the mass-spec context:
   * V. Asgeirsson, C. Bauer and S. Grimme, Chem. Sci., 2017, 8, 4879.
     DOI: 10.1039/c7sc00601b
   * J. Koopman and S. Grimme, ACS Omega 2019, 4, 12, 15120-15133.
     DOI: 10.1021/acsomega.9b02011
   
   for metadynamics refer to:
   * S. Grimme, J. Chem. Theory Comput., 2019, 155, 2847-2862
     DOI: 10.1021/acs.jctc.9b00143
   
   for SPH calculations refer to:
   * S. Spicher and S. Grimme, J. Chem. Theory Comput., 2021, 17, 1701-1714
     DOI: 10.1021/acs.jctc.0c01306
   
   with help from (in alphabetical order)
   P. Atkinson, C. Bannwarth, F. Bohle, G. Brandenburg, E. Caldeweyher
   M. Checinski, S. Dohm, S. Ehlert, S. Ehrlich, I. Gerasimov, C. Hölzer
   A. Katbashev, J. Koopman, C. Lavigne, S. Lehtola, F. März, M. Müller,
   F. Musil, H. Neugebauer, J. Pisarek, C. Plett, P. Pracht, F. Pultar,
   J. Seibert, P. Shushkov, S. Spicher, M. Stahn, M. Steiner, T. Strunk,
   J. Stückrath, T. Rose, and J. Unsleber
   
 * started run on 2022/11/17 at 06:54:49.177     

           -------------------------------------------------
          |                Calculation Setup                |
           -------------------------------------------------

          program call               : xtb xtbopt.coord --gfn2 --sp --gbsa water
          hostname                   : cn0363
          coordinate file            : xtbopt.coord
          omp threads                :                     2

   ID    Z sym.   atoms
    1    8 o      1, 4, 7, 10, 13, 16, 19, 22, 25, 28, 31, 34, 37, 40, 43,
                  46, 49, 52, 55, 58, 61, 64, 67, 70, 73, 76, 79, 82, 85, 88,
                  91, 94, 97, 100, 103, 106, 109, 112, 115, 118, 121, 124,
                  127, 130, 133, 136, 139, 142, 145, 148, 151, 154, 157, 160,
                  163, 166, 169, 172, 175, 178, 181, 184, 187, 190, 193, 196,
                  199, 202, 205, 208, 211, 214, 217, 220, 223, 226, 229, 232,
                  235, 238, 241, 244, 247, 250, 253, 256, 259, 262, 265, 268,
                  271, 274, 277, 280, 283, 286, 289, 292, 295, 298, 301, 304,
                  307, 310, 313, 316, 319, 322, 325, 328, 331, 334, 337, 340,
                  343, 346, 349, 352, 355, 358, 361, 364, 367, 370, 373, 376,
                  379, 382, 385, 388, 391, 394, 397, 400, 403, 406, 409, 412,
                  415, 418, 421, 424, 427, 430, 433, 436, 439, 442, 445, 448,
                  451, 454, 457, 460, 463, 466, 469, 472, 475, 478, 481, 484,
                  487, 490, 493, 496, 499, 502, 505, 508, 511, 514, 517, 520,
                  523, 526, 529
    2    1 h      2, 3, 5, 6, 8, 9, 11, 12, 14, 15, 17, 18, 20, 21, 23, 24,
                  26, 27, 29, 30, 32, 33, 35, 36, 38, 39, 41, 42, 44, 45, 47,
                  48, 50, 51, 53, 54, 56, 57, 59, 60, 62, 63, 65, 66, 68, 69,
                  71, 72, 74, 75, 77, 78, 80, 81, 83, 84, 86, 87, 89, 90, 92,
                  93, 95, 96, 98, 99, 101, 102, 104, 105, 107, 108, 110, 111,
                  113, 114, 116, 117, 119, 120, 122, 123, 125, 126, 128, 129,
                  131, 132, 134, 135, 137, 138, 140, 141, 143, 144, 146, 147,
                  149, 150, 152, 153, 155, 156, 158, 159, 161, 162, 164, 165,
                  167, 168, 170, 171, 173, 174, 176, 177, 179, 180, 182, 183,
                  185, 186, 188, 189, 191, 192, 194, 195, 197, 198, 200, 201,
                  203, 204, 206, 207, 209, 210, 212, 213, 215, 216, 218, 219,
                  221, 222, 224, 225, 227, 228, 230, 231, 233, 234, 236, 237,
                  239, 240, 242, 243, 245, 246, 248, 249, 251, 252, 254, 255,
                  257, 258, 260, 261, 263, 264, 266, 267, 269, 270, 272, 273,
                  275, 276, 278, 279, 281, 282, 284, 285, 287, 288, 290, 291,
                  293, 294, 296, 297, 299, 300, 302, 303, 305, 306, 308, 309,
                  311, 312, 314, 315, 317, 318, 320, 321, 323, 324, 326, 327,
                  329, 330, 332, 333, 335, 336, 338, 339, 341, 342, 344, 345,
                  347, 348, 350, 351, 353, 354, 356, 357, 359, 360, 362, 363,
                  365, 366, 368, 369, 371, 372, 374, 375, 377, 378, 380, 381,
                  383, 384, 386, 387, 389, 390, 392, 393, 395, 396, 398, 399,
                  401, 402, 404, 405, 407, 408, 410, 411, 413, 414, 416, 417,
                  419, 420, 422, 423, 425, 426, 428, 429, 431, 432, 434, 435,
                  437, 438, 440, 441, 443, 444, 446, 447, 449, 450, 452, 453,
                  455, 456, 458, 459, 461, 462, 464, 465, 467, 468, 470, 471,
                  473, 474, 476, 477, 479, 480, 482, 483, 485, 486, 488, 489,
                  491, 492, 494, 495, 497, 498, 500, 501, 503, 504, 506, 507,
                  509, 510, 512, 513, 515, 516, 518, 519, 521, 522, 524, 525,
                  527, 528, 530, 531

molecular fragmentation (1/2 indicates fragments):
111222222222222222222222222222222222222222222222222222222222222222222222
222222222222222222222222222222222222222222222222222222222222222222222222
222222222222222222222222222222222222222222222222222222222222222222222222
222222222222222222222222222222222222222222222222222222222222222222222222
222222222222222222222222222222222222222222222222222222222222222222222222
222222222222222222222222222222222222222222222222222222222222222222222222
222222222222222222222222222222222222222222222222222222222222222222222222
222222222222222222222222222
# atoms in fragment 1/2:     3   528
 fragment masses (1/2) :       18.02     3170.69
CMA distance (Bohr)    :   6.431
constraining FC (au)   :  0.0500

           -------------------------------------------------
          |                 G F N 2 - x T B                 |
           -------------------------------------------------

        Reference                      10.1021/acs.jctc.8b01176
      * Hamiltonian:
        H0-scaling (s, p, d)           1.850000    2.230000    2.230000
        zeta-weighting                 0.500000
      * Dispersion:
        s8                             2.700000
        a1                             0.520000
        a2                             5.000000
        s9                             5.000000
      * Repulsion:
        kExp                           1.500000    1.000000
        rExp                           1.000000
      * Coulomb:
        alpha                          2.000000
        third order                    shell-resolved
        anisotropic                    true
        a3                             3.000000
        a5                             4.000000
        cn-shift                       1.200000
        cn-exp                         4.000000
        max-rad                        5.000000

      * Solvation model:               GBSA
        Solvent                        water
        Parameter file                 internal GFN2-xTB/GBSA
        Dielectric constant                8.0200E+01
        Reference state                gsolv [1 M gas/solution]
        Free energy shift                  1.8574E-03 Eh       1.1656E+00 kcal/mol
        Temperature                        2.9815E+02 K
        Density                            1.0000E+00 kg/L
        Solvent mass                       1.8000E+01 g/mol
        Interaction kernel             Still
        Born radius scaling (c1)           1.5524E+00
        Born radii integrator          GBOBC
        Born offset                        2.4628E-02 a0       4.6540E-02 AA
        H-bond correction              true
        Ion screening                  false
        Surface tension                    1.0000E-05 Eh       1.5569E+01 dyn/cm
        Grid points                               230 per atom

          ...................................................
          :                      SETUP                      :
          :.................................................:
          :  # basis functions                1062          :
          :  # atomic orbitals                1062          :
          :  # shells                          708          :
          :  # electrons                      1416          :
          :  max. iterations                   250          :
          :  Hamiltonian                  GFN2-xTB          :
          :  restarted?                      false          :
          :  GBSA solvation                   true          :
          :  PC potential                    false          :
          :  electronic temp.          300.0000000     K    :
          :  accuracy                    1.0000000          :
          :  -> integral cutoff          0.2500000E+02      :
          :  -> integral neglect         0.1000000E-07      :
          :  -> SCF convergence          0.1000000E-05 Eh   :
          :  -> wf. convergence          0.1000000E-03 e    :
          :  Broyden damping             0.4000000          :
          ...................................................

 iter      E             dE          RMSdq      gap      omega  full diag
   1   -906.7653148 -0.906765E+03  0.408E+00    8.62       0.0  T
   2   -906.8281258 -0.628110E-01  0.242E+00    8.23       1.0  T
   3   -906.8538030 -0.256772E-01  0.230E-01    7.21       1.0  T
   4   -906.8578264 -0.402334E-02  0.505E-02    7.47       1.0  T
   5   -906.8579694 -0.143014E-03  0.318E-02    7.41       1.0  T
   6   -906.8580040 -0.346597E-04  0.366E-03    7.42       1.2  T
   7   -906.8580051 -0.109944E-05  0.882E-04    7.41       4.9  T
   8   -906.8580052 -0.439317E-07  0.470E-04    7.41       9.2  T
   9   -906.8580052 -0.210727E-07  0.122E-04    7.41      35.6  T

   *** convergence criteria satisfied after 9 iterations ***

         #    Occupation            Energy/Eh            Energy/eV
      -------------------------------------------------------------
         1        2.0000           -0.6560356             -17.8516
       ...           ...                  ...                  ...
       702        2.0000           -0.3426059              -9.3228
       703        2.0000           -0.3424806              -9.3194
       704        2.0000           -0.3421477              -9.3103
       705        2.0000           -0.3392308              -9.2309
       706        2.0000           -0.3347903              -9.1101
       707        2.0000           -0.3260036              -8.8710
       708        2.0000           -0.3220141              -8.7624 (HOMO)
       709                         -0.0495819              -1.3492 (LUMO)
       710                         -0.0421585              -1.1472
       711                         -0.0264986              -0.7211
       712                         -0.0254249              -0.6918
       713                         -0.0182641              -0.4970
       ...                                ...                  ...
      1062                          0.4844543              13.1827
      -------------------------------------------------------------
                  HL-Gap            0.2724321 Eh            7.4133 eV
             Fermi-level           -0.1857980 Eh           -5.0558 eV

 SCC (total)                   0 d,  0 h,  0 min,  8.447 sec
 SCC setup                      ...        0 min,  0.111 sec (  1.316%)
 Dispersion                     ...        0 min,  0.070 sec (  0.831%)
 classical contributions        ...        0 min,  0.016 sec (  0.186%)
 integral evaluation            ...        0 min,  0.467 sec (  5.526%)
 iterations                     ...        0 min,  2.960 sec ( 35.042%)
 molecular gradient             ...        0 min,  4.795 sec ( 56.763%)
 printout                       ...        0 min,  0.028 sec (  0.336%)

         :::::::::::::::::::::::::::::::::::::::::::::::::::::
         ::                     SUMMARY                     ::
         :::::::::::::::::::::::::::::::::::::::::::::::::::::
         :: total energy            -901.390828439520 Eh    ::
         :: total w/o Gsasa/hb      -901.197339617970 Eh    ::
         :: gradient norm              0.104085353557 Eh/a0 ::
         :: HOMO-LUMO gap              7.413255333346 eV    ::
         ::.................................................::
         :: SCC energy              -906.858005191753 Eh    ::
         :: -> isotropic ES            5.259802789549 Eh    ::
         :: -> anisotropic ES         -1.123774636007 Eh    ::
         :: -> anisotropic XC         -0.086578038633 Eh    ::
         :: -> dispersion             -0.530838698318 Eh    ::
         :: -> Gsolv                  -0.221480166325 Eh    ::
         ::    -> Gelec               -0.027991344775 Eh    ::
         ::    -> Gsasa                0.003230562579 Eh    ::
         ::    -> Ghb                 -0.198576827256 Eh    ::
         ::    -> Gshift               0.001857443127 Eh    ::
         :: repulsion energy           5.373199913339 Eh    ::
         :: add. restraining           0.000000000000 Eh    ::
         :: total charge               0.000000000000 e     ::
         :::::::::::::::::::::::::::::::::::::::::::::::::::::

           -------------------------------------------------
          |                Property Printout                |
           -------------------------------------------------

    * Orbital Energies and Occupations

         #    Occupation            Energy/Eh            Energy/eV
      -------------------------------------------------------------
         1        2.0000           -0.6560356             -17.8516
       ...           ...                  ...                  ...
       696        2.0000           -0.3524041              -9.5894
       697        2.0000           -0.3517622              -9.5719
       698        2.0000           -0.3500148              -9.5244
       699        2.0000           -0.3483642              -9.4795
       700        2.0000           -0.3475086              -9.4562
       701        2.0000           -0.3439666              -9.3598
       702        2.0000           -0.3426059              -9.3228
       703        2.0000           -0.3424806              -9.3194
       704        2.0000           -0.3421477              -9.3103
       705        2.0000           -0.3392308              -9.2309
       706        2.0000           -0.3347903              -9.1101
       707        2.0000           -0.3260036              -8.8710
       708        2.0000           -0.3220141              -8.7624 (HOMO)
       709                         -0.0495819              -1.3492 (LUMO)
       710                         -0.0421585              -1.1472
       711                         -0.0264986              -0.7211
       712                         -0.0254249              -0.6918
       713                         -0.0182641              -0.4970
       714                         -0.0109375              -0.2976
       715                         -0.0068355              -0.1860
       716                          0.0010413               0.0283
       717                          0.0021655               0.0589
       718                          0.0063999               0.1742
       719                          0.0142127               0.3867
       ...                                ...                  ...
      1062                          0.4844543              13.1827
      -------------------------------------------------------------
                  HL-Gap            0.2724321 Eh            7.4133 eV
             Fermi-level           -0.1857980 Eh           -5.0558 eV

     #   Z          covCN         q      C6AA      α(0)
     1   8 o        1.608    -0.670    26.919     7.002
     2   1 h        0.804     0.340     0.613     1.230
     3   1 h        0.804     0.330     0.638     1.254
     4   8 o        1.609    -0.672    26.964     7.008
     5   1 h        0.804     0.348     0.593     1.210
     6   1 h        0.805     0.335     0.624     1.241
     7   8 o        1.610    -0.665    26.804     6.988
     8   1 h        0.805     0.341     0.611     1.228
     9   1 h        0.804     0.338     0.616     1.233
    10   8 o        1.608    -0.681    27.215     7.041
    11   1 h        0.804     0.335     0.626     1.243
    12   1 h        0.804     0.327     0.646     1.263
    13   8 o        1.608    -0.666    26.826     6.990
    14   1 h        0.803     0.343     0.604     1.221
    15   1 h        0.804     0.339     0.614     1.231
    16   8 o        1.606    -0.683    27.272     7.048
    17   1 h        0.803     0.364     0.558     1.173
    18   1 h        0.804     0.328     0.644     1.260
    19   8 o        1.608    -0.689    27.414     7.067
    20   1 h        0.803     0.337     0.619     1.236
    21   1 h        0.804     0.338     0.618     1.235
    22   8 o        1.608    -0.679    27.153     7.033
    23   1 h        0.804     0.358     0.571     1.186
    24   1 h        0.804     0.353     0.580     1.197
    25   8 o        1.607    -0.686    27.331     7.056
    26   1 h        0.803     0.337     0.620     1.237
    27   1 h        0.804     0.330     0.638     1.255
    28   8 o        1.608    -0.691    27.470     7.074
    29   1 h        0.804     0.334     0.627     1.244
    30   1 h        0.804     0.359     0.569     1.185
    31   8 o        1.609    -0.675    27.047     7.019
    32   1 h        0.804     0.340     0.613     1.230
    33   1 h        0.804     0.339     0.615     1.232
    34   8 o        1.607    -0.666    26.817     6.989
    35   1 h        0.803     0.347     0.597     1.213
    36   1 h        0.804     0.325     0.650     1.266
    37   8 o        1.609    -0.684    27.280     7.049
    38   1 h        0.804     0.326     0.648     1.264
    39   1 h        0.804     0.328     0.643     1.260
    40   8 o        1.607    -0.690    27.450     7.071
    41   1 h        0.803     0.347     0.594     1.211
    42   1 h        0.803     0.348     0.592     1.209
    43   8 o        1.608    -0.656    26.558     6.955
    44   1 h        0.804     0.333     0.630     1.247
    45   1 h        0.804     0.332     0.632     1.249
    46   8 o        1.609    -0.668    26.862     6.995
    47   1 h        0.804     0.351     0.585     1.202
    48   1 h        0.805     0.319     0.668     1.284
    49   8 o        1.609    -0.657    26.583     6.959
    50   1 h        0.805     0.320     0.665     1.281
    51   1 h        0.803     0.365     0.554     1.169
    52   8 o        1.607    -0.669    26.911     7.001
    53   1 h        0.802     0.366     0.553     1.169
    54   1 h        0.804     0.329     0.640     1.257
    55   8 o        1.608    -0.672    26.981     7.011
    56   1 h        0.803     0.348     0.594     1.210
    57   1 h        0.804     0.332     0.632     1.249
    58   8 o        1.609    -0.669    26.902     7.000
    59   1 h        0.804     0.345     0.601     1.217
    60   1 h        0.805     0.320     0.665     1.281
    61   8 o        1.608    -0.656    26.566     6.956
    62   1 h        0.803     0.358     0.569     1.185
    63   1 h        0.806     0.313     0.684     1.299
    64   8 o        1.607    -0.674    27.038     7.018
    65   1 h        0.805     0.318     0.670     1.285
    66   1 h        0.803     0.353     0.582     1.198
    67   8 o        1.607    -0.699    27.680     7.101
    68   1 h        0.804     0.343     0.606     1.223
    69   1 h        0.804     0.331     0.634     1.251
    70   8 o        1.604    -0.699    27.699     7.103
    71   1 h        0.803     0.352     0.584     1.201
    72   1 h        0.802     0.328     0.642     1.259
    73   8 o        1.606    -0.696    27.603     7.091
    74   1 h        0.803     0.338     0.617     1.234
    75   1 h        0.803     0.353     0.580     1.197
    76   8 o        1.608    -0.676    27.086     7.024
    77   1 h        0.805     0.339     0.614     1.231
    78   1 h        0.803     0.354     0.578     1.195
    79   8 o        1.606    -0.682    27.231     7.043
    80   1 h        0.802     0.360     0.565     1.181
    81   1 h        0.804     0.340     0.613     1.230
    82   8 o        1.610    -0.643    26.230     6.912
    83   1 h        0.805     0.331     0.634     1.251
    84   1 h        0.805     0.345     0.600     1.216
    85   8 o        1.606    -0.666    26.828     6.991
    86   1 h        0.802     0.332     0.632     1.249
    87   1 h        0.805     0.333     0.630     1.247
    88   8 o        1.609    -0.678    27.122     7.029
    89   1 h        0.805     0.326     0.649     1.265
    90   1 h        0.804     0.339     0.614     1.231
    91   8 o        1.607    -0.676    27.075     7.023
    92   1 h        0.804     0.325     0.651     1.267
    93   1 h        0.803     0.339     0.614     1.231
    94   8 o        1.610    -0.677    27.110     7.027
    95   1 h        0.805     0.333     0.630     1.247
    96   1 h        0.804     0.344     0.602     1.219
    97   8 o        1.608    -0.670    26.920     7.003
    98   1 h        0.804     0.333     0.630     1.247
    99   1 h        0.804     0.336     0.623     1.239
   100   8 o        1.607    -0.669    26.896     6.999
   101   1 h        0.804     0.338     0.618     1.234
   102   1 h        0.803     0.332     0.631     1.248
   103   8 o        1.608    -0.660    26.660     6.969
   104   1 h        0.804     0.346     0.597     1.214
   105   1 h        0.804     0.323     0.656     1.272
   106   8 o        1.609    -0.669    26.887     6.998
   107   1 h        0.803     0.344     0.602     1.219
   108   1 h        0.805     0.336     0.621     1.238
   109   8 o        1.609    -0.665    26.809     6.988
   110   1 h        0.804     0.352     0.584     1.201
   111   1 h        0.803     0.335     0.624     1.241
   112   8 o        1.608    -0.665    26.807     6.988
   113   1 h        0.804     0.342     0.607     1.224
   114   1 h        0.804     0.344     0.603     1.219
   115   8 o        1.607    -0.691    27.464     7.073
   116   1 h        0.804     0.336     0.621     1.238
   117   1 h        0.803     0.351     0.587     1.203
   118   8 o        1.607    -0.691    27.465     7.073
   119   1 h        0.803     0.337     0.620     1.237
   120   1 h        0.804     0.342     0.606     1.223
   121   8 o        1.608    -0.684    27.282     7.049
   122   1 h        0.805     0.332     0.632     1.248
   123   1 h        0.803     0.363     0.558     1.173
   124   8 o        1.608    -0.677    27.095     7.025
   125   1 h        0.803     0.335     0.624     1.241
   126   1 h        0.805     0.323     0.657     1.273
   127   8 o        1.607    -0.656    26.568     6.957
   128   1 h        0.805     0.322     0.657     1.273
   129   1 h        0.802     0.346     0.599     1.216
   130   8 o        1.608    -0.670    26.936     7.005
   131   1 h        0.805     0.343     0.606     1.223
   132   1 h        0.803     0.352     0.583     1.200
   133   8 o        1.607    -0.697    27.636     7.095
   134   1 h        0.803     0.331     0.635     1.251
   135   1 h        0.804     0.344     0.603     1.220
   136   8 o        1.608    -0.657    26.598     6.961
   137   1 h        0.803     0.337     0.620     1.237
   138   1 h        0.805     0.335     0.625     1.242
   139   8 o        1.608    -0.680    27.196     7.038
   140   1 h        0.802     0.359     0.567     1.183
   141   1 h        0.805     0.317     0.671     1.286
   142   8 o        1.608    -0.685    27.320     7.054
   143   1 h        0.804     0.343     0.604     1.221
   144   1 h        0.804     0.346     0.597     1.214
   145   8 o        1.606    -0.696    27.615     7.092
   146   1 h        0.804     0.339     0.616     1.233
   147   1 h        0.802     0.356     0.575     1.191
   148   8 o        1.609    -0.652    26.460     6.942
   149   1 h        0.804     0.344     0.602     1.219
   150   1 h        0.805     0.329     0.641     1.257
   151   8 o        1.605    -0.667    26.861     6.995
   152   1 h        0.803     0.334     0.627     1.244
   153   1 h        0.803     0.347     0.597     1.213
   154   8 o        1.609    -0.653    26.496     6.947
   155   1 h        0.806     0.311     0.689     1.303
   156   1 h        0.803     0.350     0.589     1.205
   157   8 o        1.607    -0.670    26.928     7.004
   158   1 h        0.804     0.341     0.609     1.226
   159   1 h        0.804     0.332     0.632     1.249
   160   8 o        1.608    -0.668    26.883     6.998
   161   1 h        0.804     0.332     0.633     1.250
   162   1 h        0.804     0.320     0.663     1.279
   163   8 o        1.607    -0.680    27.189     7.037
   164   1 h        0.804     0.325     0.651     1.267
   165   1 h        0.803     0.339     0.615     1.232
   166   8 o        1.608    -0.663    26.747     6.980
   167   1 h        0.804     0.338     0.618     1.235
   168   1 h        0.804     0.321     0.662     1.278
   169   8 o        1.609    -0.663    26.745     6.980
   170   1 h        0.805     0.323     0.656     1.272
   171   1 h        0.804     0.331     0.635     1.252
   172   8 o        1.608    -0.683    27.253     7.046
   173   1 h        0.803     0.355     0.577     1.193
   174   1 h        0.805     0.321     0.662     1.278
   175   8 o        1.608    -0.662    26.709     6.975
   176   1 h        0.804     0.327     0.645     1.261
   177   1 h        0.804     0.328     0.642     1.259
   178   8 o        1.608    -0.671    26.962     7.008
   179   1 h        0.803     0.328     0.644     1.261
   180   1 h        0.804     0.337     0.620     1.237
   181   8 o        1.609    -0.674    27.032     7.017
   182   1 h        0.804     0.320     0.665     1.281
   183   1 h        0.805     0.334     0.626     1.243
   184   8 o        1.608    -0.689    27.430     7.069
   185   1 h        0.803     0.340     0.612     1.229
   186   1 h        0.804     0.341     0.610     1.227
   187   8 o        1.608    -0.672    26.965     7.008
   188   1 h        0.804     0.327     0.645     1.262
   189   1 h        0.804     0.325     0.650     1.267
   190   8 o        1.608    -0.677    27.096     7.025
   191   1 h        0.803     0.366     0.553     1.168
   192   1 h        0.805     0.344     0.603     1.220
   193   8 o        1.608    -0.687    27.358     7.059
   194   1 h        0.803     0.355     0.577     1.193
   195   1 h        0.805     0.330     0.639     1.255
   196   8 o        1.608    -0.674    27.031     7.017
   197   1 h        0.803     0.340     0.613     1.229
   198   1 h        0.805     0.332     0.633     1.250
   199   8 o        1.606    -0.709    27.954     7.136
   200   1 h        0.804     0.347     0.594     1.211
   201   1 h        0.803     0.339     0.614     1.231
   202   8 o        1.606    -0.690    27.453     7.071
   203   1 h        0.804     0.325     0.650     1.267
   204   1 h        0.803     0.338     0.618     1.235
   205   8 o        1.607    -0.674    27.017     7.015
   206   1 h        0.804     0.335     0.624     1.241
   207   1 h        0.802     0.341     0.610     1.227
   208   8 o        1.608    -0.680    27.194     7.038
   209   1 h        0.803     0.356     0.575     1.191
   210   1 h        0.805     0.349     0.591     1.208
   211   8 o        1.607    -0.694    27.546     7.083
   212   1 h        0.803     0.358     0.570     1.186
   213   1 h        0.804     0.334     0.626     1.243
   214   8 o        1.606    -0.693    27.540     7.083
   215   1 h        0.803     0.351     0.585     1.202
   216   1 h        0.803     0.351     0.586     1.202
   217   8 o        1.608    -0.676    27.068     7.022
   218   1 h        0.803     0.324     0.653     1.270
   219   1 h        0.805     0.335     0.623     1.240
   220   8 o        1.608    -0.678    27.128     7.030
   221   1 h        0.803     0.356     0.576     1.192
   222   1 h        0.805     0.321     0.661     1.277
   223   8 o        1.610    -0.648    26.353     6.928
   224   1 h        0.805     0.320     0.665     1.281
   225   1 h        0.804     0.341     0.610     1.227
   226   8 o        1.608    -0.679    27.167     7.035
   227   1 h        0.804     0.356     0.574     1.191
   228   1 h        0.804     0.331     0.634     1.250
   229   8 o        1.607    -0.674    27.040     7.018
   230   1 h        0.804     0.331     0.635     1.252
   231   1 h        0.803     0.327     0.645     1.262
   232   8 o        1.610    -0.653    26.490     6.947
   233   1 h        0.804     0.337     0.619     1.236
   234   1 h        0.805     0.326     0.647     1.264
   235   8 o        1.607    -0.692    27.490     7.076
   236   1 h        0.803     0.357     0.573     1.189
   237   1 h        0.804     0.332     0.633     1.250
   238   8 o        1.607    -0.684    27.302     7.052
   239   1 h        0.803     0.361     0.563     1.179
   240   1 h        0.804     0.351     0.585     1.202
   241   8 o        1.608    -0.671    26.946     7.006
   242   1 h        0.804     0.338     0.616     1.233
   243   1 h        0.805     0.328     0.641     1.258
   244   8 o        1.608    -0.682    27.223     7.042
   245   1 h        0.804     0.320     0.664     1.280
   246   1 h        0.804     0.332     0.634     1.250
   247   8 o        1.607    -0.696    27.601     7.091
   248   1 h        0.804     0.331     0.636     1.253
   249   1 h        0.803     0.337     0.620     1.237
   250   8 o        1.608    -0.679    27.167     7.035
   251   1 h        0.804     0.337     0.621     1.238
   252   1 h        0.804     0.343     0.604     1.221
   253   8 o        1.608    -0.687    27.356     7.059
   254   1 h        0.804     0.335     0.625     1.242
   255   1 h        0.804     0.339     0.614     1.231
   256   8 o        1.606    -0.695    27.577     7.087
   257   1 h        0.803     0.352     0.585     1.201
   258   1 h        0.804     0.328     0.642     1.259
   259   8 o        1.607    -0.678    27.142     7.031
   260   1 h        0.803     0.349     0.590     1.207
   261   1 h        0.804     0.343     0.604     1.221
   262   8 o        1.608    -0.687    27.365     7.060
   263   1 h        0.805     0.320     0.662     1.278
   264   1 h        0.803     0.346     0.597     1.214
   265   8 o        1.609    -0.664    26.772     6.983
   266   1 h        0.805     0.320     0.665     1.281
   267   1 h        0.804     0.348     0.594     1.211
   268   8 o        1.607    -0.676    27.094     7.025
   269   1 h        0.804     0.357     0.573     1.189
   270   1 h        0.803     0.331     0.636     1.253
   271   8 o        1.608    -0.665    26.808     6.988
   272   1 h        0.804     0.343     0.605     1.222
   273   1 h        0.805     0.331     0.634     1.250
   274   8 o        1.607    -0.678    27.136     7.031
   275   1 h        0.804     0.320     0.665     1.281
   276   1 h        0.803     0.346     0.598     1.215
   277   8 o        1.607    -0.676    27.089     7.025
   278   1 h        0.802     0.356     0.576     1.192
   279   1 h        0.806     0.307     0.699     1.313
   280   8 o        1.609    -0.673    27.004     7.014
   281   1 h        0.805     0.331     0.635     1.251
   282   1 h        0.803     0.343     0.605     1.222
   283   8 o        1.607    -0.684    27.280     7.049
   284   1 h        0.802     0.358     0.570     1.186
   285   1 h        0.805     0.322     0.658     1.274
   286   8 o        1.607    -0.691    27.486     7.076
   287   1 h        0.803     0.360     0.566     1.182
   288   1 h        0.804     0.331     0.634     1.251
   289   8 o        1.606    -0.673    27.006     7.014
   290   1 h        0.805     0.319     0.666     1.282
   291   1 h        0.802     0.352     0.584     1.200
   292   8 o        1.606    -0.671    26.945     7.006
   293   1 h        0.806     0.317     0.673     1.288
   294   1 h        0.801     0.347     0.596     1.212
   295   8 o        1.607    -0.682    27.236     7.044
   296   1 h        0.803     0.336     0.622     1.239
   297   1 h        0.804     0.358     0.571     1.187
   298   8 o        1.609    -0.652    26.457     6.942
   299   1 h        0.805     0.330     0.638     1.255
   300   1 h        0.804     0.331     0.634     1.251
   301   8 o        1.608    -0.657    26.602     6.961
   302   1 h        0.806     0.318     0.670     1.286
   303   1 h        0.803     0.345     0.599     1.216
   304   8 o        1.606    -0.685    27.305     7.052
   305   1 h        0.802     0.364     0.557     1.172
   306   1 h        0.804     0.336     0.621     1.238
   307   8 o        1.608    -0.680    27.189     7.038
   308   1 h        0.804     0.330     0.638     1.254
   309   1 h        0.804     0.337     0.619     1.236
   310   8 o        1.606    -0.694    27.549     7.084
   311   1 h        0.803     0.359     0.567     1.183
   312   1 h        0.803     0.353     0.581     1.198
   313   8 o        1.606    -0.665    26.806     6.988
   314   1 h        0.806     0.315     0.677     1.292
   315   1 h        0.802     0.356     0.576     1.192
   316   8 o        1.607    -0.684    27.281     7.049
   317   1 h        0.802     0.344     0.602     1.219
   318   1 h        0.805     0.319     0.666     1.282
   319   8 o        1.610    -0.645    26.284     6.919
   320   1 h        0.804     0.341     0.610     1.227
   321   1 h        0.805     0.316     0.675     1.291
   322   8 o        1.608    -0.657    26.584     6.959
   323   1 h        0.802     0.347     0.596     1.213
   324   1 h        0.806     0.318     0.668     1.284
   325   8 o        1.608    -0.663    26.738     6.979
   326   1 h        0.805     0.320     0.663     1.279
   327   1 h        0.803     0.358     0.571     1.187
   328   8 o        1.606    -0.673    27.008     7.014
   329   1 h        0.803     0.338     0.617     1.234
   330   1 h        0.803     0.338     0.618     1.235
   331   8 o        1.604    -0.694    27.556     7.085
   332   1 h        0.802     0.334     0.628     1.245
   333   1 h        0.802     0.349     0.591     1.207
   334   8 o        1.606    -0.678    27.122     7.029
   335   1 h        0.805     0.319     0.666     1.282
   336   1 h        0.802     0.358     0.571     1.187
   337   8 o        1.608    -0.690    27.455     7.072
   338   1 h        0.803     0.357     0.572     1.188
   339   1 h        0.805     0.315     0.677     1.292
   340   8 o        1.608    -0.684    27.279     7.049
   341   1 h        0.805     0.325     0.651     1.267
   342   1 h        0.803     0.345     0.600     1.216
   343   8 o        1.606    -0.689    27.421     7.067
   344   1 h        0.803     0.349     0.592     1.209
   345   1 h        0.803     0.322     0.659     1.275
   346   8 o        1.608    -0.657    26.599     6.961
   347   1 h        0.806     0.304     0.709     1.322
   348   1 h        0.802     0.348     0.592     1.209
   349   8 o        1.608    -0.676    27.086     7.024
   350   1 h        0.804     0.360     0.565     1.180
   351   1 h        0.804     0.334     0.628     1.245
   352   8 o        1.608    -0.667    26.850     6.994
   353   1 h        0.803     0.331     0.635     1.252
   354   1 h        0.805     0.334     0.628     1.245
   355   8 o        1.607    -0.658    26.622     6.964
   356   1 h        0.805     0.324     0.653     1.270
   357   1 h        0.803     0.342     0.608     1.225
   358   8 o        1.608    -0.639    26.127     6.899
   359   1 h        0.806     0.314     0.680     1.295
   360   1 h        0.803     0.344     0.604     1.220
   361   8 o        1.609    -0.665    26.796     6.986
   362   1 h        0.804     0.349     0.590     1.207
   363   1 h        0.805     0.332     0.633     1.250
   364   8 o        1.608    -0.676    27.070     7.022
   365   1 h        0.804     0.334     0.626     1.243
   366   1 h        0.804     0.330     0.636     1.253
   367   8 o        1.607    -0.692    27.510     7.079
   368   1 h        0.803     0.356     0.575     1.191
   369   1 h        0.805     0.326     0.648     1.265
   370   8 o        1.606    -0.659    26.633     6.965
   371   1 h        0.802     0.351     0.585     1.202
   372   1 h        0.806     0.317     0.673     1.289
   373   8 o        1.605    -0.687    27.376     7.062
   374   1 h        0.802     0.335     0.625     1.242
   375   1 h        0.803     0.339     0.614     1.231
   376   8 o        1.606    -0.705    27.835     7.120
   377   1 h        0.805     0.314     0.679     1.294
   378   1 h        0.802     0.357     0.573     1.189
   379   8 o        1.607    -0.671    26.944     7.006
   380   1 h        0.803     0.347     0.595     1.211
   381   1 h        0.804     0.332     0.633     1.250
   382   8 o        1.609    -0.674    27.038     7.018
   383   1 h        0.805     0.328     0.643     1.259
   384   1 h        0.803     0.343     0.605     1.222
   385   8 o        1.606    -0.701    27.749     7.110
   386   1 h        0.803     0.344     0.603     1.220
   387   1 h        0.805     0.331     0.636     1.252
   388   8 o        1.608    -0.673    26.991     7.012
   389   1 h        0.804     0.339     0.614     1.231
   390   1 h        0.804     0.340     0.613     1.229
   391   8 o        1.609    -0.671    26.946     7.006
   392   1 h        0.805     0.334     0.627     1.244
   393   1 h        0.804     0.336     0.623     1.240
   394   8 o        1.608    -0.665    26.795     6.986
   395   1 h        0.804     0.344     0.602     1.219
   396   1 h        0.804     0.322     0.657     1.273
   397   8 o        1.608    -0.654    26.523     6.951
   398   1 h        0.805     0.330     0.636     1.253
   399   1 h        0.803     0.342     0.609     1.225
   400   8 o        1.609    -0.671    26.945     7.006
   401   1 h        0.805     0.342     0.607     1.224
   402   1 h        0.803     0.336     0.622     1.239
   403   8 o        1.608    -0.698    27.648     7.097
   404   1 h        0.804     0.328     0.643     1.260
   405   1 h        0.804     0.327     0.645     1.262
   406   8 o        1.608    -0.662    26.723     6.977
   407   1 h        0.803     0.352     0.584     1.201
   408   1 h        0.805     0.323     0.655     1.271
   409   8 o        1.607    -0.696    27.608     7.091
   410   1 h        0.803     0.361     0.563     1.179
   411   1 h        0.804     0.318     0.668     1.284
   412   8 o        1.609    -0.655    26.552     6.955
   413   1 h        0.804     0.327     0.645     1.261
   414   1 h        0.804     0.339     0.614     1.230
   415   8 o        1.608    -0.685    27.316     7.054
   416   1 h        0.803     0.360     0.566     1.182
   417   1 h        0.805     0.323     0.655     1.272
   418   8 o        1.607    -0.691    27.481     7.075
   419   1 h        0.805     0.323     0.657     1.273
   420   1 h        0.803     0.358     0.570     1.186
   421   8 o        1.607    -0.689    27.408     7.066
   422   1 h        0.805     0.324     0.654     1.270
   423   1 h        0.802     0.354     0.578     1.195
   424   8 o        1.610    -0.640    26.171     6.905
   425   1 h        0.805     0.336     0.621     1.238
   426   1 h        0.806     0.316     0.674     1.289
   427   8 o        1.606    -0.701    27.729     7.107
   428   1 h        0.803     0.348     0.594     1.211
   429   1 h        0.803     0.361     0.563     1.178
   430   8 o        1.608    -0.691    27.463     7.073
   431   1 h        0.806     0.311     0.689     1.304
   432   1 h        0.802     0.355     0.576     1.192
   433   8 o        1.608    -0.668    26.872     6.996
   434   1 h        0.802     0.350     0.588     1.205
   435   1 h        0.806     0.311     0.690     1.304
   436   8 o        1.608    -0.676    27.080     7.023
   437   1 h        0.805     0.318     0.669     1.284
   438   1 h        0.804     0.337     0.620     1.237
   439   8 o        1.608    -0.654    26.509     6.949
   440   1 h        0.803     0.346     0.597     1.214
   441   1 h        0.805     0.318     0.668     1.284
   442   8 o        1.607    -0.673    27.015     7.015
   443   1 h        0.805     0.313     0.683     1.298
   444   1 h        0.802     0.358     0.571     1.187
   445   8 o        1.607    -0.683    27.252     7.046
   446   1 h        0.802     0.356     0.575     1.192
   447   1 h        0.805     0.328     0.641     1.258
   448   8 o        1.608    -0.668    26.886     6.998
   449   1 h        0.804     0.338     0.617     1.234
   450   1 h        0.804     0.354     0.579     1.195
   451   8 o        1.609    -0.662    26.722     6.977
   452   1 h        0.804     0.332     0.632     1.249
   453   1 h        0.804     0.333     0.630     1.247
   454   8 o        1.608    -0.697    27.641     7.096
   455   1 h        0.804     0.333     0.630     1.247
   456   1 h        0.804     0.343     0.606     1.223
   457   8 o        1.607    -0.683    27.257     7.046
   458   1 h        0.803     0.357     0.572     1.188
   459   1 h        0.805     0.327     0.645     1.262
   460   8 o        1.608    -0.682    27.248     7.045
   461   1 h        0.803     0.357     0.572     1.188
   462   1 h        0.805     0.325     0.650     1.267
   463   8 o        1.606    -0.668    26.875     6.997
   464   1 h        0.804     0.323     0.657     1.273
   465   1 h        0.803     0.337     0.620     1.237
   466   8 o        1.608    -0.669    26.898     7.000
   467   1 h        0.806     0.312     0.685     1.300
   468   1 h        0.802     0.354     0.579     1.196
   469   8 o        1.609    -0.649    26.400     6.935
   470   1 h        0.805     0.326     0.648     1.264
   471   1 h        0.804     0.327     0.645     1.262
   472   8 o        1.607    -0.686    27.344     7.057
   473   1 h        0.805     0.336     0.622     1.238
   474   1 h        0.802     0.355     0.577     1.193
   475   8 o        1.607    -0.667    26.849     6.993
   476   1 h        0.806     0.308     0.698     1.313
   477   1 h        0.801     0.347     0.597     1.214
   478   8 o        1.608    -0.684    27.279     7.049
   479   1 h        0.804     0.327     0.646     1.263
   480   1 h        0.804     0.339     0.616     1.233
   481   8 o        1.607    -0.669    26.890     6.999
   482   1 h        0.804     0.325     0.650     1.266
   483   1 h        0.803     0.335     0.624     1.241
   484   8 o        1.608    -0.659    26.643     6.967
   485   1 h        0.803     0.356     0.574     1.190
   486   1 h        0.805     0.327     0.646     1.263
   487   8 o        1.606    -0.680    27.188     7.037
   488   1 h        0.803     0.339     0.614     1.231
   489   1 h        0.802     0.347     0.596     1.213
   490   8 o        1.608    -0.665    26.796     6.986
   491   1 h        0.803     0.339     0.615     1.232
   492   1 h        0.804     0.333     0.628     1.245
   493   8 o        1.608    -0.677    27.107     7.027
   494   1 h        0.803     0.354     0.579     1.195
   495   1 h        0.805     0.323     0.656     1.272
   496   8 o        1.608    -0.673    26.998     7.013
   497   1 h        0.805     0.326     0.648     1.264
   498   1 h        0.803     0.356     0.575     1.191
   499   8 o        1.609    -0.651    26.434     6.939
   500   1 h        0.805     0.332     0.632     1.249
   501   1 h        0.804     0.344     0.603     1.220
   502   8 o        1.607    -0.675    27.068     7.022
   503   1 h        0.804     0.337     0.620     1.237
   504   1 h        0.803     0.363     0.560     1.175
   505   8 o        1.606    -0.696    27.602     7.091
   506   1 h        0.803     0.347     0.597     1.213
   507   1 h        0.804     0.344     0.603     1.220
   508   8 o        1.608    -0.664    26.760     6.982
   509   1 h        0.803     0.346     0.599     1.216
   510   1 h        0.805     0.316     0.673     1.289
   511   8 o        1.605    -0.706    27.864     7.124
   512   1 h        0.802     0.354     0.579     1.195
   513   1 h        0.803     0.320     0.665     1.281
   514   8 o        1.610    -0.646    26.320     6.924
   515   1 h        0.805     0.333     0.630     1.246
   516   1 h        0.805     0.338     0.617     1.234
   517   8 o        1.607    -0.688    27.383     7.063
   518   1 h        0.804     0.334     0.626     1.243
   519   1 h        0.803     0.351     0.585     1.202
   520   8 o        1.608    -0.676    27.070     7.022
   521   1 h        0.803     0.352     0.584     1.201
   522   1 h        0.804     0.320     0.664     1.280
   523   8 o        1.609    -0.682    27.245     7.045
   524   1 h        0.804     0.332     0.633     1.250
   525   1 h        0.804     0.341     0.610     1.226
   526   8 o        1.609    -0.631    25.940     6.874
   527   1 h        0.804     0.343     0.606     1.223
   528   1 h        0.805     0.318     0.670     1.286
   529   8 o        1.611    -0.646    26.301     6.922
   530   1 h        0.805     0.315     0.677     1.293
   531   1 h        0.805     0.321     0.660     1.276

 Mol. C6AA /au·bohr⁶  :    1428474.910658
 Mol. C8AA /au·bohr⁸  :   25903041.422858
 Mol. α(0) /au        :       1680.086501


Wiberg/Mayer (AO) data.
largest (>0.10) Wiberg bond orders for each atom

 ---------------------------------------------------------------------------
     #   Z sym  total        # sym  WBO       # sym  WBO       # sym  WBO
 ---------------------------------------------------------------------------
     1   8 o    1.853 --     2 h    0.840     3 h    0.835
     2   1 h    0.885 --     1 o    0.840
     3   1 h    0.891 --     1 o    0.835
     4   8 o    1.864 --     6 h    0.839     5 h    0.820
     5   1 h    0.879 --     4 o    0.820
     6   1 h    0.888 --     4 o    0.839
     7   8 o    1.864 --     8 h    0.848     9 h    0.827
     8   1 h    0.884 --     7 o    0.848
     9   1 h    0.885 --     7 o    0.827
    10   8 o    1.819 --    12 h    0.842    11 h    0.826
    11   1 h    0.888 --    10 o    0.826
    12   1 h    0.893 --    10 o    0.842
    13   8 o    1.886 --    15 h    0.834    14 h    0.818
    14   1 h    0.882 --    13 o    0.818
    15   1 h    0.885 --    13 o    0.834
    16   8 o    1.863 --    18 h    0.829    17 h    0.802
    17   1 h    0.868 --    16 o    0.802
    18   1 h    0.893 --    16 o    0.829
    19   8 o    1.819 --    21 h    0.821    20 h    0.819
    20   1 h    0.886 --    19 o    0.819
    21   1 h    0.886 --    19 o    0.821
    22   8 o    1.879 --    24 h    0.819    23 h    0.818
    23   1 h    0.872 --    22 o    0.818
    24   1 h    0.875 --    22 o    0.819
    25   8 o    1.844 --    27 h    0.832    26 h    0.806
    26   1 h    0.886 --    25 o    0.806
    27   1 h    0.891 --    25 o    0.832
    28   8 o    1.850 --    29 h    0.830    30 h    0.792
    29   1 h    0.888 --    28 o    0.830
    30   1 h    0.871 --    28 o    0.792
    31   8 o    1.851 --    32 h    0.837    33 h    0.824
    32   1 h    0.885 --    31 o    0.837
    33   1 h    0.885 --    31 o    0.824
    34   8 o    1.872 --    36 h    0.845    35 h    0.813
    35   1 h    0.880 --    34 o    0.813
    36   1 h    0.894 --    34 o    0.845
    37   8 o    1.795 --    38 h    0.844    39 h    0.837
    38   1 h    0.894 --    37 o    0.844
    39   1 h    0.893 --    37 o    0.837
    40   8 o    1.868 --    42 h    0.819    41 h    0.809
    41   1 h    0.879 --    40 o    0.809
    42   1 h    0.879 --    40 o    0.819
    43   8 o    1.856 --    45 h    0.854    44 h    0.837
    44   1 h    0.889 --    43 o    0.837
    45   1 h    0.890 --    43 o    0.854
    46   8 o    1.831 --    48 h    0.879    47 h    0.824
    47   1 h    0.877 --    46 o    0.824
    48   1 h    0.898 --    46 o    0.879
    49   8 o    1.866 --    50 h    0.871    51 h    0.807
    50   1 h    0.898 --    49 o    0.871
    51   1 h    0.867 --    49 o    0.807
    52   8 o    1.894 --    54 h    0.849    53 h    0.790
    53   1 h    0.866 --    52 o    0.790
    54   1 h    0.892 --    52 o    0.849
    55   8 o    1.874 --    57 h    0.833    56 h    0.806
    56   1 h    0.879 --    55 o    0.806
    57   1 h    0.890 --    55 o    0.833
    58   8 o    1.826 --    60 h    0.856    59 h    0.829
    59   1 h    0.881 --    58 o    0.829
    60   1 h    0.898 --    58 o    0.856
    61   8 o    1.849 --    63 h    0.897    62 h    0.814
    62   1 h    0.872 --    61 o    0.814
    63   1 h    0.902 --    61 o    0.897
    64   8 o    1.857 --    65 h    0.864    66 h    0.784
    65   1 h    0.899 --    64 o    0.864
    66   1 h    0.875 --    64 o    0.784
    67   8 o    1.790 --    69 h    0.833    68 h    0.822
    68   1 h    0.883 --    67 o    0.822
    69   1 h    0.890 --    67 o    0.833
    70   8 o    1.843 --    72 h    0.802    71 h    0.800
    71   1 h    0.876 --    70 o    0.800
    72   1 h    0.892 --    70 o    0.802
    73   8 o    1.846 --    74 h    0.817    75 h    0.806
    74   1 h    0.886 --    73 o    0.817
    75   1 h    0.875 --    73 o    0.806
    76   8 o    1.867 --    77 h    0.849    78 h    0.795
    77   1 h    0.885 --    76 o    0.849
    78   1 h    0.874 --    76 o    0.795
    79   8 o    1.891 --    81 h    0.839    80 h    0.782
    80   1 h    0.870 --    79 o    0.782
    81   1 h    0.885 --    79 o    0.839
    82   8 o    1.872 --    83 h    0.863    84 h    0.847
    83   1 h    0.890 --    82 o    0.863
    84   1 h    0.881 --    82 o    0.847
    85   8 o    1.868 --    87 h    0.866    86 h    0.801
    86   1 h    0.889 --    85 o    0.801
    87   1 h    0.889 --    85 o    0.866
    88   8 o    1.798 --    89 h    0.856    90 h    0.833
    89   1 h    0.894 --    88 o    0.856
    90   1 h    0.885 --    88 o    0.833
    91   8 o    1.833 --    92 h    0.856    93 h    0.827
    92   1 h    0.894 --    91 o    0.856
    93   1 h    0.885 --    91 o    0.827
    94   8 o    1.838 --    95 h    0.850    96 h    0.825
    95   1 h    0.889 --    94 o    0.850
    96   1 h    0.881 --    94 o    0.825
    97   8 o    1.840 --    99 h    0.844    98 h    0.840
    98   1 h    0.889 --    97 o    0.840
    99   1 h    0.887 --    97 o    0.844
   100   8 o    1.871 --   101 h    0.835   102 h    0.824
   101   1 h    0.886 --   100 o    0.835
   102   1 h    0.889 --   100 o    0.824
   103   8 o    1.870 --   105 h    0.851   104 h    0.824
   104   1 h    0.880 --   103 o    0.824
   105   1 h    0.896 --   103 o    0.851
   106   8 o    1.849 --   108 h    0.867   107 h    0.825
   107   1 h    0.881 --   106 o    0.825
   108   1 h    0.887 --   106 o    0.867
   109   8 o    1.889 --   110 h    0.830   111 h    0.819
   110   1 h    0.876 --   109 o    0.830
   111   1 h    0.888 --   109 o    0.819
   112   8 o    1.888 --   113 h    0.829   114 h    0.825
   113   1 h    0.883 --   112 o    0.829
   114   1 h    0.882 --   112 o    0.825
   115   8 o    1.841 --   116 h    0.823   117 h    0.803
   116   1 h    0.887 --   115 o    0.823
   117   1 h    0.877 --   115 o    0.803
   118   8 o    1.826 --   119 h    0.835   120 h    0.828
   119   1 h    0.886 --   118 o    0.835
   120   1 h    0.883 --   118 o    0.828
   121   8 o    1.861 --   122 h    0.843   123 h    0.780
   122   1 h    0.890 --   121 o    0.843
   123   1 h    0.868 --   121 o    0.780
   124   8 o    1.803 --   126 h    0.868   125 h    0.828
   125   1 h    0.888 --   124 o    0.828
   126   1 h    0.896 --   124 o    0.868
   127   8 o    1.871 --   128 h    0.883   129 h    0.797
   128   1 h    0.896 --   127 o    0.883
   129   1 h    0.881 --   127 o    0.797
   130   8 o    1.875 --   131 h    0.852   132 h    0.797
   131   1 h    0.883 --   130 o    0.852
   132   1 h    0.876 --   130 o    0.797
   133   8 o    1.827 --   135 h    0.818   134 h    0.809
   134   1 h    0.890 --   133 o    0.809
   135   1 h    0.882 --   133 o    0.818
   136   8 o    1.889 --   138 h    0.848   137 h    0.815
   137   1 h    0.886 --   136 o    0.815
   138   1 h    0.888 --   136 o    0.848
   139   8 o    1.829 --   141 h    0.880   140 h    0.797
   140   1 h    0.871 --   139 o    0.797
   141   1 h    0.899 --   139 o    0.880
   142   8 o    1.852 --   144 h    0.824   143 h    0.820
   143   1 h    0.882 --   142 o    0.820
   144   1 h    0.880 --   142 o    0.824
   145   8 o    1.851 --   146 h    0.821   147 h    0.798
   146   1 h    0.885 --   145 o    0.821
   147   1 h    0.873 --   145 o    0.798
   148   8 o    1.861 --   150 h    0.862   149 h    0.838
   149   1 h    0.882 --   148 o    0.838
   150   1 h    0.892 --   148 o    0.862
   151   8 o    1.903 --   152 h    0.817   153 h    0.815
   152   1 h    0.888 --   151 o    0.817
   153   1 h    0.880 --   151 o    0.815
   154   8 o    1.836 --   155 h    0.897   156 h    0.824
   155   1 h    0.903 --   154 o    0.897
   156   1 h    0.878 --   154 o    0.824
   157   8 o    1.848 --   159 h    0.838   158 h    0.836
   158   1 h    0.883 --   157 o    0.836
   159   1 h    0.890 --   157 o    0.838
   160   8 o    1.832 --   162 h    0.839   161 h    0.836
   161   1 h    0.890 --   160 o    0.836
   162   1 h    0.897 --   160 o    0.839
   163   8 o    1.832 --   164 h    0.849   165 h    0.822
   164   1 h    0.894 --   163 o    0.849
   165   1 h    0.885 --   163 o    0.822
   166   8 o    1.863 --   168 h    0.847   167 h    0.818
   167   1 h    0.886 --   166 o    0.818
   168   1 h    0.897 --   166 o    0.847
   169   8 o    1.831 --   170 h    0.863   171 h    0.849
   170   1 h    0.896 --   169 o    0.863
   171   1 h    0.890 --   169 o    0.849
   172   8 o    1.823 --   174 h    0.871   173 h    0.800
   173   1 h    0.874 --   172 o    0.800
   174   1 h    0.897 --   172 o    0.871
   175   8 o    1.863 --   177 h    0.842   176 h    0.839
   176   1 h    0.893 --   175 o    0.839
   177   1 h    0.892 --   175 o    0.842
   178   8 o    1.837 --   180 h    0.842   179 h    0.835
   179   1 h    0.893 --   178 o    0.835
   180   1 h    0.886 --   178 o    0.842
   181   8 o    1.816 --   183 h    0.838   182 h    0.837
   182   1 h    0.898 --   181 o    0.837
   183   1 h    0.888 --   181 o    0.838
   184   8 o    1.870 --   186 h    0.812   185 h    0.808   378 h    0.104
   185   1 h    0.884 --   184 o    0.808
   186   1 h    0.884 --   184 o    0.812
   187   8 o    1.832 --   189 h    0.845   188 h    0.841
   188   1 h    0.893 --   187 o    0.841
   189   1 h    0.894 --   187 o    0.845
   190   8 o    1.890 --   192 h    0.847   191 h    0.791
   191   1 h    0.866 --   190 o    0.791
   192   1 h    0.882 --   190 o    0.847
   193   8 o    1.838 --   195 h    0.850   194 h    0.798
   194   1 h    0.874 --   193 o    0.798
   195   1 h    0.891 --   193 o    0.850
   196   8 o    1.862 --   198 h    0.839   197 h    0.806
   197   1 h    0.884 --   196 o    0.806
   198   1 h    0.890 --   196 o    0.839
   199   8 o    1.837 --   201 h    0.809   200 h    0.796
   200   1 h    0.879 --   199 o    0.796
   201   1 h    0.885 --   199 o    0.809
   202   8 o    1.813 --   203 h    0.848   204 h    0.810
   203   1 h    0.894 --   202 o    0.848
   204   1 h    0.886 --   202 o    0.810
   205   8 o    1.873 --   206 h    0.834   207 h    0.796
   206   1 h    0.888 --   205 o    0.834
   207   1 h    0.884 --   205 o    0.796
   208   8 o    1.873 --   210 h    0.837   209 h    0.797
   209   1 h    0.873 --   208 o    0.797
   210   1 h    0.878 --   208 o    0.837
   211   8 o    1.837 --   213 h    0.841   212 h    0.808
   212   1 h    0.872 --   211 o    0.808
   213   1 h    0.888 --   211 o    0.841
   214   8 o    1.885 --   216 h    0.803   215 h    0.802
   215   1 h    0.877 --   214 o    0.802
   216   1 h    0.877 --   214 o    0.803
   217   8 o    1.821 --   219 h    0.843   218 h    0.829
   218   1 h    0.895 --   217 o    0.829
   219   1 h    0.887 --   217 o    0.843
   220   8 o    1.831 --   222 h    0.876   221 h    0.806
   221   1 h    0.874 --   220 o    0.806
   222   1 h    0.897 --   220 o    0.876
   223   8 o    1.841 --   224 h    0.884   225 h    0.849
   224   1 h    0.898 --   223 o    0.884
   225   1 h    0.884 --   223 o    0.849
   226   8 o    1.842 --   228 h    0.845   227 h    0.834
   227   1 h    0.873 --   226 o    0.834
   228   1 h    0.890 --   226 o    0.845
   229   8 o    1.829 --   230 h    0.842   231 h    0.834
   230   1 h    0.890 --   229 o    0.842
   231   1 h    0.893 --   229 o    0.834
   232   8 o    1.831 --   234 h    0.882   233 h    0.849
   233   1 h    0.886 --   232 o    0.849
   234   1 h    0.894 --   232 o    0.882
   235   8 o    1.851 --   237 h    0.830   236 h    0.803
   236   1 h    0.873 --   235 o    0.803
   237   1 h    0.890 --   235 o    0.830
   238   8 o    1.875 --   240 h    0.817   239 h    0.814
   239   1 h    0.870 --   238 o    0.814
   240   1 h    0.877 --   238 o    0.817
   241   8 o    1.832 --   243 h    0.861   242 h    0.821
   242   1 h    0.886 --   241 o    0.821
   243   1 h    0.892 --   241 o    0.861
   244   8 o    1.798 --   245 h    0.857   246 h    0.836
   245   1 h    0.898 --   244 o    0.857
   246   1 h    0.890 --   244 o    0.836
   247   8 o    1.803 --   248 h    0.835   249 h    0.829
   248   1 h    0.891 --   247 o    0.835
   249   1 h    0.886 --   247 o    0.829
   250   8 o    1.846 --   251 h    0.834   252 h    0.831
   251   1 h    0.887 --   250 o    0.834
   252   1 h    0.882 --   250 o    0.831
   253   8 o    1.843 --   254 h    0.836   255 h    0.831
   254   1 h    0.888 --   253 o    0.836
   255   1 h    0.885 --   253 o    0.831
   256   8 o    1.842 --   258 h    0.838   257 h    0.808
   257   1 h    0.876 --   256 o    0.808
   258   1 h    0.892 --   256 o    0.838
   259   8 o    1.889 --   261 h    0.829   260 h    0.798
   260   1 h    0.878 --   259 o    0.798
   261   1 h    0.882 --   259 o    0.829
   262   8 o    1.805 --   263 h    0.872   264 h    0.807
   263   1 h    0.897 --   262 o    0.872
   264   1 h    0.880 --   262 o    0.807
   265   8 o    1.822 --   266 h    0.890   267 h    0.831
   266   1 h    0.898 --   265 o    0.890
   267   1 h    0.879 --   265 o    0.831
   268   8 o    1.870 --   269 h    0.828   270 h    0.813
   269   1 h    0.873 --   268 o    0.828
   270   1 h    0.891 --   268 o    0.813
   271   8 o    1.847 --   273 h    0.856   272 h    0.832
   272   1 h    0.882 --   271 o    0.832
   273   1 h    0.890 --   271 o    0.856
   274   8 o    1.853 --   275 h    0.839   276 h    0.803
   275   1 h    0.898 --   274 o    0.839
   276   1 h    0.880 --   274 o    0.803
   277   8 o    1.811 --   279 h    0.898   278 h    0.798
   278   1 h    0.873 --   277 o    0.798
   279   1 h    0.905 --   277 o    0.898
   280   8 o    1.837 --   281 h    0.868   282 h    0.827
   281   1 h    0.890 --   280 o    0.868
   282   1 h    0.882 --   280 o    0.827
   283   8 o    1.836 --   285 h    0.877   284 h    0.790
   284   1 h    0.872 --   283 o    0.790
   285   1 h    0.896 --   283 o    0.877
   286   8 o    1.856 --   288 h    0.836   287 h    0.805
   287   1 h    0.871 --   286 o    0.805
   288   1 h    0.890 --   286 o    0.836
   289   8 o    1.863 --   290 h    0.872   291 h    0.774
   290   1 h    0.898 --   289 o    0.872
   291   1 h    0.876 --   289 o    0.774
   292   8 o    1.830 --   293 h    0.893   294 h    0.789
   293   1 h    0.900 --   292 o    0.893
   294   1 h    0.879 --   292 o    0.789
   295   8 o    1.860 --   297 h    0.823   296 h    0.816
   296   1 h    0.887 --   295 o    0.816
   297   1 h    0.872 --   295 o    0.823
   298   8 o    1.864 --   299 h    0.852   300 h    0.839
   299   1 h    0.891 --   298 o    0.852
   300   1 h    0.890 --   298 o    0.839
   301   8 o    1.835 --   302 h    0.894   303 h    0.821
   302   1 h    0.899 --   301 o    0.894
   303   1 h    0.881 --   301 o    0.821
   304   8 o    1.890 --   306 h    0.834   305 h    0.776
   305   1 h    0.867 --   304 o    0.776
   306   1 h    0.887 --   304 o    0.834
   307   8 o    1.814 --   308 h    0.853   309 h    0.835
   308   1 h    0.891 --   307 o    0.853
   309   1 h    0.886 --   307 o    0.835
   310   8 o    1.874 --   312 h    0.807   311 h    0.802
   311   1 h    0.871 --   310 o    0.802
   312   1 h    0.875 --   310 o    0.807
   313   8 o    1.861 --   314 h    0.897   315 h    0.782
   314   1 h    0.901 --   313 o    0.897
   315   1 h    0.874 --   313 o    0.782
   316   8 o    1.817 --   318 h    0.869   317 h    0.803
   317   1 h    0.881 --   316 o    0.803
   318   1 h    0.898 --   316 o    0.869
   319   8 o    1.835 --   321 h    0.886   320 h    0.848
   320   1 h    0.884 --   319 o    0.848
   321   1 h    0.900 --   319 o    0.886
   322   8 o    1.852 --   324 h    0.895   323 h    0.803
   323   1 h    0.880 --   322 o    0.803
   324   1 h    0.899 --   322 o    0.895
   325   8 o    1.862 --   326 h    0.866   327 h    0.810
   326   1 h    0.897 --   325 o    0.866
   327   1 h    0.872 --   325 o    0.810
   328   8 o    1.868 --   330 h    0.824   329 h    0.821
   329   1 h    0.886 --   328 o    0.821
   330   1 h    0.886 --   328 o    0.824
   331   8 o    1.867 --   332 h    0.806   333 h    0.795
   332   1 h    0.888 --   331 o    0.806
   333   1 h    0.878 --   331 o    0.795
   334   8 o    1.851 --   335 h    0.870   336 h    0.796
   335   1 h    0.898 --   334 o    0.870
   336   1 h    0.872 --   334 o    0.796
   337   8 o    1.811 --   339 h    0.872   338 h    0.812
   338   1 h    0.872 --   337 o    0.812
   339   1 h    0.901 --   337 o    0.872
   340   8 o    1.817 --   341 h    0.869   342 h    0.829
   341   1 h    0.894 --   340 o    0.869
   342   1 h    0.881 --   340 o    0.829
   343   8 o    1.845 --   345 h    0.828   344 h    0.807
   344   1 h    0.878 --   343 o    0.807
   345   1 h    0.896 --   343 o    0.828
   346   8 o    1.826 --   347 h    0.895   348 h    0.811
   347   1 h    0.907 --   346 o    0.895
   348   1 h    0.879 --   346 o    0.811
   349   8 o    1.857 --   351 h    0.838   350 h    0.813
   350   1 h    0.870 --   349 o    0.813
   351   1 h    0.889 --   349 o    0.838
   352   8 o    1.838 --   354 h    0.852   353 h    0.828
   353   1 h    0.890 --   352 o    0.828
   354   1 h    0.889 --   352 o    0.852
   355   8 o    1.873 --   356 h    0.864   357 h    0.808
   356   1 h    0.895 --   355 o    0.864
   357   1 h    0.883 --   355 o    0.808
   358   8 o    1.870 --   359 h    0.891   360 h    0.813
   359   1 h    0.901 --   358 o    0.891
   360   1 h    0.882 --   358 o    0.813
   361   8 o    1.839 --   363 h    0.864   362 h    0.835
   362   1 h    0.878 --   361 o    0.835
   363   1 h    0.890 --   361 o    0.864
   364   8 o    1.829 --   365 h    0.853   366 h    0.848
   365   1 h    0.888 --   364 o    0.853
   366   1 h    0.891 --   364 o    0.848
   367   8 o    1.829 --   369 h    0.869   368 h    0.800
   368   1 h    0.873 --   367 o    0.800
   369   1 h    0.894 --   367 o    0.869
   370   8 o    1.862 --   372 h    0.894   371 h    0.789
   371   1 h    0.877 --   370 o    0.789
   372   1 h    0.900 --   370 o    0.894
   373   8 o    1.848 --   375 h    0.827   374 h    0.808
   374   1 h    0.888 --   373 o    0.808
   375   1 h    0.885 --   373 o    0.827
   376   8 o    1.805 --   377 h    0.883   378 h    0.762
   377   1 h    0.901 --   376 o    0.883
   378   1 h    0.873 --   376 o    0.762   184 o    0.104
   379   8 o    1.871 --   381 h    0.841   380 h    0.816
   380   1 h    0.879 --   379 o    0.816
   381   1 h    0.890 --   379 o    0.841
   382   8 o    1.828 --   383 h    0.869   384 h    0.822
   383   1 h    0.892 --   382 o    0.869
   384   1 h    0.882 --   382 o    0.822
   385   8 o    1.819 --   387 h    0.839   386 h    0.788
   386   1 h    0.882 --   385 o    0.788
   387   1 h    0.891 --   385 o    0.839
   388   8 o    1.833 --   389 h    0.849   390 h    0.847
   389   1 h    0.885 --   388 o    0.849
   390   1 h    0.884 --   388 o    0.847
   391   8 o    1.827 --   392 h    0.865   393 h    0.840
   392   1 h    0.888 --   391 o    0.865
   393   1 h    0.887 --   391 o    0.840
   394   8 o    1.842 --   396 h    0.848   395 h    0.830
   395   1 h    0.882 --   394 o    0.830
   396   1 h    0.896 --   394 o    0.848
   397   8 o    1.870 --   398 h    0.861   399 h    0.822
   398   1 h    0.891 --   397 o    0.861
   399   1 h    0.883 --   397 o    0.822
   400   8 o    1.865 --   401 h    0.834   402 h    0.828
   401   1 h    0.883 --   400 o    0.834
   402   1 h    0.887 --   400 o    0.828
   403   8 o    1.778 --   405 h    0.835   404 h    0.827
   404   1 h    0.892 --   403 o    0.827
   405   1 h    0.893 --   403 o    0.835
   406   8 o    1.844 --   408 h    0.888   407 h    0.816
   407   1 h    0.876 --   406 o    0.816
   408   1 h    0.895 --   406 o    0.888
   409   8 o    1.825 --   411 h    0.858   410 h    0.802
   410   1 h    0.870 --   409 o    0.802
   411   1 h    0.899 --   409 o    0.858
   412   8 o    1.856 --   413 h    0.862   414 h    0.848
   413   1 h    0.893 --   412 o    0.862
   414   1 h    0.885 --   412 o    0.848
   415   8 o    1.834 --   417 h    0.867   416 h    0.803
   416   1 h    0.871 --   415 o    0.803
   417   1 h    0.896 --   415 o    0.867
   418   8 o    1.826 --   419 h    0.862   420 h    0.783
   419   1 h    0.896 --   418 o    0.862
   420   1 h    0.872 --   418 o    0.783
   421   8 o    1.818 --   422 h    0.865   423 h    0.792
   422   1 h    0.895 --   421 o    0.865
   423   1 h    0.874 --   421 o    0.792
   424   8 o    1.832 --   426 h    0.892   425 h    0.860
   425   1 h    0.887 --   424 o    0.860
   426   1 h    0.900 --   424 o    0.892
   427   8 o    1.870 --   428 h    0.798   429 h    0.789
   428   1 h    0.879 --   427 o    0.798
   429   1 h    0.869 --   427 o    0.789
   430   8 o    1.798 --   431 h    0.899   432 h    0.795
   431   1 h    0.903 --   430 o    0.899
   432   1 h    0.874 --   430 o    0.795
   433   8 o    1.819 --   435 h    0.898   434 h    0.814
   434   1 h    0.877 --   433 o    0.814
   435   1 h    0.903 --   433 o    0.898
   436   8 o    1.796 --   437 h    0.865   438 h    0.839
   437   1 h    0.899 --   436 o    0.865
   438   1 h    0.886 --   436 o    0.839
   439   8 o    1.851 --   441 h    0.887   440 h    0.822
   440   1 h    0.880 --   439 o    0.822
   441   1 h    0.899 --   439 o    0.887
   442   8 o    1.835 --   443 h    0.889   444 h    0.788
   443   1 h    0.902 --   442 o    0.889
   444   1 h    0.872 --   442 o    0.788
   445   8 o    1.850 --   447 h    0.865   446 h    0.788
   446   1 h    0.873 --   445 o    0.788
   447   1 h    0.892 --   445 o    0.865
   448   8 o    1.872 --   449 h    0.837   450 h    0.831
   449   1 h    0.886 --   448 o    0.837
   450   1 h    0.875 --   448 o    0.831
   451   8 o    1.823 --   452 h    0.859   453 h    0.849
   452   1 h    0.890 --   451 o    0.859
   453   1 h    0.889 --   451 o    0.849
   454   8 o    1.803 --   455 h    0.843   456 h    0.826
   455   1 h    0.889 --   454 o    0.843
   456   1 h    0.883 --   454 o    0.826
   457   8 o    1.855 --   459 h    0.857   458 h    0.798
   458   1 h    0.872 --   457 o    0.798
   459   1 h    0.893 --   457 o    0.857
   460   8 o    1.829 --   462 h    0.867   461 h    0.817
   461   1 h    0.872 --   460 o    0.817
   462   1 h    0.894 --   460 o    0.867
   463   8 o    1.862 --   464 h    0.848   465 h    0.811
   464   1 h    0.896 --   463 o    0.848
   465   1 h    0.886 --   463 o    0.811
   466   8 o    1.823 --   467 h    0.898   468 h    0.807
   467   1 h    0.902 --   466 o    0.898
   468   1 h    0.875 --   466 o    0.807
   469   8 o    1.847 --   471 h    0.858   470 h    0.857
   470   1 h    0.894 --   469 o    0.857
   471   1 h    0.893 --   469 o    0.858
   472   8 o    1.858 --   473 h    0.865   474 h    0.788
   473   1 h    0.887 --   472 o    0.865
   474   1 h    0.874 --   472 o    0.788
   475   8 o    1.829 --   476 h    0.900   477 h    0.793
   476   1 h    0.905 --   475 o    0.900
   477   1 h    0.880 --   475 o    0.793
   478   8 o    1.814 --   480 h    0.843   479 h    0.838
   479   1 h    0.893 --   478 o    0.838
   480   1 h    0.885 --   478 o    0.843
   481   8 o    1.854 --   482 h    0.837   483 h    0.818
   482   1 h    0.894 --   481 o    0.837
   483   1 h    0.887 --   481 o    0.818
   484   8 o    1.874 --   486 h    0.856   485 h    0.818
   485   1 h    0.873 --   484 o    0.818
   486   1 h    0.893 --   484 o    0.856
   487   8 o    1.877 --   488 h    0.818   489 h    0.805
   488   1 h    0.885 --   487 o    0.818
   489   1 h    0.880 --   487 o    0.805
   490   8 o    1.873 --   492 h    0.840   491 h    0.817
   491   1 h    0.885 --   490 o    0.817
   492   1 h    0.889 --   490 o    0.840
   493   8 o    1.845 --   495 h    0.860   494 h    0.814
   494   1 h    0.875 --   493 o    0.814
   495   1 h    0.896 --   493 o    0.860
   496   8 o    1.843 --   497 h    0.867   498 h    0.815
   497   1 h    0.894 --   496 o    0.867
   498   1 h    0.873 --   496 o    0.815
   499   8 o    1.868 --   500 h    0.861   501 h    0.833
   500   1 h    0.890 --   499 o    0.861
   501   1 h    0.882 --   499 o    0.833
   502   8 o    1.874 --   503 h    0.843   504 h    0.811
   503   1 h    0.887 --   502 o    0.843
   504   1 h    0.869 --   502 o    0.811
   505   8 o    1.872 --   507 h    0.819   506 h    0.788
   506   1 h    0.880 --   505 o    0.788
   507   1 h    0.882 --   505 o    0.819
   508   8 o    1.828 --   510 h    0.884   509 h    0.819
   509   1 h    0.881 --   508 o    0.819
   510   1 h    0.900 --   508 o    0.884
   511   8 o    1.827 --   513 h    0.835   512 h    0.782
   512   1 h    0.875 --   511 o    0.782
   513   1 h    0.898 --   511 o    0.835
   514   8 o    1.847 --   515 h    0.868   516 h    0.866
   515   1 h    0.889 --   514 o    0.868
   516   1 h    0.886 --   514 o    0.866
   517   8 o    1.847 --   518 h    0.846   519 h    0.814
   518   1 h    0.888 --   517 o    0.846
   519   1 h    0.877 --   517 o    0.814
   520   8 o    1.831 --   522 h    0.858   521 h    0.825
   521   1 h    0.876 --   520 o    0.825
   522   1 h    0.898 --   520 o    0.858
   523   8 o    1.819 --   524 h    0.851   525 h    0.829
   524   1 h    0.890 --   523 o    0.851
   525   1 h    0.884 --   523 o    0.829
   526   8 o    1.856 --   528 h    0.890   527 h    0.854
   527   1 h    0.883 --   526 o    0.854
   528   1 h    0.899 --   526 o    0.890
   529   8 o    1.812 --   530 h    0.889   531 h    0.866
   530   1 h    0.901 --   529 o    0.889
   531   1 h    0.897 --   529 o    0.866
 ---------------------------------------------------------------------------

Topologies differ in total number of bonds
Writing topology from bond orders to xtbtopo.mol

molecular dipole:
                 x           y           z       tot (Debye)
 q only:       -5.734      -0.039      -0.381
   full:       -6.710      -0.261      -0.640      17.145
molecular quadrupole (traceless):
                xx          xy          yy          xz          yz          zz
 q only:       39.166     -18.642       5.139      20.549      11.906     -44.306
  q+dip:       36.117     -43.163      12.506      17.789      14.741     -48.623
   full:       36.373     -45.426      12.889      17.640      14.921     -49.262


           -------------------------------------------------
          | TOTAL ENERGY             -901.390828439520 Eh   |
          | GRADIENT NORM               0.104085353557 Eh/α |
          | HOMO-LUMO GAP               7.413255333346 eV   |
           -------------------------------------------------

------------------------------------------------------------------------
 * finished run on 2022/11/17 at 06:54:58.319     
------------------------------------------------------------------------
 total:
 * wall-time:     0 d,  0 h,  0 min,  9.143 sec
 *  cpu-time:     0 d,  0 h,  0 min, 14.207 sec
 * ratio c/w:     1.554 speedup
 SCF:
 * wall-time:     0 d,  0 h,  0 min,  8.456 sec
 *  cpu-time:     0 d,  0 h,  0 min, 13.103 sec
 * ratio c/w:     1.549 speedup

