531
 energy: -901.179665887874 gnorm: 0.015811928580 xtb: 6.5.1 (579679a)
o            1.32604816037314       -2.95249024647667       -0.82595511027054
h            0.89593660857764       -3.35423621600359       -0.05291487369054
h            1.31278943780347       -3.63808142806930       -1.51687440356879
o            1.37031214286627       -2.82247784503868        1.85469605912654
h            1.95072697751713       -2.04524598614802        1.79063085567050
h            0.68385245305404       -2.60811867182655        2.50158272541028
o            3.04695470311260        1.90885683450163        0.33971141958253
h            2.20017991177378        2.36391983688231        0.42568557190613
h            3.71370348835367        2.58498265907297        0.55239041205067
o            1.23866180958055       -1.15334760339558       -3.28547523498308
h            0.55214387327347       -0.47039028855863       -3.39300744350658
h            0.73635230838357       -1.98360328366731       -3.31247286987858
o           -5.95522907859114       -0.46330737681570        1.69288555993930
h           -6.10191772958213        0.26263501163360        2.33080022205529
h           -6.83848495994551       -0.76974712178526        1.43109568282715
o            4.36720918282305       -4.38309814844923       -2.26913736057614
h            4.07443812438561       -3.77367674318962       -2.98167823036882
h            4.64521900653045       -5.20538463045948       -2.71276112111783
o           -3.15294485427920       -0.79278912114734        2.14832838148460
h           -2.49648418738327       -1.50633076704686        2.26543022522000
h           -3.39244392245921       -0.45319837085335        3.02831271644214
o            4.26766354375867       -2.76322090623624        2.79111610324824
h            4.03230800939448       -2.94947974045578        1.86611857756706
h            3.60279370694337       -2.15211507943293        3.15165524429856
o           -1.53944743467433       -2.92390169692912        1.99250080874141
h           -2.25631073486609       -3.53410335911634        1.71507999937979
h           -1.12488014313712       -3.35904602195779        2.75719514789558
o           -0.16131005483412        3.37103332014554        3.41136756470349
h            0.05831160219004        4.19542328126115        2.94290065736642
h           -0.51957548439524        2.73954528643288        2.76114725592896
o           -1.25828233246000       -2.12898328357929       -0.58744275009902
h           -1.09111290516987       -2.51870132952255        0.28477995967913
h           -2.20661404057667       -1.92217268796640       -0.58213499439129
o            2.51661221601633        3.72190596969266        2.71796546133511
h            3.29153567052122        4.04530904028828        2.21264569471718
h            2.43974639004741        4.28126735099669        3.50450608436245
o            0.81817478149197        3.53603332563714        0.56310785225649
h            1.31795046022462        3.76203487456941        1.36392133705919
h           -0.07826233933910        3.88038561008931        0.69486269003279
o           -3.07260217503276        3.32069337451606        3.32388530411972
h           -3.53503503482959        2.66328160600832        2.76658868602406
h           -2.34336286148949        3.64268454044240        2.76042631839561
o           -1.38475655112647        4.90208709589895       -4.40306050749720
h           -2.15260660128729        4.67712967346961       -4.95398835438354
h           -0.59300328538300        4.69952894839127       -4.92428544483929
o           -3.06344029478280        7.06145680275878       -1.74093134138143
h           -3.30253940449996        6.18488166728474       -2.09065190763531
h           -2.33278283867110        7.38138298097703       -2.27978728558791
o           -4.03520934522488        4.84342129564165       -3.01253049230636
h           -4.01683441033003        4.96672807310169       -3.96740740781570
h           -3.80891416012027        3.90318648477408       -2.88014858538837
o           -0.58643610709228       -3.14627623219751       -2.94365674639614
h           -0.80545174237231       -2.72791717471197       -2.07728431507579
h           -0.51799690714156       -4.09093464115534       -2.74212165649390
o            3.61081634659918        1.31294362338899        3.12142514630355
h            3.16575778729026        2.17059214171888        2.96274762382488
h            3.70609531985948        1.21779396021644        4.08420345317986
o            5.32888194970191       -1.34167551132323        0.16340946133928
h            4.80822113000740       -1.24882385073763       -0.64872732241305
h            5.87863068879798       -2.12175648434946        0.01609363530713
o           -6.10068138319651        6.32916951669824       -2.01565948819280
h           -5.42056512319605        5.70709074541274       -2.34920036794785
h           -5.96501265708388        7.14816970131381       -2.49207778069211
o           -0.85914731369081        0.52147719891893       -3.41159662568189
h           -1.07710557756925        0.91283430050980       -4.26657923275915
h           -1.66564653846610        0.02361934080843       -3.13982035319682
o            6.09132247546507        3.76404126738348        4.21969213650927
h            6.43574845991016        3.80543490724318        3.30867694923085
h            6.45544367268311        2.91430643711937        4.52911633150178
o            8.38297569165206       -1.44961926980833        0.63532636805619
h            7.61671380974373       -1.58710254125338        1.23282539562230
h            9.15549167648040       -1.44264524005539        1.25119258811798
o           -5.93837493085511        3.04941883668377       -1.68459252200866
h           -5.81456466584171        3.10240545886804       -2.65371574299596
h           -5.87066305803719        2.09776242917593       -1.46060248198949
o            3.65871210855525       -1.31744822457119       -1.96870757594900
h            2.83726171876727       -1.74562710564610       -2.23480432926133
h            3.50792872244462       -0.35452262090866       -2.08292072765285
o           -5.14778707570331       -2.73477561787532        2.74172629283074
h           -5.36366437107485       -1.87788193637571        2.30265174266668
h           -4.49302918464990       -2.51357832819772        3.42373866985541
o           -3.49212376311116        2.12509232054015       -3.12211337313973
h           -2.90322661464711        2.05391039544399       -3.88098812553330
h           -4.20585524359323        1.49011182355199       -3.26748167635255
o           -5.84799317034031        3.02508052644200       -4.40644327588290
h           -6.72023811951625        3.46201621260437       -4.59100679035993
h           -5.98559181007454        2.07536598345367       -4.48452968413830
o            5.92472109392190       -0.84266962501979        5.70492193031430
h            6.68604095318879       -1.42665411173934        5.58243428847811
h            5.17805654209516       -1.44108850299986        5.87332083879047
o            4.72791182825846       -2.70598327494683       -6.53638931857279
h            5.35322125964410       -3.40442193594756       -6.28513016008422
h            5.25453574319951       -1.88553445326564       -6.44161523596599
o           -9.15787973335869       -4.35109904491769       -1.74183065039815
h           -9.24294259386674       -4.35017216930371       -0.77825859309554
h           -8.22801842572877       -4.57728760933246       -1.92614221509801
o           -2.43689144411228        1.97210808493349       -0.65864898349225
h           -2.87357359329818        1.77165912773072       -1.50345217671405
h           -2.05022995218589        2.84818990375341       -0.82234098330578
o            1.69490078425217       -5.05324948117443       -2.44957013973586
h            2.64408914758936       -4.95144050081986       -2.26149510888535
h            1.62236937308140       -5.11857515191351       -3.42399165833229
o            1.21676531941200        1.36367290878227        4.45975049523737
h            1.04928335315059        2.19989185760026        3.99041545178119
h            1.06559444753745        1.55222246458923        5.39919925867793
o            2.57409219458350       -7.75126675136010       -3.99177025625505
h            2.06797660543901       -7.87988206252791       -3.16549619551431
h            2.02675033766402       -7.18790823212715       -4.55135828533858
o            2.45213756439798       -1.13656847125262        4.10723222694291
h            2.26397330335543       -0.18861277810116        4.19229885135087
h            2.86636277746753       -1.42995873543250        4.94479959133594
o           -5.84945516040491       -3.11746980837039       -0.02580460250598
h           -6.08938936904430       -3.58858528306163       -0.84534847787102
h           -6.59771283578366       -2.54901168931001        0.21958926652736
o            5.73897939845452        1.20294825789403       -0.84078215379444
h            5.72124106769998        2.16688295846281       -0.96777330721261
h            5.76495074264486        1.04196532292926        0.12390258800493
o           -0.53997392050287        7.19632955904572       -3.22113625305234
h            0.40812226873559        7.01867056272824       -3.37375015659348
h           -0.97502148224049        6.48176622024063       -3.72263418252471
o            3.67747856891422       -3.51782407312659        0.21614310674677
h            4.08818681271007       -3.65832139079177       -0.64561421380204
h            2.76847721044858       -3.21975049778078        0.00008176259247
o            1.64360765861077       -0.36901321756403        7.07589238331968
h            1.09141239164181       -1.16768808276554        6.97175433238094
h            1.02522064438313        0.35649472092540        7.22159423910172
o            3.61878003446004       -2.23455214768497        6.23314798630667
h            3.11046058332056       -2.01449103690124        7.01647012573273
h            3.47771691214779       -3.19119841182978        6.03297800117828
o           -1.23028603365790        0.31019960592053        4.44291650059945
h           -1.91337875268208        0.79798016376573        3.97001540117347
h           -0.38002703614220        0.78883313701418        4.35239242899761
o            0.52669255483511        2.52368368076029       -2.32874201394601
h           -0.11867689348955        3.21905968074491       -2.08011729431297
h           -0.02142139411240        1.74105837026984       -2.51180644816210
o           -0.23970358306127        6.44715533715187       -0.68959516042132
h           -0.32631809702523        6.89015958685136       -1.56073605349949
h           -0.84559492174823        6.87672993359719       -0.07103175250962
o           -3.79459563374840       -6.92525582469499        2.01545247231208
h           -3.76156271921347       -5.98417249850602        1.73186637882267
h           -4.41450564633516       -6.94801827928329        2.74944949391414
o           -5.66659648286961        0.53882095930992       -0.83410964741390
h           -4.88603117298838       -0.03819851525601       -0.90059990174493
h           -5.90679409578517        0.46002785131978        0.10698104967438
o            8.47494645391948        2.73993766649650       -1.46215784224551
h            8.20843274674556        2.37179527155198       -2.32134342993278
h            8.18379375473165        2.10711911660785       -0.76669640186829
o           -2.17925910581469        1.64346180882470       -5.67680044772291
h           -2.87313228343897        0.99381817909630       -5.88338364485705
h           -1.46446404053119        1.48671823746645       -6.30712206004398
o           -8.60518032443679        1.34692357013651       -1.61287599226220
h           -9.19127911845990        2.07137010792461       -1.30254759395327
h           -9.16745183437076        0.54295089612686       -1.58311784772298
o           -0.00651136649575        1.93954592605485        6.82108204565993
h            0.20403118087042        2.80456683490075        7.17527749369896
h           -0.92679526421469        2.00377211679579        6.49598073192199
o           -7.87032656251406       -0.81364956591201       -4.67081536535558
h           -8.37496853009523       -1.37651097109136       -4.05501621458724
h           -8.39677114357197        0.00223229779281       -4.74536542713889
o           -3.97282526011272        0.70747413056245        4.18907147385021
h           -4.82506538624448        1.08799820825886        3.92329784650785
h           -4.02400313606468        0.61440444339743        5.15406041502140
o            7.60570444916499       -2.81183322832628        4.78348262890244
h            8.37907648251376       -3.15132509862937        4.30829149678938
h            6.92911840643681       -3.51735692136978        4.71515979984120
o            8.24132765159400        1.27411706649111        0.69423554909075
h            8.29044862803636        0.30184360989589        0.66909413092332
h            9.05746565147468        1.60791825392227        1.10249550461364
o           -8.35700419446177        3.31844802022438        3.61456145685182
h           -8.09794944409611        4.19487998791158        3.29829637969359
h           -9.11582185116057        3.02799901987136        3.08198717396247
o            0.11950406161282        0.49880831772187       -6.73655130300266
h            0.54901301966410        0.99377976450011       -6.00539503423725
h            0.82803184587782        0.00044290875916       -7.16060479776024
o           -0.85176479217553       -4.81497618798045        3.82875373527962
h           -1.72357078439194       -4.80658386805939        4.26330590536297
h           -0.88236343933696       -5.53563880891952        3.17955024581079
o            4.63359897430837        6.29609855986658       -0.72511317062636
h            5.23957087518792        6.64667313804100       -0.04450781747058
h            3.73468087540703        6.47710603647311       -0.40670898386684
o           -3.95024188320800        4.28459864068729       -0.10895430109130
h           -4.36152176085064        5.14005773442062        0.11008184708712
h           -4.47194818300582        3.89783518827018       -0.82331367331523
o           -7.95803042257753        1.14515646495582        0.94624835440964
h           -7.36893611873199        1.90380049237114        1.13765960545146
h           -8.07057223983622        1.13885886713995       -0.02387400828523
o           -5.23911170293079        6.55276745915346        0.58784573816120
h           -5.97665986780307        6.33510567844774        1.18771628770693
h           -5.61948753474048        6.65465011060099       -0.29971916609279
o           -6.29051491368445        3.18622657809124        1.08722267183064
h           -5.46144007870344        2.70586392295764        1.30477755024646
h           -6.22913523557935        3.38729408653684        0.14457588408684
o            7.44543294243444       -0.59048867011622       -1.84704053353713
h            6.87233300120538        0.11890198566849       -1.48735288130789
h            7.73148712909526       -1.07087757624691       -1.06025228143281
o            4.50305315442002        4.04910840503561        0.99468869571592
h            5.42770849373326        3.87639159655970        1.27009997246404
h            4.50786782597346        4.84240217723612        0.44061178442153
o            5.77039199194021       -1.93497911417848       -3.43502199890886
h            4.90825521452638       -1.78130299203601       -3.00197309808554
h            6.42952073388803       -1.54706758656745       -2.82266173122170
o            1.99913373702646        5.29003310010644        4.99922467498644
h            1.15917739905510        5.12953253879684        5.45997833853908
h            2.66685030257770        4.72129684727199        5.44520266880989
o           -3.78126612788518       -2.16255397566450        5.01062711132854
h           -4.63046349499906       -1.85157201471657        5.37395545922018
h           -3.09389464025763       -1.73266751464827        5.57251611449839
o           -4.08948544508967        1.75989094542257        1.40499555484861
h           -3.57901875804911        1.94039854677539        0.58660404717676
h           -3.91301508686198        0.84197079818462        1.65014955430398
o            6.22734461374536       -0.62163648892664       -5.77117530836724
h            5.92842500607816       -0.86336181009970       -4.87098855518380
h            6.17098344217433        0.34492836649857       -5.85903647621575
o           -3.61414951368987       -4.35231625560501        1.27816777501509
h           -4.26764145066091       -3.78400661153121        1.73877996428132
h           -3.70851557723456       -4.19647731456314        0.31466482380638
o            3.27422176642754       -3.02031732028385       -4.28160603626524
h            3.80618272037366       -2.84303969933109       -5.08386665523377
h            2.35450280115626       -2.84649714051046       -4.51907783753334
o            2.41013808529466       -1.15607515914286       -7.03895530254666
h            2.78562172365814       -0.69384316942719       -6.25901219130717
h            3.11761482275709       -1.73956455090828       -7.33434196344130
o           -5.77954585049073       -2.42984378126607       -5.49029976182601
h           -5.95582004843669       -3.37249997050925       -5.53370105219949
h           -6.62345395639540       -1.96400996048486       -5.37591224553848
o            8.51397812529822       -1.36227634781207       -4.40063234262229
h            8.18457471105901       -0.89111621332495       -3.61837681859766
h            7.83962572416233       -1.23302900560313       -5.08779507046934
o            6.69366858298085       -3.54009933386018       -0.94320022319266
h            5.91660179057518       -3.86144890694605       -1.42675742972942
h            7.41110459921961       -3.53971160269615       -1.60737343007262
o          -11.15720889116714       -2.06418125859136        0.54992068697983
h          -10.90280722396970       -1.63860947137456        1.38216432636693
h          -10.86821702657899       -2.97839516457311        0.60644692303557
o           -2.05707708955063       -0.95885502164021        6.62279030145691
h           -1.69137291447933       -0.37981822596180        5.92002270765770
h           -1.33805678935876       -1.57578736910308        6.85428061007973
o            3.19580747570233        0.03234087279937       -4.78232803590953
h            2.66654593860585       -0.50897683587837       -4.16521412136372
h            4.02395401306913        0.28070923695652       -4.33439058476802
o            2.16990708058217        6.09487511783559        0.39414800443191
h            1.32829374166490        6.28577021682484       -0.06135162800815
h            1.92163252811641        6.01720295264156        1.32235323131595
o            6.14157748840250        2.15577420659369       -6.00726310866402
h            5.33362012296222        2.45629660541223       -6.45114122748215
h            6.37823665794583        2.86502128819193       -5.38488583820626
o            3.01618304756718       -0.68163686705962        1.38310978527906
h            3.16773991550619        0.07588543615959        1.97883828770907
h            3.88559148950635       -0.90457918667571        0.99355446202085
o           -7.53034286065671       -1.22083037823504       -1.81694939392852
h           -6.85606564411459       -1.82751020774910       -2.16547604319326
h           -7.03772998706002       -0.40275231253358       -1.62660619358818
o           -8.24708007746004        4.02335880832473       -4.58992608126013
h           -8.71481051156542        3.17011007258644       -4.64063024205605
h           -8.36643656878669        4.33280229031525       -3.67233724349123
o            1.82155456210163        5.90619428284072       -3.52828407415609
h            2.01774458879953        5.28281200547627       -2.79627206387029
h            1.56197332828473        5.35553036492986       -4.29017615916982
o            5.87762296869125        0.96209691753940        1.85231827474739
h            4.99890199381637        1.12789343655716        2.25324002995103
h            6.06300907659160        0.00966904700313        1.92846059268296
o           11.02471439835946        1.89995724052772       -1.07604733916743
h           11.22714232887867        1.45638325018118       -1.90706249286830
h           10.12408075771757        2.26356427709341       -1.21619553996515
o            6.10148425412221        6.74746742058988        1.46707378768912
h            6.90126281232125        6.25922760778721        1.66959046530021
h            5.45238318574365        6.50953475886447        2.15544282122422
o            6.99708632203082        3.56344566719399        1.67160812341284
h            7.14138358204345        2.61664918873478        1.49707035220632
h            7.69062774088602        4.04413046439731        1.17347456242867
o            2.18541767934361       -7.13826866843226        0.76398783871921
h            3.07643732607692       -6.79115886153643        0.94285289272480
h            1.84484209164078       -7.46357149815181        1.60903529911866
o            6.61395227927718       -1.52441388476947        2.60663239756416
h            7.07227463435494       -1.81315723748075        3.41607526646678
h            5.75621952595476       -1.99426759797796        2.60746550198680
o            1.10414216386096       -7.34513067214061        3.34924788586666
h            1.44134312677668       -6.41823083683521        3.30625096245569
h            1.30147581985299       -7.65891594362808        4.23122826163924
o           -9.56657208824167       -3.33339409493755        3.44311410405773
h           -9.76123856678119       -2.39348496683956        3.36454534744713
h           -8.70931451017523       -3.40152655411645        3.90665159345236
o           -7.05048094347697       -3.40853242286617        4.47740639739922
h           -6.42459847514439       -3.13517947392720        3.76632681007125
h           -6.86721741097987       -2.83079632116715        5.22432442880258
o           -6.51678157269192       -5.35579663140491        1.32669022271339
h           -6.14626219976764       -4.49620519995540        1.04273008255880
h           -6.20237054006234       -5.51147370266151        2.23677886617829
o           -2.86651762245284       -3.11763187795550       -4.20342477561845
h           -2.59208853081388       -2.81265283165018       -5.07423087652766
h           -2.01389787085649       -3.22216616765670       -3.70683024319144
o            4.88130800622643       -6.52067019653125       -3.76040877672012
h            5.54871841840630       -7.20172430504525       -3.68236148776145
h            4.01614060499448       -7.00021703184053       -3.86851301499064
o           -5.57952057264846        0.26521447409405       -3.75624080300722
h           -6.44900322958057       -0.09856561275535       -4.03265561076192
h           -5.18670500229268       -0.43402692343248       -3.20568834028569
o            0.33692107654165       -5.11841303622859        0.47443787068302
h           -0.29486702244322       -5.50437042152086        1.09449376345603
h            1.09024166025054       -5.73523534770197        0.47762733878714
o            9.39463388219329       -3.75244051405982        2.89630244188973
h           10.12230120958243       -4.35462511719090        3.04813869660290
h            9.79750075681667       -2.88180324213479        2.68915261970816
o            2.31295388791109       -4.99035071101011        3.05531384613719
h            1.92702296271658       -4.21442909739771        2.58027324751007
h            3.10988000197456       -5.24962378635557        2.55806636366999
o           -5.58278732964545       -5.68846306994095        3.87613711458332
h           -6.25834205546924       -5.11575465717538        4.26908299432722
h           -4.73599346110834       -5.37567553416048        4.24057688787181
o           -3.84171435067722       -1.36116637071504       -0.33907041544218
h           -3.66753037003711       -1.09847656318660        0.58880080407286
h           -4.52143739811405       -2.06643218828249       -0.29029985096660
o           -3.27719195385198       -4.73002352556211        5.06511658327342
h           -3.13255582937077       -4.98168156781441        5.97734729053913
h           -3.46290115362213       -3.75496083402574        5.06015095593422
o            8.41499238698147       -3.65682442003070       -3.05415288774464
h            8.49198993073836       -2.83122780692711       -3.58848032117143
h            7.94355061872050       -4.25279104703873       -3.64930351832815
o            4.39390985394603        5.80880788217594        3.38236043549475
h            4.96248290869533        5.12799225053968        3.77433680082800
h            3.84936911436681        6.15731107514274        4.09023940691961
o           -8.37590300390812       -0.07111353590245        4.77245417132572
h           -8.89905114917206       -0.31895174640879        3.97509061560272
h           -8.90062087472666        0.57661530210356        5.24516386416886
o           -1.69372664966087        4.43389180483650        1.27035490614026
h           -1.67710405390335        5.39743726344136        1.33168271025065
h           -2.45297167912046        4.24907991038266        0.68409157893219
o          -10.48257428105766       -0.53659077261668       -1.57116483443195
h          -10.18966782133236       -1.19297796361883       -2.23571888397669
h          -10.77638264539909       -1.05286037161847       -0.79489701815162
o           -8.13622180354531       -1.72559543280430        0.67431969953844
h           -8.52021516941929       -2.62666839880566        0.77252087762782
h           -8.14734704241304       -1.50214397653531       -0.28644266462460
o           -9.20501254968619        1.51212791590895       -4.19762556595668
h          -10.15666478409461        1.55201881590809       -4.03658576739744
h           -8.81394439736838        1.47620014124232       -3.29192454478475
o            6.28149089032158       -4.24094773643757       -4.82838124223671
h            6.06411181918951       -3.45374570217147       -4.28665912559633
h            5.73961771209493       -4.97605067843665       -4.52027250822217
o            0.56517119626502       -5.16641201457537        6.16998872246680
h            1.52403928670429       -5.15029182377094        6.06391707710747
h            0.18324177199940       -5.05820970331396        5.27807700261557
o           -1.26562206147908       -5.33696435775194       -1.65319704262145
h           -0.66518871118558       -5.13404158407858       -0.90334568259031
h           -1.48706852493423       -6.28109237605849       -1.51871584599776
o           -2.41261523176473        7.09691315226946        0.85400325316831
h           -2.92664233097473        7.75442579986730        1.32086105095433
h           -2.81018208097940        7.04362438121316       -0.04560686836899
o            5.39285692426669        1.01879070677964       -3.48787637660503
h            5.33497507853681        0.97839895142708       -2.51817174127166
h            6.33405929124473        1.13317379396769       -3.69419311456371
o            0.81456096442768       -2.83178224757560       -5.62882264777414
h            1.30257197155138       -2.25966984875424       -6.25501338147831
h           -0.09279719369029       -2.50409938757684       -5.61425694162584
o           -1.17301284977114       -6.84305951022101        1.95066866232290
h           -0.61260818326387       -7.42503380262695        2.47990853212143
h           -2.12431740831191       -7.04513443987289        2.09724120102432
o            8.10350872648002        1.45774562755452       -3.79912791732823
h            8.19952438247220        1.85334023625273       -4.66657534134860
h            8.93434047719805        0.97779163808360       -3.59073199726225
o           10.11539714572311       -2.00063737408687       -1.47450212620025
h            9.48817734041451       -1.90646601782394       -0.73992599455164
h            9.79153514557009       -2.73800064437657       -2.00500372608175
o           -1.46620569336973       -7.81333361900187       -0.74328927203995
h           -1.33923414214974       -7.57923053242108        0.18850752801100
h           -0.58079835501531       -7.99825087054602       -1.10269390269531
o           -6.80431246521590        5.39533834473652        2.49735772880258
h           -6.60781686094595        4.56343936021739        2.01450436080023
h           -6.06509078069874        5.53015639752825        3.10534481129516
o           -9.71865835753147       -2.38652115518582       -3.36113675266343
h           -9.47267570075290       -3.10769706437675       -2.72379930369373
h          -10.38374032332714       -2.75932369789793       -3.93914658873764
o           -8.97679037535993       -4.21033923357707        1.03321651954098
h           -9.29975723469601       -4.04666589626206        1.95138982425597
h           -8.18301292150414       -4.77272628810036        1.14096496014472
o          -10.18403698315514        2.08017785110716        1.89461364312308
h          -10.60286424999729        2.56537378799201        1.17734717586913
h           -9.32718035575140        1.75778658811746        1.50701247498391
o            3.72662039225524        3.08374093909956       -3.99096079603059
h            4.49382444867596        2.48359761637929       -3.89715286353370
h            4.01193721618405        3.97874907546361       -3.74470547627707
o            9.70998304073640        0.88173161329538        3.59687841689241
h           10.00033722029785        1.65665883039999        3.10272747423792