      -----------------------------------------------------------      
     |                   =====================                   |     
     |                           x T B                           |     
     |                   =====================                   |     
     |                         S. Grimme                         |     
     |          Mulliken Center for Theoretical Chemistry        |     
     |                    University of Bonn                     |     
      -----------------------------------------------------------      

   * xtb version 6.5.1 (579679a) compiled by 'ehlert@majestix' on 2022-07-11

   xtb is free software: you can redistribute it and/or modify it under
   the terms of the GNU Lesser General Public License as published by
   the Free Software Foundation, either version 3 of the License, or
   (at your option) any later version.
   
   xtb is distributed in the hope that it will be useful,
   but WITHOUT ANY WARRANTY; without even the implied warranty of
   MERCHANTABILITY or FITNESS FOR A PARTICULAR PURPOSE.  See the
   GNU Lesser General Public License for more details.
   
   Cite this work as:
   * C. Bannwarth, E. Caldeweyher, S. Ehlert, A. Hansen, P. Pracht,
     J. Seibert, S. Spicher, S. Grimme, WIREs Comput. Mol. Sci., 2020, 11,
     e01493. DOI: 10.1002/wcms.1493
   
   for GFN2-xTB:
   * C. Bannwarth, S. Ehlert and S. Grimme., J. Chem. Theory Comput., 2019,
     15, 1652-1671. DOI: 10.1021/acs.jctc.8b01176
   for GFN1-xTB:
   * S. Grimme, C. Bannwarth, P. Shushkov, J. Chem. Theory Comput., 2017,
     13, 1989-2009. DOI: 10.1021/acs.jctc.7b00118
   for GFN0-xTB:
   * P. Pracht, E. Caldeweyher, S. Ehlert, S. Grimme, ChemRxiv, 2019, preprint.
     DOI: 10.26434/chemrxiv.8326202.v1
   for GFN-FF:
   * S. Spicher and S. Grimme, Angew. Chem. Int. Ed., 2020, 59, 15665-15673.
     DOI: 10.1002/anie.202004239
   
   for ALPB and GBSA implicit solvation:
   * S. Ehlert, M. Stahn, S. Spicher, S. Grimme, J. Chem. Theory Comput.,
     2021, 17, 4250-4261. DOI: 10.1021/acs.jctc.1c00471
   
   for DFT-D4:
   * E. Caldeweyher, C. Bannwarth and S. Grimme, J. Chem. Phys., 2017,
     147, 034112. DOI: 10.1063/1.4993215
   * E. Caldeweyher, S. Ehlert, A. Hansen, H. Neugebauer, S. Spicher,
     C. Bannwarth and S. Grimme, J. Chem. Phys., 2019, 150, 154122.
     DOI: 10.1063/1.5090222
   * E. Caldeweyher, J.-M. Mewes, S. Ehlert and S. Grimme, Phys. Chem. Chem. Phys.
     2020, 22, 8499-8512. DOI: 10.1039/D0CP00502A
   
   for sTDA-xTB:
   * S. Grimme and C. Bannwarth, J. Chem. Phys., 2016, 145, 054103.
     DOI: 10.1063/1.4959605
   
   in the mass-spec context:
   * V. Asgeirsson, C. Bauer and S. Grimme, Chem. Sci., 2017, 8, 4879.
     DOI: 10.1039/c7sc00601b
   * J. Koopman and S. Grimme, ACS Omega 2019, 4, 12, 15120-15133.
     DOI: 10.1021/acsomega.9b02011
   
   for metadynamics refer to:
   * S. Grimme, J. Chem. Theory Comput., 2019, 155, 2847-2862
     DOI: 10.1021/acs.jctc.9b00143
   
   for SPH calculations refer to:
   * S. Spicher and S. Grimme, J. Chem. Theory Comput., 2021, 17, 1701-1714
     DOI: 10.1021/acs.jctc.0c01306
   
   with help from (in alphabetical order)
   P. Atkinson, C. Bannwarth, F. Bohle, G. Brandenburg, E. Caldeweyher
   M. Checinski, S. Dohm, S. Ehlert, S. Ehrlich, I. Gerasimov, C. Hölzer
   A. Katbashev, J. Koopman, C. Lavigne, S. Lehtola, F. März, M. Müller,
   F. Musil, H. Neugebauer, J. Pisarek, C. Plett, P. Pracht, F. Pultar,
   J. Seibert, P. Shushkov, S. Spicher, M. Stahn, M. Steiner, T. Strunk,
   J. Stückrath, T. Rose, and J. Unsleber
   
 * started run on 2022/10/27 at 18:05:55.835     

           -------------------------------------------------
          |                Calculation Setup                |
           -------------------------------------------------

          program call               : xtb xtbopt.coord --gfn2 --sp --lmo
          hostname                   : cn0622
          coordinate file            : xtbopt.coord
          omp threads                :                    25

   ID    Z sym.   atoms
    1    1 h      1, 3, 5, 6, 8, 10-12, 14, 15, 17, 18, 20, 21, 23, 24, 26,
                  27, 29, 30, 32, 33, 35, 36, 38, 39, 41, 42, 44, 45, 47, 48,
                  50, 51, 53, 54, 56, 57, 59, 60, 62, 63, 65, 66, 68, 69, 71,
                  72, 74, 75, 77, 78, 80, 81, 83, 84, 86, 87, 89, 90, 92, 93,
                  95, 96, 98, 99, 101, 102, 104, 105, 107, 108, 110, 111,
                  113, 114, 116, 117, 119, 120, 122, 123, 125, 126, 128, 129,
                  131, 132, 134, 135, 137, 138, 140, 141, 143, 144, 146, 147,
                  149, 150, 152, 153, 155, 156, 158, 159, 161, 162, 164, 165
    2    6 c      2, 4
    3    8 o      7, 13, 16, 19, 22, 25, 28, 31, 34, 37, 40, 43, 46, 49, 52,
                  55, 58, 61, 64, 67, 70, 73, 76, 79, 82, 85, 88, 91, 94, 97,
                  100, 103, 106, 109, 112, 115, 118, 121, 124, 127, 130, 133,
                  136, 139, 142, 145, 148, 151, 154, 157, 160, 163
    4    7 n      9

molecular fragmentation (1/2 indicates fragments):
111111111111222222222222222222222222222222222222222222222222222222222222
222222222222222222222222222222222222222222222222222222222222222222222222
222222222222222222222
# atoms in fragment 1/2:    12   153
 fragment masses (1/2) :       62.09      918.78
CMA distance (Bohr)    :   0.965
constraining FC (au)   :  0.0500
########################################################################
[WARNING] Please study the warnings concerning your input carefully
-1- prog_main: Charge in sdf/mol input was overwritten
########################################################################

           -------------------------------------------------
          |                 G F N 2 - x T B                 |
           -------------------------------------------------

        Reference                      10.1021/acs.jctc.8b01176
      * Hamiltonian:
        H0-scaling (s, p, d)           1.850000    2.230000    2.230000
        zeta-weighting                 0.500000
      * Dispersion:
        s8                             2.700000
        a1                             0.520000
        a2                             5.000000
        s9                             5.000000
      * Repulsion:
        kExp                           1.500000    1.000000
        rExp                           1.000000
      * Coulomb:
        alpha                          2.000000
        third order                    shell-resolved
        anisotropic                    true
        a3                             3.000000
        a5                             4.000000
        cn-shift                       1.200000
        cn-exp                         4.000000
        max-rad                        5.000000


          ...................................................
          :                      SETUP                      :
          :.................................................:
          :  # basis functions                 330          :
          :  # atomic orbitals                 330          :
          :  # shells                          220          :
          :  # electrons                       434          :
          :  max. iterations                   250          :
          :  Hamiltonian                  GFN2-xTB          :
          :  restarted?                      false          :
          :  GBSA solvation                  false          :
          :  PC potential                    false          :
          :  electronic temp.          300.0000000     K    :
          :  accuracy                    1.0000000          :
          :  -> integral cutoff          0.2500000E+02      :
          :  -> integral neglect         0.1000000E-07      :
          :  -> SCF convergence          0.1000000E-05 Eh   :
          :  -> wf. convergence          0.1000000E-03 e    :
          :  Broyden damping             0.4000000          :
          ...................................................

 iter      E             dE          RMSdq      gap      omega  full diag
   1   -276.1369987 -0.276137E+03  0.408E+00    9.18       0.0  T
   2   -276.2280422 -0.910435E-01  0.240E+00    9.00       1.0  T
   3   -276.2352653 -0.722310E-02  0.373E-01    8.69       1.0  T
   4   -276.2369707 -0.170544E-02  0.101E-01    8.71       1.0  T
   5   -276.2371847 -0.214024E-03  0.416E-02    8.73       1.0  T
   6   -276.2372091 -0.243837E-04  0.165E-02    8.75       1.0  T
   7   -276.2372111 -0.195124E-05  0.385E-03    8.75       2.0  T
   8   -276.2372114 -0.357036E-06  0.854E-04    8.75       9.1  T
   9   -276.2372114 -0.642245E-08  0.216E-04    8.75      36.0  T

   *** convergence criteria satisfied after 9 iterations ***

         #    Occupation            Energy/Eh            Energy/eV
      -------------------------------------------------------------
         1        2.0000           -0.7719991             -21.0072
       ...           ...                  ...                  ...
       211        2.0000           -0.4922245             -13.3941
       212        2.0000           -0.4908443             -13.3566
       213        2.0000           -0.4905747             -13.3492
       214        2.0000           -0.4901306             -13.3371
       215        2.0000           -0.4866990             -13.2438
       216        2.0000           -0.4863204             -13.2335
       217        2.0000           -0.4736994             -12.8900 (HOMO)
       218                         -0.1520993              -4.1388 (LUMO)
       219                         -0.1318838              -3.5887
       220                         -0.1165218              -3.1707
       221                         -0.0976186              -2.6563
       222                         -0.0956593              -2.6030
       ...                                ...                  ...
       330                          0.3110450               8.4640
      -------------------------------------------------------------
                  HL-Gap            0.3216001 Eh            8.7512 eV
             Fermi-level           -0.3128993 Eh           -8.5144 eV
 
 localization/xTB-IFF output generation
 averaging CT terms over            1  occ. levels
 averaging CT terms over            1  virt. levels
 dipole moment from electron density (au)
     X       Y       Z   
   1.0900   1.5394  -1.1211  total (Debye):    5.577
cpu  time for init local    0.72 s
wall time for init local    0.03 s
 doing rotations ...
 initialization of trafo matrix to unity

 converged in     15 iterations, threshold :   0.99944285D-06
 doing transformations ...
 lmo centers(Z=2) and atoms on file <lmocent.coord>
 LMO Fii/eV  ncent    charge center   contributions...
    1 LP    -28.96   0.57   3.78668   2.18042   5.42460   25O :  1.32
    2 LP    -24.15   0.71  -9.31173   1.66601  -1.43380   58O :  1.19
    3 LP    -24.03   1.27   2.05720   0.92242   8.88644   25O :  0.80   27H :  0.37
    4 sigma -23.83   1.40  -1.06537  -1.82191  -1.06849    2C :  0.63    3H :  0.56
    5 LP    -23.78   0.73  -3.50385  -0.96247   4.57201   28O :  1.17
    6 LP    -23.50   0.72   0.42274  -7.08734  -6.54524  106O :  1.18
    7 LP    -22.37   0.78  16.51937   0.73268  -2.58141  160O :  1.13
    8 LP    -21.87   0.76  -0.39577  11.68649  -2.68450  142O :  1.15
    9 LP    -21.87   0.81   6.64716   6.72945   4.04169  157O :  1.11
   10 LP    -21.85   0.80  -9.62754   4.69589  -1.48544   58O :  1.12
   11 sigma -21.02   1.53  13.04721  -5.37413  -2.06031  148O :  0.72  149H :  0.37
   12 LP    -20.91   0.85   2.49207   5.45157  -2.17940   82O :  1.09
   13 sigma -20.35   1.64   3.65574   7.17922  -1.10761   82O :  0.69   83H :  0.37
   14 sigma -20.18   1.60  -4.66436  -2.42467  -6.02093   64O :  0.71   65H :  0.35
   15 sigma -20.15   1.55  10.65400  -3.91799   3.14722   91O :  0.73   93H :  0.33
   16 LP    -20.00   0.89   1.66616  -5.98905  -4.08869  106O :  1.06
   17 sigma -19.94   1.62  -8.25670   2.24086   4.30809   46O :  0.70   48H :  0.35
   18 LP    -19.91   0.88 -11.61695  -4.59831   2.39083   70O :  1.07
   19 LP    -19.90   0.86  14.47600  -5.25112  -0.20272  148O :  1.08
   20 LP    -19.85   0.92  12.22767   4.68241   1.46941   97O :  1.04
   21 LP    -19.71   0.88  13.20121   2.89301  -6.83182  151O :  1.07
   22 sigma -19.67   1.67  -2.98147   7.27287  -5.23798   67O :  0.68   69H :  0.36
   23 sigma -19.55   1.67   2.91118  -9.22402   2.09896  127O :  0.68  129H :  0.36
   24 sigma -19.52   1.61 -13.37377   3.21927   3.32735  145O :  0.71  146H :  0.34
   25 sigma -19.41   1.74 -13.35956  -5.26057   0.91846   70O :  0.66   72H :  0.38
   26 sigma -19.39   1.63   3.70988   4.10535   4.32357   49O :  0.72   51H :  0.32
   27 sigma -19.27   1.68  14.90787  -3.64776   2.98075  115O :  0.68  116H :  0.37
   28 sigma -19.22   1.75  15.24404   0.26707  -4.43045  160O :  0.67  162H :  0.35
   29 sigma -19.08   1.73   7.90159   8.05070   2.65715  157O :  0.68  159H :  0.33
   30 LP    -19.04   0.93   5.60927  -4.90856  -1.66518   94O :  1.04
   31 sigma -19.02   1.68  -0.35065   9.52905  -2.05560  142O :  0.68  144H :  0.36
   32 LP    -19.01   0.86 -16.24576   0.34694   1.22420  124O :  1.08
   33 LP    -18.99   0.92 -11.89209  -0.30715  -7.57092  133O :  1.04
   34 sigma -18.98   1.71  -0.23687  -0.82317  -6.09384   19O :  0.69   20H :  0.34
   35 sigma -18.97   1.69   4.46970  -9.14341   2.21514  127O :  0.69  128H :  0.35
   36 sigma -18.95   1.65  14.64586  -4.92620   2.13425  115O :  0.70  117H :  0.34
   37 sigma -18.82   1.79  14.69078   1.26417   1.67571  112O :  0.66  113H :  0.35
   38 sigma -18.79   1.68   7.68437   2.62633   1.22037   34O :  0.70   35H :  0.31
   39 sigma -18.75   1.72   1.79765   4.81720  -4.52313   37O :  0.69   39H :  0.33
   40 LP    -18.72   0.95  12.97670   4.50965  -2.60645  154O :  1.02
   41 sigma -18.66   1.78  11.12334   3.14471  -5.99626  151O :  0.67  153H :  0.34
   42 sigma -18.63   1.85   7.64026   8.83752   3.99875  157O :  0.64  158H :  0.37
   43 sigma -18.61   1.85  16.48317  -0.73207  -4.37447  160O :  0.64  161H :  0.37
   44 sigma -18.58   1.91   2.43187   0.27503  -0.00117    9N :  0.60    4C :  0.40
   45 sigma -18.57   1.79  15.26788   0.45337   0.43783  112O :  0.66  114H :  0.34
   46 sigma -18.55   1.70   9.55091  -3.91466   2.12142   91O :  0.70   92H :  0.32
   47 sigma -18.50   1.76  -0.80819  -7.82351  -2.96859  130O :  0.68  132H :  0.33
   48 sigma -18.49   1.83   7.09579  -7.25863   6.08983  163O :  0.64  164H :  0.37
   49 sigma -18.48   1.76  11.68957   3.92635   3.69273   97O :  0.68   99H :  0.33
   50 sigma -18.47   1.76  12.77433   5.59575  -0.57003  154O :  0.68  156H :  0.32
   51 sigma -18.46   1.85 -14.85417   1.68318  -5.08496  139O :  0.64  140H :  0.37
   52 sigma -18.43   1.88  13.82508   6.37681  -1.43122  154O :  0.63  155H :  0.37
   53 LP    -18.41   0.93  -7.73701   1.31160   6.30230   46O :  1.04
   54 LP    -18.41   0.96 -13.52864   1.62599   1.62217  124O :  1.02
   55 sigma -18.34   1.96  -2.44282  -0.23556  -0.00236    7O :  0.58    2C :  0.41
   56 sigma -18.30   1.83   8.91921   7.38488  -1.69223  118O :  0.66  120H :  0.34
   57 sigma -18.29   1.77   0.78945   0.30929  -6.20699   19O :  0.67   21H :  0.34
   58 sigma -18.27   1.71  -9.15708   3.14903  -3.18514   58O :  0.69   60H :  0.32
   59 sigma -18.20   1.79  -9.64915  -0.20361  -7.10945  133O :  0.67  134H :  0.33
   60 sigma -18.14   1.87  -0.98125  -9.15583  -2.15187  130O :  0.64  131H :  0.36
   61 sigma -18.12   1.78  -7.73526  -5.49809  -6.85240  136O :  0.67  138H :  0.33
   62 sigma -18.10   1.87  -6.66479  -6.25842  -7.72261  136O :  0.63  137H :  0.37
   63 sigma -18.09   1.84  -9.98420  -1.61821  -7.69782  133O :  0.65  135H :  0.35
   64 sigma -18.03   1.83  11.53662   5.45602   3.63030   97O :  0.65   98H :  0.34
   65 sigma -18.03   1.82  12.19230   3.63207  -4.97550  151O :  0.66  152H :  0.33
   66 sigma -18.02   1.85  -0.18802  -0.67923  10.11535  103O :  0.63  105H :  0.37
   67 sigma -18.01   1.83   6.94548   4.77666  -5.03926   76O :  0.65   77H :  0.34
   68 sigma -17.99   1.81 -13.57291   0.75293  -5.10602  139O :  0.67  141H :  0.33
   69 LP    -17.98   0.95  -7.31010   2.30543  -7.82259   61O :  1.03
   70 LP    -17.98   0.95   1.58655  -0.07280   8.62497  103O :  1.02
   71 sigma -17.97   1.78  -1.92350   5.15785   3.63105   52O :  0.67   54H :  0.34
   72 sigma -17.94   1.78  -1.43558  -6.40426   3.17767   31O :  0.67   32H :  0.33
   73 LP    -17.94   0.95   7.91787   4.31045  -7.03754   76O :  1.03
   74 sigma -17.93   1.78   6.50944  -4.77453  -6.53806  121O :  0.67  123H :  0.34
   75 LP    -17.89   0.96  -6.38661  -1.07338  -0.10579   22O :  1.02
   76 sigma -17.87   1.81   2.85579   6.36223  -0.05452   82O :  0.67   84H :  0.33
   77 sigma -17.85   1.77   7.87007   6.43448  -1.15533  118O :  0.69  119H :  0.30
   78 LP    -17.82   0.95   2.95772  -3.88685  -0.53645   94O :  1.03
   79 sigma -17.80   1.79  10.91543   0.28037  -2.66717   85O :  0.67   87H :  0.32
   80 LP    -17.79   0.97 -11.82608   2.96655   5.01813  145O :  1.02
   81 sigma -17.78   1.82   4.73232  -0.98320  -5.14345   73O :  0.66   75H :  0.34
   82 LP    -17.74   0.98  -3.02935  -8.11379  -2.51549  130O :  1.01
   83 sigma -17.74   1.80  11.34043  -0.18651  -1.27174   85O :  0.67   86H :  0.32
   84 sigma -17.74   1.75   8.04158   2.25477  -0.17244   34O :  0.69   36H :  0.30
   85 sigma -17.73   1.82   8.12167   0.91852   5.30545   88O :  0.66   90H :  0.33
   86 LP    -17.73   1.01  11.83220   1.36236  -4.64913  151O :  1.00
   87 LP    -17.73   0.98  -4.62925   5.82667  -6.10014   67O :  1.01
   88 sigma -17.69   1.84  -4.62283  -5.65611  -1.53028   43O :  0.66   44H :  0.34
   89 LP    -17.68   0.97   6.53202  -8.46389   4.14751  163O :  1.02
   90 sigma -17.63   1.81  -4.38615  -2.24011  -4.52871   64O :  0.67   66H :  0.32
   91 sigma -17.63   1.85   5.88652   4.18604  -6.01071   76O :  0.65   78H :  0.34
   92 sigma -17.62   1.82  -4.59174   5.68098   0.12935   40O :  0.66   41H :  0.33
   93 sigma -17.58   1.81  -5.99931   1.83235  -6.04368   61O :  0.67   63H :  0.33
   94 sigma -17.57   1.83  -4.11770  -0.16378  -0.00843    7O :  0.67    8H :  0.31
   95 sigma -17.56   1.76   7.78619  -4.96398  -1.75868   13O :  0.69   14H :  0.31
   96 LP    -17.53   0.97   2.73834   4.87980  -6.57387   37O :  1.02
   97 sigma -17.51   1.82   4.21874   0.49807  -0.00382    9N :  0.67   12H :  0.32
   98 sigma -17.51   1.86   1.27638  -5.04095  -6.19760  106O :  0.65  108H :  0.34
   99 sigma -17.51   1.87   7.09423  -6.19923  -6.23895  121O :  0.64  122H :  0.36
  100 LP    -17.50   0.99  -1.93110   3.01036   4.64847   52O :  1.00
  101 sigma -17.50   1.84   5.99859  -0.11726  -4.93458   73O :  0.66   74H :  0.34
  102 sigma -17.49   1.81  -0.73269   0.16060   8.88943  103O :  0.66  104H :  0.33
  103 sigma -17.46   1.85 -10.05432  -3.81972  -3.70051  100O :  0.65  102H :  0.34
  104 sigma -17.45   1.85  -0.70762  -6.88493   1.90053   31O :  0.66   33H :  0.34
  105 sigma -17.44   1.81  -8.78750   5.23276   0.92931   55O :  0.67   57H :  0.32
  106 sigma -17.43   1.85   3.63674  -0.83212  -0.82319    9N :  0.65   10H :  0.34
  107 sigma -17.42   1.86   4.43126   5.41635   3.99191   49O :  0.65   50H :  0.34
  108 sigma -17.41   1.82  -4.60257  -3.33682   3.99056   79O :  0.67   81H :  0.33
  109 sigma -17.40   1.80  -5.20362  -4.73918  -0.43073   43O :  0.68   45H :  0.31
  110 sigma -17.40   1.84  -5.96632   3.34471  -6.29642   61O :  0.66   62H :  0.33
  111 LP    -17.37   1.06   5.67230   2.07212   0.03366   34O :  0.97
  112 sigma -17.37   1.85   3.63473  -0.78868   0.86292    9N :  0.66   11H :  0.33
  113 sigma -17.37   1.82   3.87280  -0.08505   6.15445   25O :  0.67   26H :  0.32
  114 sigma -17.37   1.81   9.06977   0.06238   4.43961   88O :  0.67   89H :  0.32
  115 sigma -17.34   1.79   3.71550  -6.00879  -0.80405   94O :  0.68   96H :  0.32
  116 sigma -17.33   1.79  -3.20328   1.16227   5.48260   28O :  0.68   30H :  0.32
  117 sigma -17.31   1.81 -12.19344  -4.55230   0.13693   70O :  0.67   71H :  0.31
  118 sigma -17.31   1.85 -10.64387   3.00220  -2.78563   58O :  0.65   59H :  0.33
  119 sigma -17.31   1.83   2.39911  -6.10170  -6.28865  106O :  0.67  107H :  0.32
  120 sigma -17.30   1.83  -3.66255   4.50319  -0.20879   40O :  0.67   42H :  0.32
  121 sigma -17.30   1.89  -9.26331   5.93706   2.21987   55O :  0.64   56H :  0.35
  122 sigma -17.30   1.86  -4.53567   0.58395   5.98631   28O :  0.65   29H :  0.34
  123 sigma -17.29   1.81  -9.07744  -4.62375  -2.82547  100O :  0.67  101H :  0.32
  124 sigma -17.27   1.92 -13.89250   4.03850   4.56585  145O :  0.62  147H :  0.37
  125 LP    -17.26   0.99  10.28521   1.71979   5.45230   88O :  1.00
  126 sigma -17.25   1.85  -9.54809   1.78365   4.97226   46O :  0.66   47H :  0.33
  127 sigma -17.24   1.80   7.44109  -6.46584   4.79006  163O :  0.68  165H :  0.31
  128 sigma -17.23   1.90  -1.72112  10.18999  -1.60162  142O :  0.63  143H :  0.37
  129 sigma -17.23   1.88  -9.68646  -2.97422   5.34863  109O :  0.64  110H :  0.35
  130 sigma -17.23   1.85 -14.59349   0.55195  -0.25543  124O :  0.65  125H :  0.34
  131 LP    -17.21   1.04   8.30612   1.87439   3.13559   88O :  0.98
  132 sigma -17.20   1.84   3.92336  -4.12220   4.23241   16O :  0.66   18H :  0.32
  133 sigma -17.17   1.83   2.46242  -4.02749   3.80464   16O :  0.67   17H :  0.32
  134 sigma -17.16   1.87  -0.65247   5.03227   4.53665   52O :  0.65   53H :  0.34
  135 sigma -17.15   1.85   0.69016   4.78180  -5.57277   37O :  0.66   38H :  0.33
  136 sigma -17.13   1.82  -3.28475   6.13438  -4.25870   67O :  0.67   68H :  0.32
  137 sigma -17.07   1.86   3.34427  -5.42156  -2.17242   94O :  0.65   95H :  0.33
  138 sigma -17.07   1.86   8.84870  -3.93459  -2.09843   13O :  0.66   15H :  0.33
  139 sigma -17.00   1.90  14.19594  -4.33399  -2.34985  148O :  0.64  150H :  0.35
  140 LP    -16.99   1.01  -8.65669   0.06317   3.71397   46O :  0.99
  141 LP    -16.95   1.05   9.38569  -1.91902   3.42534   91O :  0.98
  142 sigma -16.88   1.87  -8.34352  -0.71597   1.10271   22O :  0.65   24H :  0.34
  143 sigma -16.82   1.84  -5.77852  -4.31166   3.97703   79O :  0.67   80H :  0.31
  144 LP    -16.81   1.02   1.36087   2.60768  -5.12322   37O :  0.99
  145 LP    -16.80   1.03  -5.91092  -4.08647  -7.15214  136O :  0.98
  146 sigma -16.77   1.87 -10.25084  -4.05926   4.36778  109O :  0.65  111H :  0.33
  147 sigma -16.72   1.88 -14.24344  -0.52240   0.82637  124O :  0.65  126H :  0.33
  148 LP    -16.70   0.98  15.52881  -5.50274   4.12087  115O :  1.01
  149 sigma -16.68   1.97  -1.06878  -1.77491   1.13182    2C :  0.53    1H :  0.47
  150 LP    -16.65   1.10   7.67490   4.62983  -0.15488   34O :  0.95
  151 sigma -16.61   1.87  -8.55023  -0.24560  -0.35188   22O :  0.65   23H :  0.33
  152 LP    -16.60   1.05   9.57255   7.51679   4.12455  157O :  0.98
  153 LP    -16.49   1.01 -12.50321   5.29484   3.21750  145O :  1.00
  154 LP    -16.49   1.07   3.73033  -2.56912   2.41518   16O :  0.97
  155 LP    -16.48   1.05  11.64538   7.11296  -1.81440  154O :  0.97
  156 sigma -16.41   2.07  -0.05364  -0.04649   0.00013    4C :  0.51    2C :  0.48
  157 LP    -16.40   1.02   5.75868   0.64179   7.23364   25O :  0.99
  158 LP    -16.38   1.07  -5.01158  -4.05927   1.76595   79O :  0.97
  159 LP    -16.32   1.04 -10.28474  -1.61336  -5.43547  133O :  0.98
  160 LP    -16.31   1.05  -2.76981  -0.02491   7.42063   28O :  0.98
  161 LP    -16.29   1.06  -2.40907  -1.77291  -5.72487   64O :  0.97
  162 LP    -16.28   1.06  -0.75399  -7.35093  -0.71483  130O :  0.97
  163 LP    -16.14   1.06  14.71858  -1.55628  -3.17209  160O :  0.97
  164 LP    -16.12   1.08 -11.20585  -5.05513  -2.13440  100O :  0.96
  165 LP    -16.10   1.03  -8.10103  -5.03005  -9.01616  136O :  0.98
  166 LP    -16.05   1.08   7.02344   7.41393  -2.93374  118O :  0.96
  167 LP    -16.03   1.07  -9.67275  -5.87030  -4.61099  100O :  0.97
  168 LP    -15.95   1.08   2.91956  -2.37157   5.40311   16O :  0.96
  169 LP    -15.94   1.07   6.91995   2.46642  -4.89097   76O :  0.97
  170 LP    -15.93   1.10   7.53238   8.39123  -0.19789  118O :  0.95
  171 LP    -15.93   1.07  15.26218  -0.89361   2.30119  112O :  0.97
  172 LP    -15.93   1.02 -10.24633  -4.84713   6.47176  109O :  0.99
  173 LP    -15.89   1.09  10.02839  -1.84414  -2.26017   85O :  0.96
  174 LP    -15.88   1.09  12.98820   0.10319   0.57047  112O :  0.96
  175 LP    -15.88   1.04  -0.15986  -8.21348   3.63111   31O :  0.98
  176 LP    -15.84   1.14   9.24003   0.95904  -1.08211   85O :  0.94
  177 sigma -15.80   2.08   0.83257   1.71331   1.01811    4C :  0.54    5H :  0.43
  178 LP    -15.78   1.09 -13.07347   2.62553  -3.89207  139O :  0.96
  179 LP    -15.77   1.07 -14.81191   0.26341  -3.24030  139O :  0.97
  180 sigma -15.77   2.09   0.83562   1.66925  -1.08783    4C :  0.54    6H :  0.43
  181 LP    -15.76   1.11  -7.77976   2.83341  -4.85421   61O :  0.95
  182 LP    -15.75   1.07   5.40645  -1.17918  -2.97832   73O :  0.97
  183 LP    -15.74   1.05  13.64002   4.90045   4.17035   97O :  0.98
  184 LP    -15.67   1.12   8.71426  -4.97014   4.09010   91O :  0.94
  185 LP    -15.60   1.09   1.67805  -1.37402  -4.94362   19O :  0.96
  186 LP    -15.59   1.09   1.51713   8.05350  -0.89901   82O :  0.96
  187 LP    -15.59   1.11  -5.07601  -0.17216  -5.43876   64O :  0.95
  188 LP    -15.57   1.07   2.21335   5.78565   4.44557   49O :  0.97
  189 LP    -15.56   1.09   3.52306   4.52583   2.05139   49O :  0.96
  190 LP    -15.55   1.10  -4.46282  -3.41601  -2.20441   43O :  0.95
  191 LP    -15.54   1.12  -3.48710   6.07178  -1.91348   40O :  0.94
  192 LP    -15.49   1.11  -7.89213  -4.34953   4.57952  109O :  0.95
  193 LP    -15.47   1.06  -1.88520   9.31673  -3.73167  142O :  0.97
  194 LP    -15.47   1.10  -6.91386  -5.23933  -1.92590   43O :  0.95
  195 LP    -15.46   1.08   9.46131  -5.95186  -2.88472   13O :  0.96
  196 LP    -15.46   1.11  -3.35534   1.35006  -1.44664    7O :  0.95
  197 LP    -15.40   1.11   5.27706  -5.95659   5.31766  163O :  0.95
  198 LP    -15.36   1.09  -7.40411   6.97781   1.34036   55O :  0.96
  199 LP    -15.36   1.10 -13.67374  -2.90724   0.83844   70O :  0.95
  200 LP    -15.31   1.10   6.58029  -2.30140  -5.55460   73O :  0.95
  201 LP    -15.30   1.11   4.73199  -6.30613  -6.59891  121O :  0.95
  202 LP    -15.29   1.12  -3.36013   1.35351   1.39052    7O :  0.95
  203 LP    -15.27   1.14  12.70819  -4.47294   3.43904  115O :  0.94
  204 LP    -15.26   1.12   0.67831  -5.35053   3.05650   31O :  0.94
  205 LP    -15.25   1.11  -2.49633   6.04138   0.98054   40O :  0.95
  206 LP    -15.24   1.11  -3.77738  -5.50353   4.19977   79O :  0.95
  207 LP    -15.11   1.13   9.33994  -4.90977  -0.07456   13O :  0.94
  208 LP    -15.10   1.13  -1.60468   5.43278  -5.68530   67O :  0.94
  209 LP    -15.09   1.11  -7.70291   4.34124   2.71541   55O :  0.95
  210 LP    -14.96   1.08   1.09969  -1.18161  -7.82267   19O :  0.96
  211 LP    -14.93   1.15   3.77251  -7.99777   0.26854  127O :  0.93
  212 LP    -14.73   1.10   3.87093 -10.95172   1.00841  127O :  0.95
  213 LP    -14.70   1.09  -2.38054   5.79977   5.69726   52O :  0.96
  214 LP    -14.68   1.10  -9.09886  -2.43124  -0.16893   22O :  0.95
  215 LP    -14.59   1.09  14.81954  -6.40706  -2.98815  148O :  0.96
  216 LP    -14.57   1.10   7.07799  -5.75936  -8.46424  121O :  0.95
  217 LP    -14.32   1.11  -0.11591   1.54560  10.51770  103O :  0.95
 files:
 coordprot.0/xtbscreen.xyz/xtblmoinfo/lmocent.coord
 with protonation site input, xtbdock and
 LMO center info written
 

 SCC (total)                   0 d,  0 h,  0 min,  0.637 sec
 SCC setup                      ...        0 min,  0.002 sec (  0.261%)
 Dispersion                     ...        0 min,  0.004 sec (  0.706%)
 classical contributions        ...        0 min,  0.001 sec (  0.120%)
 integral evaluation            ...        0 min,  0.014 sec (  2.242%)
 iterations                     ...        0 min,  0.221 sec ( 34.771%)
 molecular gradient             ...        0 min,  0.047 sec (  7.325%)
 printout                       ...        0 min,  0.347 sec ( 54.540%)

         :::::::::::::::::::::::::::::::::::::::::::::::::::::
         ::                     SUMMARY                     ::
         :::::::::::::::::::::::::::::::::::::::::::::::::::::
         :: total energy            -274.508301482196 Eh    ::
         :: gradient norm              0.042230965305 Eh/a0 ::
         :: HOMO-LUMO gap              8.751183159500 eV    ::
         ::.................................................::
         :: SCC energy              -276.237211437850 Eh    ::
         :: -> isotropic ES            1.562613543444 Eh    ::
         :: -> anisotropic ES         -0.323349209716 Eh    ::
         :: -> anisotropic XC         -0.025041412123 Eh    ::
         :: -> dispersion             -0.136009076861 Eh    ::
         :: repulsion energy           1.713669420017 Eh    ::
         :: add. restraining           0.000000000000 Eh    ::
         :: total charge               1.000000000000 e     ::
         :::::::::::::::::::::::::::::::::::::::::::::::::::::

           -------------------------------------------------
          |                Property Printout                |
           -------------------------------------------------

    * Orbital Energies and Occupations

         #    Occupation            Energy/Eh            Energy/eV
      -------------------------------------------------------------
         1        2.0000           -0.7719991             -21.0072
       ...           ...                  ...                  ...
       205        2.0000           -0.4988495             -13.5744
       206        2.0000           -0.4984649             -13.5639
       207        2.0000           -0.4980627             -13.5530
       208        2.0000           -0.4973421             -13.5334
       209        2.0000           -0.4950168             -13.4701
       210        2.0000           -0.4943158             -13.4510
       211        2.0000           -0.4922245             -13.3941
       212        2.0000           -0.4908443             -13.3566
       213        2.0000           -0.4905747             -13.3492
       214        2.0000           -0.4901306             -13.3371
       215        2.0000           -0.4866990             -13.2438
       216        2.0000           -0.4863204             -13.2335
       217        2.0000           -0.4736994             -12.8900 (HOMO)
       218                         -0.1520993              -4.1388 (LUMO)
       219                         -0.1318838              -3.5887
       220                         -0.1165218              -3.1707
       221                         -0.0976186              -2.6563
       222                         -0.0956593              -2.6030
       223                         -0.0904090              -2.4602
       224                         -0.0717298              -1.9519
       225                         -0.0676387              -1.8405
       226                         -0.0490774              -1.3355
       227                         -0.0465968              -1.2680
       228                         -0.0409896              -1.1154
       ...                                ...                  ...
       330                          0.3110450               8.4640
      -------------------------------------------------------------
                  HL-Gap            0.3216001 Eh            8.7512 eV
             Fermi-level           -0.3128993 Eh           -8.5144 eV

     #   Z          covCN         q      C6AA      α(0)
     1   1 h        0.923     0.071     2.075     2.253
     2   6 c        3.673     0.031    20.279     6.454
     3   1 h        0.923     0.061     2.182     2.310
     4   6 c        3.730    -0.071    21.955     6.689
     5   1 h        0.924     0.119     1.619     1.990
     6   1 h        0.924     0.116     1.645     2.006
     7   8 o        1.659    -0.496    22.808     6.447
     8   1 h        0.805     0.356     0.575     1.191
     9   7 n        3.483    -0.242    26.296     7.616
    10   1 h        0.859     0.292     0.738     1.346
    11   1 h        0.859     0.289     0.746     1.353
    12   1 h        0.860     0.295     0.728     1.336
    13   8 o        1.606    -0.681    27.213     7.040
    14   1 h        0.802     0.339     0.616     1.233
    15   1 h        0.804     0.328     0.644     1.260
    16   8 o        1.607    -0.661    26.692     6.973
    17   1 h        0.803     0.336     0.621     1.238
    18   1 h        0.804     0.332     0.633     1.250
    19   8 o        1.607    -0.675    27.049     7.019
    20   1 h        0.804     0.325     0.651     1.267
    21   1 h        0.804     0.323     0.655     1.271
    22   8 o        1.608    -0.663    26.734     6.978
    23   1 h        0.804     0.320     0.663     1.279
    24   1 h        0.804     0.319     0.667     1.283
    25   8 o        1.607    -0.663    26.754     6.981
    26   1 h        0.803     0.332     0.631     1.248
    27   1 h        0.803     0.333     0.630     1.247
    28   8 o        1.607    -0.649    26.396     6.934
    29   1 h        0.805     0.318     0.669     1.285
    30   1 h        0.803     0.342     0.608     1.225
    31   8 o        1.608    -0.654    26.513     6.949
    32   1 h        0.804     0.327     0.645     1.261
    33   1 h        0.804     0.324     0.654     1.270
    34   8 o        1.606    -0.685    27.318     7.054
    35   1 h        0.802     0.345     0.600     1.217
    36   1 h        0.804     0.347     0.596     1.212
    37   8 o        1.607    -0.673    27.009     7.014
    38   1 h        0.803     0.322     0.658     1.274
    39   1 h        0.804     0.327     0.645     1.261
    40   8 o        1.608    -0.651    26.452     6.941
    41   1 h        0.804     0.332     0.631     1.248
    42   1 h        0.803     0.343     0.605     1.222
    43   8 o        1.607    -0.659    26.645     6.967
    44   1 h        0.805     0.321     0.662     1.278
    45   1 h        0.802     0.343     0.605     1.222
    46   8 o        1.607    -0.658    26.624     6.964
    47   1 h        0.804     0.320     0.664     1.280
    48   1 h        0.803     0.329     0.640     1.257
    49   8 o        1.606    -0.673    27.004     7.013
    50   1 h        0.804     0.313     0.684     1.299
    51   1 h        0.802     0.336     0.622     1.239
    52   8 o        1.609    -0.644    26.254     6.915
    53   1 h        0.805     0.315     0.679     1.294
    54   1 h        0.804     0.320     0.664     1.280
    55   8 o        1.608    -0.642    26.211     6.910
    56   1 h        0.805     0.311     0.688     1.303
    57   1 h        0.803     0.338     0.618     1.235
    58   8 o        1.607    -0.658    26.614     6.963
    59   1 h        0.804     0.323     0.655     1.271
    60   1 h        0.803     0.335     0.625     1.242
    61   8 o        1.607    -0.659    26.645     6.967
    62   1 h        0.804     0.329     0.639     1.256
    63   1 h        0.803     0.334     0.628     1.245
    64   8 o        1.607    -0.659    26.647     6.967
    65   1 h        0.803     0.326     0.648     1.264
    66   1 h        0.803     0.341     0.609     1.226
    67   8 o        1.607    -0.645    26.300     6.921
    68   1 h        0.802     0.340     0.613     1.230
    69   1 h        0.805     0.314     0.681     1.296
    70   8 o        1.608    -0.620    25.662     6.837
    71   1 h        0.802     0.342     0.607     1.224
    72   1 h        0.806     0.289     0.756     1.366
    73   8 o        1.608    -0.652    26.465     6.943
    74   1 h        0.804     0.323     0.656     1.273
    75   1 h        0.804     0.331     0.634     1.251
    76   8 o        1.609    -0.644    26.276     6.918
    77   1 h        0.804     0.319     0.667     1.283
    78   1 h        0.804     0.325     0.651     1.268
    79   8 o        1.606    -0.668    26.877     6.997
    80   1 h        0.802     0.334     0.626     1.243
    81   1 h        0.804     0.333     0.631     1.248
    82   8 o        1.609    -0.647    26.335     6.926
    83   1 h        0.805     0.318     0.668     1.284
    84   1 h        0.804     0.341     0.610     1.227
    85   8 o        1.611    -0.658    26.618     6.963
    86   1 h        0.803     0.343     0.604     1.221
    87   1 h        0.803     0.333     0.631     1.247
    88   8 o        1.607    -0.659    26.641     6.966
    89   1 h        0.802     0.342     0.609     1.226
    90   1 h        0.804     0.329     0.640     1.257
    91   8 o        1.604    -0.680    27.199     7.039
    92   1 h        0.802     0.337     0.619     1.236
    93   1 h        0.802     0.336     0.622     1.239
    94   8 o        1.607    -0.673    27.002     7.013
    95   1 h        0.804     0.319     0.667     1.283
    96   1 h        0.803     0.333     0.630     1.247
    97   8 o        1.608    -0.644    26.260     6.916
    98   1 h        0.804     0.320     0.664     1.280
    99   1 h        0.804     0.339     0.615     1.232
   100   8 o        1.607    -0.647    26.338     6.926
   101   1 h        0.803     0.347     0.595     1.212
   102   1 h        0.804     0.327     0.645     1.262
   103   8 o        1.609    -0.617    25.598     6.828
   104   1 h        0.803     0.331     0.634     1.251
   105   1 h        0.806     0.282     0.778     1.385
   106   8 o        1.607    -0.650    26.427     6.938
   107   1 h        0.803     0.337     0.619     1.236
   108   1 h        0.805     0.327     0.646     1.262
   109   8 o        1.609    -0.623    25.739     6.847
   110   1 h        0.805     0.310     0.693     1.307
   111   1 h        0.804     0.328     0.643     1.260
   112   8 o        1.610    -0.611    25.446     6.808
   113   1 h        0.805     0.317     0.672     1.288
   114   1 h        0.805     0.324     0.654     1.270
   115   8 o        1.609    -0.621    25.698     6.842
   116   1 h        0.805     0.310     0.693     1.307
   117   1 h        0.803     0.329     0.639     1.256
   118   8 o        1.604    -0.681    27.206     7.040
   119   1 h        0.802     0.355     0.578     1.194
   120   1 h        0.804     0.315     0.678     1.293
   121   8 o        1.609    -0.624    25.758     6.850
   122   1 h        0.805     0.302     0.714     1.327
   123   1 h        0.804     0.329     0.639     1.256
   124   8 o        1.609    -0.639    26.134     6.900
   125   1 h        0.805     0.313     0.682     1.297
   126   1 h        0.804     0.324     0.654     1.270
   127   8 o        1.609    -0.620    25.676     6.839
   128   1 h        0.804     0.323     0.656     1.272
   129   1 h        0.805     0.317     0.673     1.289
   130   8 o        1.609    -0.624    25.769     6.851
   131   1 h        0.805     0.300     0.721     1.333
   132   1 h        0.803     0.340     0.612     1.229
   133   8 o        1.609    -0.630    25.921     6.871
   134   1 h        0.804     0.336     0.622     1.239
   135   1 h        0.805     0.315     0.677     1.292
   136   8 o        1.608    -0.621    25.707     6.843
   137   1 h        0.806     0.289     0.755     1.365
   138   1 h        0.803     0.334     0.626     1.243
   139   8 o        1.609    -0.612    25.484     6.813
   140   1 h        0.806     0.292     0.744     1.355
   141   1 h        0.804     0.338     0.618     1.235
   142   8 o        1.610    -0.615    25.553     6.823
   143   1 h        0.806     0.287     0.762     1.371
   144   1 h        0.804     0.318     0.670     1.286
   145   8 o        1.608    -0.628    25.863     6.864
   146   1 h        0.802     0.339     0.615     1.232
   147   1 h        0.806     0.278     0.792     1.397
   148   8 o        1.609    -0.625    25.803     6.856
   149   1 h        0.805     0.321     0.661     1.277
   150   1 h        0.805     0.309     0.693     1.308
   151   8 o        1.608    -0.634    26.013     6.884
   152   1 h        0.804     0.328     0.644     1.260
   153   1 h        0.805     0.328     0.642     1.258
   154   8 o        1.607    -0.636    26.057     6.889
   155   1 h        0.806     0.286     0.766     1.374
   156   1 h        0.802     0.347     0.597     1.214
   157   8 o        1.609    -0.619    25.641     6.834
   158   1 h        0.806     0.290     0.751     1.361
   159   1 h        0.803     0.334     0.629     1.245
   160   8 o        1.610    -0.607    25.354     6.796
   161   1 h        0.806     0.295     0.737     1.349
   162   1 h        0.804     0.329     0.641     1.257
   163   8 o        1.606    -0.637    26.094     6.894
   164   1 h        0.806     0.287     0.761     1.371
   165   1 h        0.802     0.341     0.610     1.227

 Mol. C6AA /au·bohr⁶  :     137360.391654
 Mol. C8AA /au·bohr⁸  :    2504218.244353
 Mol. α(0) /au        :        523.491454


Wiberg/Mayer (AO) data.
largest (>0.10) Wiberg bond orders for each atom

 ---------------------------------------------------------------------------
     #   Z sym  total        # sym  WBO       # sym  WBO       # sym  WBO
 ---------------------------------------------------------------------------
     1   1 h    0.995 --     2 c    0.953
     2   6 c    3.950 --     4 c    1.001     7 o    0.997     3 h    0.958
                             1 h    0.953
     3   1 h    0.996 --     2 c    0.958
     4   6 c    3.925 --     2 c    1.001     9 n    0.973     6 h    0.953
                             5 h    0.952
     5   1 h    0.986 --     4 c    0.952
     6   1 h    0.986 --     4 c    0.953
     7   8 o    1.950 --     2 c    0.997     8 h    0.796
     8   1 h    0.873 --     7 o    0.796
     9   7 n    3.597 --     4 c    0.973    10 h    0.855    11 h    0.835
                            12 h    0.802
    10   1 h    0.915 --     9 n    0.855
    11   1 h    0.916 --     9 n    0.835
    12   1 h    0.913 --     9 n    0.802
    13   8 o    1.855 --    15 h    0.847    14 h    0.793
    14   1 h    0.885 --    13 o    0.793
    15   1 h    0.893 --    13 o    0.847
    16   8 o    1.882 --    18 h    0.829    17 h    0.815
    17   1 h    0.887 --    16 o    0.815
    18   1 h    0.890 --    16 o    0.829
    19   8 o    1.807 --    21 h    0.844    20 h    0.831
    20   1 h    0.894 --    19 o    0.831
    21   1 h    0.895 --    19 o    0.844
    22   8 o    1.841 --    24 h    0.852    23 h    0.838
    23   1 h    0.897 --    22 o    0.838
    24   1 h    0.898 --    22 o    0.852
    25   8 o    1.867 --    27 h    0.832    26 h    0.827
    26   1 h    0.889 --    25 o    0.827
    27   1 h    0.889 --    25 o    0.832
    28   8 o    1.870 --    29 h    0.870    30 h    0.816
    29   1 h    0.899 --    28 o    0.870
    30   1 h    0.883 --    28 o    0.816
    31   8 o    1.853 --    33 h    0.853    32 h    0.835
    32   1 h    0.893 --    31 o    0.835
    33   1 h    0.895 --    31 o    0.853
    34   8 o    1.925 --    35 h    0.791    36 h    0.772
    35   1 h    0.881 --    34 o    0.791
    36   1 h    0.880 --    34 o    0.772    85 o    0.103
    37   8 o    1.830 --    39 h    0.835    38 h    0.831
    38   1 h    0.896 --    37 o    0.831
    39   1 h    0.893 --    37 o    0.835
    40   8 o    1.892 --    41 h    0.851    42 h    0.826
    41   1 h    0.890 --    40 o    0.851
    42   1 h    0.882 --    40 o    0.826
    43   8 o    1.869 --    44 h    0.857    45 h    0.805
    44   1 h    0.897 --    43 o    0.857
    45   1 h    0.882 --    43 o    0.805
    46   8 o    1.842 --    47 h    0.845    48 h    0.841
    47   1 h    0.898 --    46 o    0.845
    48   1 h    0.892 --    46 o    0.841
    49   8 o    1.829 --    50 h    0.857    51 h    0.806
    50   1 h    0.902 --    49 o    0.857
    51   1 h    0.887 --    49 o    0.806
    52   8 o    1.848 --    53 h    0.864    54 h    0.846
    53   1 h    0.901 --    52 o    0.864
    54   1 h    0.898 --    52 o    0.846
    55   8 o    1.855 --    56 h    0.881    57 h    0.826
    56   1 h    0.903 --    55 o    0.881
    57   1 h    0.886 --    55 o    0.826
    58   8 o    1.878 --    59 h    0.848    60 h    0.810
    59   1 h    0.895 --    58 o    0.848
    60   1 h    0.888 --    58 o    0.810
    61   8 o    1.867 --    62 h    0.842    63 h    0.826
    62   1 h    0.892 --    61 o    0.842
    63   1 h    0.888 --    61 o    0.826
    64   8 o    1.879 --    65 h    0.837    66 h    0.824
    65   1 h    0.894 --    64 o    0.837
    66   1 h    0.884 --    64 o    0.824
    67   8 o    1.875 --    69 h    0.875    68 h    0.814
    68   1 h    0.885 --    67 o    0.814
    69   1 h    0.901 --    67 o    0.875
    70   8 o    1.881 --    72 h    0.912    71 h    0.810
    71   1 h    0.883 --    70 o    0.810
    72   1 h    0.917 --    70 o    0.912
    73   8 o    1.853 --    74 h    0.853    75 h    0.846
    74   1 h    0.896 --    73 o    0.853
    75   1 h    0.890 --    73 o    0.846
    76   8 o    1.837 --    78 h    0.862    77 h    0.859
    77   1 h    0.898 --    76 o    0.859
    78   1 h    0.895 --    76 o    0.862
    79   8 o    1.871 --    81 h    0.836    80 h    0.807
    80   1 h    0.888 --    79 o    0.807
    81   1 h    0.889 --    79 o    0.836
    82   8 o    1.860 --    83 h    0.873    84 h    0.828
    83   1 h    0.899 --    82 o    0.873
    84   1 h    0.884 --    82 o    0.828
    85   8 o    1.912 --    86 h    0.822    87 h    0.817    36 h    0.103
    86   1 h    0.882 --    85 o    0.822
    87   1 h    0.889 --    85 o    0.817
    88   8 o    1.881 --    90 h    0.848    89 h    0.811
    89   1 h    0.883 --    88 o    0.811
    90   1 h    0.892 --    88 o    0.848
    91   8 o    1.904 --    92 h    0.806    93 h    0.789
    92   1 h    0.886 --    91 o    0.806
    93   1 h    0.887 --    91 o    0.789
    94   8 o    1.860 --    95 h    0.838    96 h    0.810
    95   1 h    0.898 --    94 o    0.838
    96   1 h    0.889 --    94 o    0.810
    97   8 o    1.861 --    98 h    0.865    99 h    0.836
    98   1 h    0.897 --    97 o    0.865
    99   1 h    0.885 --    97 o    0.836
   100   8 o    1.903 --   102 h    0.862   101 h    0.818
   101   1 h    0.879 --   100 o    0.818
   102   1 h    0.893 --   100 o    0.862
   103   8 o    1.848 --   105 h    0.916   104 h    0.835
   104   1 h    0.890 --   103 o    0.835
   105   1 h    0.920 --   103 o    0.916
   106   8 o    1.868 --   108 h    0.866   107 h    0.820
   107   1 h    0.886 --   106 o    0.820
   108   1 h    0.893 --   106 o    0.866
   109   8 o    1.877 --   110 h    0.888   111 h    0.846
   110   1 h    0.904 --   109 o    0.888
   111   1 h    0.893 --   109 o    0.846
   112   8 o    1.884 --   113 h    0.882   114 h    0.869
   113   1 h    0.900 --   112 o    0.882
   114   1 h    0.895 --   112 o    0.869
   115   8 o    1.899 --   116 h    0.881   117 h    0.839
   116   1 h    0.904 --   115 o    0.881
   117   1 h    0.892 --   115 o    0.839
   118   8 o    1.854 --   120 h    0.860   119 h    0.775
   119   1 h    0.874 --   118 o    0.775
   120   1 h    0.901 --   118 o    0.860
   121   8 o    1.861 --   122 h    0.898   123 h    0.847
   122   1 h    0.909 --   121 o    0.898
   123   1 h    0.891 --   121 o    0.847
   124   8 o    1.853 --   125 h    0.868   126 h    0.847
   125   1 h    0.902 --   124 o    0.868
   126   1 h    0.895 --   124 o    0.847
   127   8 o    1.879 --   129 h    0.877   128 h    0.863
   128   1 h    0.896 --   127 o    0.863
   129   1 h    0.900 --   127 o    0.877
   130   8 o    1.859 --   131 h    0.903   132 h    0.834
   131   1 h    0.910 --   130 o    0.903
   132   1 h    0.884 --   130 o    0.834
   133   8 o    1.857 --   135 h    0.882   134 h    0.848
   134   1 h    0.887 --   133 o    0.848
   135   1 h    0.901 --   133 o    0.882
   136   8 o    1.856 --   137 h    0.912   138 h    0.831
   137   1 h    0.916 --   136 o    0.912
   138   1 h    0.888 --   136 o    0.831
   139   8 o    1.866 --   140 h    0.908   141 h    0.839
   140   1 h    0.914 --   139 o    0.908
   141   1 h    0.886 --   139 o    0.839
   142   8 o    1.831 --   143 h    0.915   144 h    0.862
   143   1 h    0.918 --   142 o    0.915
   144   1 h    0.899 --   142 o    0.862
   145   8 o    1.844 --   147 h    0.917   146 h    0.815
   146   1 h    0.885 --   145 o    0.815
   147   1 h    0.923 --   145 o    0.917
   148   8 o    1.855 --   150 h    0.878   149 h    0.870
   149   1 h    0.897 --   148 o    0.870
   150   1 h    0.904 --   148 o    0.878
   151   8 o    1.878 --   153 h    0.863   152 h    0.852
   152   1 h    0.893 --   151 o    0.852
   153   1 h    0.892 --   151 o    0.863
   154   8 o    1.852 --   155 h    0.913   156 h    0.799
   155   1 h    0.918 --   154 o    0.913
   156   1 h    0.880 --   154 o    0.799
   157   8 o    1.865 --   158 h    0.911   159 h    0.830
   158   1 h    0.916 --   157 o    0.911
   159   1 h    0.889 --   157 o    0.830
   160   8 o    1.856 --   161 h    0.908   162 h    0.861
   161   1 h    0.913 --   160 o    0.908
   162   1 h    0.892 --   160 o    0.861
   163   8 o    1.860 --   164 h    0.909   165 h    0.789
   164   1 h    0.918 --   163 o    0.909
   165   1 h    0.884 --   163 o    0.789
 ---------------------------------------------------------------------------

Topologies differ in total number of bonds
Writing topology from bond orders to xtbtopo.mol

molecular dipole:
                 x           y           z       tot (Debye)
 q only:        1.655       0.875      -1.007
   full:        1.090       1.539      -1.121       5.577
molecular quadrupole (traceless):
                xx          xy          yy          xz          yz          zz
 q only:       90.393      42.394     -37.241      10.497       6.461     -53.152
  q+dip:      107.563      59.097     -42.924      10.773       8.578     -64.638
   full:      109.102      58.734     -42.913      10.452       8.328     -66.189


           -------------------------------------------------
          | TOTAL ENERGY             -274.508301482196 Eh   |
          | GRADIENT NORM               0.042230965305 Eh/α |
          | HOMO-LUMO GAP               8.751183159500 eV   |
           -------------------------------------------------

------------------------------------------------------------------------
 * finished run on 2022/10/27 at 18:05:56.564     
------------------------------------------------------------------------
 total:
 * wall-time:     0 d,  0 h,  0 min,  0.729 sec
 *  cpu-time:     0 d,  0 h,  0 min, 16.127 sec
 * ratio c/w:    22.120 speedup
 SCF:
 * wall-time:     0 d,  0 h,  0 min,  0.639 sec
 *  cpu-time:     0 d,  0 h,  0 min, 14.783 sec
 * ratio c/w:    23.147 speedup

