      -----------------------------------------------------------      
     |                   =====================                   |     
     |                           x T B                           |     
     |                   =====================                   |     
     |                         S. Grimme                         |     
     |          Mulliken Center for Theoretical Chemistry        |     
     |                    University of Bonn                     |     
      -----------------------------------------------------------      

   * xtb version 6.5.1 (579679a) compiled by 'ehlert@majestix' on 2022-07-11

   xtb is free software: you can redistribute it and/or modify it under
   the terms of the GNU Lesser General Public License as published by
   the Free Software Foundation, either version 3 of the License, or
   (at your option) any later version.
   
   xtb is distributed in the hope that it will be useful,
   but WITHOUT ANY WARRANTY; without even the implied warranty of
   MERCHANTABILITY or FITNESS FOR A PARTICULAR PURPOSE.  See the
   GNU Lesser General Public License for more details.
   
   Cite this work as:
   * C. Bannwarth, E. Caldeweyher, S. Ehlert, A. Hansen, P. Pracht,
     J. Seibert, S. Spicher, S. Grimme, WIREs Comput. Mol. Sci., 2020, 11,
     e01493. DOI: 10.1002/wcms.1493
   
   for GFN2-xTB:
   * C. Bannwarth, S. Ehlert and S. Grimme., J. Chem. Theory Comput., 2019,
     15, 1652-1671. DOI: 10.1021/acs.jctc.8b01176
   for GFN1-xTB:
   * S. Grimme, C. Bannwarth, P. Shushkov, J. Chem. Theory Comput., 2017,
     13, 1989-2009. DOI: 10.1021/acs.jctc.7b00118
   for GFN0-xTB:
   * P. Pracht, E. Caldeweyher, S. Ehlert, S. Grimme, ChemRxiv, 2019, preprint.
     DOI: 10.26434/chemrxiv.8326202.v1
   for GFN-FF:
   * S. Spicher and S. Grimme, Angew. Chem. Int. Ed., 2020, 59, 15665-15673.
     DOI: 10.1002/anie.202004239
   
   for ALPB and GBSA implicit solvation:
   * S. Ehlert, M. Stahn, S. Spicher, S. Grimme, J. Chem. Theory Comput.,
     2021, 17, 4250-4261. DOI: 10.1021/acs.jctc.1c00471
   
   for DFT-D4:
   * E. Caldeweyher, C. Bannwarth and S. Grimme, J. Chem. Phys., 2017,
     147, 034112. DOI: 10.1063/1.4993215
   * E. Caldeweyher, S. Ehlert, A. Hansen, H. Neugebauer, S. Spicher,
     C. Bannwarth and S. Grimme, J. Chem. Phys., 2019, 150, 154122.
     DOI: 10.1063/1.5090222
   * E. Caldeweyher, J.-M. Mewes, S. Ehlert and S. Grimme, Phys. Chem. Chem. Phys.
     2020, 22, 8499-8512. DOI: 10.1039/D0CP00502A
   
   for sTDA-xTB:
   * S. Grimme and C. Bannwarth, J. Chem. Phys., 2016, 145, 054103.
     DOI: 10.1063/1.4959605
   
   in the mass-spec context:
   * V. Asgeirsson, C. Bauer and S. Grimme, Chem. Sci., 2017, 8, 4879.
     DOI: 10.1039/c7sc00601b
   * J. Koopman and S. Grimme, ACS Omega 2019, 4, 12, 15120-15133.
     DOI: 10.1021/acsomega.9b02011
   
   for metadynamics refer to:
   * S. Grimme, J. Chem. Theory Comput., 2019, 155, 2847-2862
     DOI: 10.1021/acs.jctc.9b00143
   
   for SPH calculations refer to:
   * S. Spicher and S. Grimme, J. Chem. Theory Comput., 2021, 17, 1701-1714
     DOI: 10.1021/acs.jctc.0c01306
   
   with help from (in alphabetical order)
   P. Atkinson, C. Bannwarth, F. Bohle, G. Brandenburg, E. Caldeweyher
   M. Checinski, S. Dohm, S. Ehlert, S. Ehrlich, I. Gerasimov, C. Hölzer
   A. Katbashev, J. Koopman, C. Lavigne, S. Lehtola, F. März, M. Müller,
   F. Musil, H. Neugebauer, J. Pisarek, C. Plett, P. Pracht, F. Pultar,
   J. Seibert, P. Shushkov, S. Spicher, M. Stahn, M. Steiner, T. Strunk,
   J. Stückrath, T. Rose, and J. Unsleber
   
 * started run on 2022/10/27 at 18:05:53.704     

           -------------------------------------------------
          |                Calculation Setup                |
           -------------------------------------------------

          program call               : xtb xtbopt.coord --gfn2 --sp --gbsa water
          hostname                   : cn0622
          coordinate file            : xtbopt.coord
          omp threads                :                    25

   ID    Z sym.   atoms
    1    1 h      1, 3, 5, 6, 8, 10-12, 14, 15, 17, 18, 20, 21, 23, 24, 26,
                  27, 29, 30, 32, 33, 35, 36, 38, 39, 41, 42, 44, 45, 47, 48,
                  50, 51, 53, 54, 56, 57, 59, 60, 62, 63, 65, 66, 68, 69, 71,
                  72, 74, 75, 77, 78, 80, 81, 83, 84, 86, 87, 89, 90, 92, 93,
                  95, 96, 98, 99, 101, 102, 104, 105, 107, 108, 110, 111,
                  113, 114, 116, 117, 119, 120, 122, 123, 125, 126, 128, 129,
                  131, 132, 134, 135, 137, 138, 140, 141, 143, 144, 146, 147,
                  149, 150, 152, 153, 155, 156, 158, 159, 161, 162, 164, 165
    2    6 c      2, 4
    3    8 o      7, 13, 16, 19, 22, 25, 28, 31, 34, 37, 40, 43, 46, 49, 52,
                  55, 58, 61, 64, 67, 70, 73, 76, 79, 82, 85, 88, 91, 94, 97,
                  100, 103, 106, 109, 112, 115, 118, 121, 124, 127, 130, 133,
                  136, 139, 142, 145, 148, 151, 154, 157, 160, 163
    4    7 n      9

molecular fragmentation (1/2 indicates fragments):
111111111111222222222222222222222222222222222222222222222222222222222222
222222222222222222222222222222222222222222222222222222222222222222222222
222222222222222222222
# atoms in fragment 1/2:    12   153
 fragment masses (1/2) :       62.09      918.78
CMA distance (Bohr)    :   0.965
constraining FC (au)   :  0.0500
########################################################################
[WARNING] Please study the warnings concerning your input carefully
-1- prog_main: Charge in sdf/mol input was overwritten
########################################################################

           -------------------------------------------------
          |                 G F N 2 - x T B                 |
           -------------------------------------------------

        Reference                      10.1021/acs.jctc.8b01176
      * Hamiltonian:
        H0-scaling (s, p, d)           1.850000    2.230000    2.230000
        zeta-weighting                 0.500000
      * Dispersion:
        s8                             2.700000
        a1                             0.520000
        a2                             5.000000
        s9                             5.000000
      * Repulsion:
        kExp                           1.500000    1.000000
        rExp                           1.000000
      * Coulomb:
        alpha                          2.000000
        third order                    shell-resolved
        anisotropic                    true
        a3                             3.000000
        a5                             4.000000
        cn-shift                       1.200000
        cn-exp                         4.000000
        max-rad                        5.000000

      * Solvation model:               GBSA
        Solvent                        water
        Parameter file                 internal GFN2-xTB/GBSA
        Dielectric constant                8.0200E+01
        Reference state                gsolv [1 M gas/solution]
        Free energy shift                  1.8574E-03 Eh       1.1656E+00 kcal/mol
        Temperature                        2.9815E+02 K
        Density                            1.0000E+00 kg/L
        Solvent mass                       1.8000E+01 g/mol
        Interaction kernel             Still
        Born radius scaling (c1)           1.5524E+00
        Born radii integrator          GBOBC
        Born offset                        2.4628E-02 a0       4.6540E-02 AA
        H-bond correction              true
        Ion screening                  false
        Surface tension                    1.0000E-05 Eh       1.5569E+01 dyn/cm
        Grid points                               230 per atom

          ...................................................
          :                      SETUP                      :
          :.................................................:
          :  # basis functions                 330          :
          :  # atomic orbitals                 330          :
          :  # shells                          220          :
          :  # electrons                       434          :
          :  max. iterations                   250          :
          :  Hamiltonian                  GFN2-xTB          :
          :  restarted?                      false          :
          :  GBSA solvation                   true          :
          :  PC potential                    false          :
          :  electronic temp.          300.0000000     K    :
          :  accuracy                    1.0000000          :
          :  -> integral cutoff          0.2500000E+02      :
          :  -> integral neglect         0.1000000E-07      :
          :  -> SCF convergence          0.1000000E-05 Eh   :
          :  -> wf. convergence          0.1000000E-03 e    :
          :  Broyden damping             0.4000000          :
          ...................................................

 iter      E             dE          RMSdq      gap      omega  full diag
   1   -276.3091997 -0.276309E+03  0.411E+00    9.04       0.0  T
   2   -276.3996086 -0.904089E-01  0.240E+00    8.83       1.0  T
   3   -276.4092586 -0.965005E-02  0.374E-01    8.59       1.0  T
   4   -276.4110894 -0.183080E-02  0.114E-01    8.58       1.0  T
   5   -276.4113442 -0.254766E-03  0.425E-02    8.58       1.0  T
   6   -276.4113780 -0.337471E-04  0.177E-02    8.59       1.0  T
   7   -276.4113806 -0.259547E-05  0.365E-03    8.59       2.1  T
   8   -276.4113810 -0.437021E-06  0.105E-03    8.59       7.4  T
   9   -276.4113810 -0.112072E-07  0.362E-04    8.59      21.5  T
  10   -276.4113810 -0.402082E-08  0.113E-04    8.59      68.9  T

   *** convergence criteria satisfied after 10 iterations ***

         #    Occupation            Energy/Eh            Energy/eV
      -------------------------------------------------------------
         1        2.0000           -0.6690048             -18.2045
       ...           ...                  ...                  ...
       211        2.0000           -0.4036402             -10.9836
       212        2.0000           -0.4005916             -10.9007
       213        2.0000           -0.3977834             -10.8242
       214        2.0000           -0.3947291             -10.7411
       215        2.0000           -0.3930647             -10.6958
       216        2.0000           -0.3827422             -10.4149
       217        2.0000           -0.3595843              -9.7848 (HOMO)
       218                         -0.0440362              -1.1983 (LUMO)
       219                         -0.0334185              -0.9094
       220                         -0.0087665              -0.2385
       221                          0.0042257               0.1150
       222                          0.0076413               0.2079
       ...                                ...                  ...
       330                          0.4173633              11.3570
      -------------------------------------------------------------
                  HL-Gap            0.3155480 Eh            8.5865 eV
             Fermi-level           -0.2018102 Eh           -5.4915 eV

 SCC (total)                   0 d,  0 h,  0 min,  0.276 sec
 SCC setup                      ...        0 min,  0.004 sec (  1.590%)
 Dispersion                     ...        0 min,  0.003 sec (  1.251%)
 classical contributions        ...        0 min,  0.000 sec (  0.059%)
 integral evaluation            ...        0 min,  0.012 sec (  4.516%)
 iterations                     ...        0 min,  0.209 sec ( 75.664%)
 molecular gradient             ...        0 min,  0.043 sec ( 15.573%)
 printout                       ...        0 min,  0.004 sec (  1.272%)

         :::::::::::::::::::::::::::::::::::::::::::::::::::::
         ::                     SUMMARY                     ::
         :::::::::::::::::::::::::::::::::::::::::::::::::::::
         :: total energy            -274.682471047285 Eh    ::
         :: total w/o Gsasa/hb      -274.578480533388 Eh    ::
         :: gradient norm              0.057045810370 Eh/a0 ::
         :: HOMO-LUMO gap              8.586498380607 eV    ::
         ::.................................................::
         :: SCC energy              -276.411381002939 Eh    ::
         :: -> isotropic ES            1.657983815953 Eh    ::
         :: -> anisotropic ES         -0.333630825286 Eh    ::
         :: -> anisotropic XC         -0.020892036543 Eh    ::
         :: -> dispersion             -0.136311871326 Eh    ::
         :: -> Gsolv                  -0.182393916559 Eh    ::
         ::    -> Gelec               -0.078403402661 Eh    ::
         ::    -> Gsasa                0.000458465742 Eh    ::
         ::    -> Ghb                 -0.106306422766 Eh    ::
         ::    -> Gshift               0.001857443127 Eh    ::
         :: repulsion energy           1.713669420017 Eh    ::
         :: add. restraining           0.000000000000 Eh    ::
         :: total charge               1.000000000000 e     ::
         :::::::::::::::::::::::::::::::::::::::::::::::::::::

           -------------------------------------------------
          |                Property Printout                |
           -------------------------------------------------

    * Orbital Energies and Occupations

         #    Occupation            Energy/Eh            Energy/eV
      -------------------------------------------------------------
         1        2.0000           -0.6690048             -18.2045
       ...           ...                  ...                  ...
       205        2.0000           -0.4070677             -11.0769
       206        2.0000           -0.4061514             -11.0519
       207        2.0000           -0.4059036             -11.0452
       208        2.0000           -0.4058415             -11.0435
       209        2.0000           -0.4046751             -11.0118
       210        2.0000           -0.4040208             -10.9940
       211        2.0000           -0.4036402             -10.9836
       212        2.0000           -0.4005916             -10.9007
       213        2.0000           -0.3977834             -10.8242
       214        2.0000           -0.3947291             -10.7411
       215        2.0000           -0.3930647             -10.6958
       216        2.0000           -0.3827422             -10.4149
       217        2.0000           -0.3595843              -9.7848 (HOMO)
       218                         -0.0440362              -1.1983 (LUMO)
       219                         -0.0334185              -0.9094
       220                         -0.0087665              -0.2385
       221                          0.0042257               0.1150
       222                          0.0076413               0.2079
       223                          0.0107345               0.2921
       224                          0.0260730               0.7095
       225                          0.0306175               0.8331
       226                          0.0499743               1.3599
       227                          0.0536467               1.4598
       228                          0.0578403               1.5739
       ...                                ...                  ...
       330                          0.4173633              11.3570
      -------------------------------------------------------------
                  HL-Gap            0.3155480 Eh            8.5865 eV
             Fermi-level           -0.2018102 Eh           -5.4915 eV

     #   Z          covCN         q      C6AA      α(0)
     1   1 h        0.923     0.066     2.133     2.284
     2   6 c        3.673     0.036    20.202     6.442
     3   1 h        0.923     0.064     2.157     2.297
     4   6 c        3.730    -0.069    21.916     6.683
     5   1 h        0.924     0.118     1.627     1.995
     6   1 h        0.924     0.120     1.616     1.988
     7   8 o        1.659    -0.495    22.791     6.445
     8   1 h        0.805     0.351     0.586     1.203
     9   7 n        3.483    -0.230    26.017     7.576
    10   1 h        0.859     0.290     0.742     1.350
    11   1 h        0.859     0.288     0.751     1.358
    12   1 h        0.860     0.300     0.713     1.323
    13   8 o        1.606    -0.700    27.720     7.106
    14   1 h        0.802     0.344     0.602     1.219
    15   1 h        0.804     0.341     0.611     1.227
    16   8 o        1.607    -0.657    26.597     6.960
    17   1 h        0.803     0.337     0.620     1.237
    18   1 h        0.804     0.329     0.640     1.257
    19   8 o        1.607    -0.687    27.376     7.062
    20   1 h        0.804     0.330     0.637     1.254
    21   1 h        0.804     0.330     0.637     1.253
    22   8 o        1.608    -0.661    26.684     6.972
    23   1 h        0.804     0.323     0.655     1.271
    24   1 h        0.804     0.315     0.678     1.293
    25   8 o        1.607    -0.672    26.967     7.009
    26   1 h        0.803     0.346     0.598     1.215
    27   1 h        0.803     0.326     0.649     1.265
    28   8 o        1.607    -0.655    26.544     6.953
    29   1 h        0.805     0.321     0.661     1.277
    30   1 h        0.803     0.346     0.598     1.215
    31   8 o        1.608    -0.671    26.942     7.005
    32   1 h        0.804     0.333     0.629     1.245
    33   1 h        0.804     0.334     0.628     1.245
    34   8 o        1.606    -0.680    27.175     7.036
    35   1 h        0.802     0.345     0.601     1.218
    36   1 h        0.804     0.351     0.587     1.203
    37   8 o        1.607    -0.683    27.267     7.047
    38   1 h        0.803     0.320     0.664     1.280
    39   1 h        0.804     0.339     0.615     1.232
    40   8 o        1.608    -0.656    26.577     6.958
    41   1 h        0.804     0.327     0.646     1.262
    42   1 h        0.803     0.356     0.575     1.191
    43   8 o        1.607    -0.661    26.698     6.974
    44   1 h        0.805     0.327     0.645     1.261
    45   1 h        0.802     0.342     0.608     1.225
    46   8 o        1.607    -0.667    26.840     6.992
    47   1 h        0.804     0.319     0.667     1.283
    48   1 h        0.803     0.339     0.615     1.232
    49   8 o        1.606    -0.677    27.110     7.027
    50   1 h        0.804     0.318     0.668     1.284
    51   1 h        0.802     0.337     0.620     1.237
    52   8 o        1.609    -0.674    27.033     7.017
    53   1 h        0.805     0.329     0.639     1.256
    54   1 h        0.804     0.333     0.630     1.247
    55   8 o        1.608    -0.660    26.678     6.971
    56   1 h        0.805     0.317     0.671     1.287
    57   1 h        0.803     0.348     0.593     1.210
    58   8 o        1.607    -0.665    26.806     6.988
    59   1 h        0.804     0.324     0.653     1.269
    60   1 h        0.803     0.343     0.605     1.222
    61   8 o        1.607    -0.678    27.140     7.031
    62   1 h        0.804     0.334     0.627     1.244
    63   1 h        0.803     0.347     0.595     1.212
    64   8 o        1.607    -0.662    26.713     6.976
    65   1 h        0.803     0.325     0.651     1.267
    66   1 h        0.803     0.349     0.591     1.208
    67   8 o        1.607    -0.664    26.770     6.983
    68   1 h        0.802     0.352     0.584     1.201
    69   1 h        0.805     0.317     0.673     1.288
    70   8 o        1.608    -0.656    26.559     6.955
    71   1 h        0.802     0.350     0.588     1.205
    72   1 h        0.806     0.318     0.670     1.286
    73   8 o        1.608    -0.654    26.527     6.951
    74   1 h        0.804     0.328     0.641     1.258
    75   1 h        0.804     0.331     0.634     1.251
    76   8 o        1.609    -0.663    26.755     6.981
    77   1 h        0.804     0.332     0.633     1.250
    78   1 h        0.804     0.330     0.636     1.253
    79   8 o        1.606    -0.671    26.961     7.008
    80   1 h        0.802     0.330     0.638     1.255
    81   1 h        0.804     0.340     0.611     1.228
    82   8 o        1.609    -0.659    26.636     6.966
    83   1 h        0.805     0.325     0.650     1.267
    84   1 h        0.804     0.350     0.587     1.204
    85   8 o        1.611    -0.654    26.526     6.951
    86   1 h        0.803     0.342     0.606     1.223
    87   1 h        0.803     0.334     0.628     1.245
    88   8 o        1.607    -0.670    26.916     7.002
    89   1 h        0.802     0.346     0.597     1.214
    90   1 h        0.804     0.335     0.626     1.242
    91   8 o        1.604    -0.677    27.106     7.027
    92   1 h        0.802     0.346     0.598     1.215
    93   1 h        0.802     0.329     0.641     1.258
    94   8 o        1.607    -0.662    26.726     6.977
    95   1 h        0.804     0.321     0.662     1.278
    96   1 h        0.803     0.327     0.646     1.263
    97   8 o        1.608    -0.665    26.807     6.988
    98   1 h        0.804     0.331     0.636     1.252
    99   1 h        0.804     0.347     0.596     1.212
   100   8 o        1.607    -0.667    26.836     6.992
   101   1 h        0.803     0.357     0.573     1.189
   102   1 h        0.804     0.336     0.622     1.239
   103   8 o        1.609    -0.668    26.863     6.995
   104   1 h        0.803     0.342     0.608     1.225
   105   1 h        0.806     0.318     0.668     1.284
   106   8 o        1.607    -0.667    26.842     6.992
   107   1 h        0.803     0.339     0.615     1.232
   108   1 h        0.805     0.340     0.613     1.229
   109   8 o        1.609    -0.659    26.648     6.967
   110   1 h        0.805     0.329     0.640     1.257
   111   1 h        0.804     0.339     0.614     1.231
   112   8 o        1.610    -0.633    25.994     6.881
   113   1 h        0.805     0.331     0.636     1.252
   114   1 h        0.805     0.333     0.630     1.247
   115   8 o        1.609    -0.668    26.874     6.997
   116   1 h        0.805     0.337     0.620     1.237
   117   1 h        0.803     0.341     0.610     1.227
   118   8 o        1.604    -0.702    27.759     7.111
   119   1 h        0.802     0.367     0.550     1.166
   120   1 h        0.804     0.322     0.658     1.274
   121   8 o        1.609    -0.673    26.990     7.012
   122   1 h        0.805     0.324     0.654     1.270
   123   1 h        0.804     0.352     0.584     1.200
   124   8 o        1.609    -0.668    26.864     6.995
   125   1 h        0.805     0.328     0.643     1.260
   126   1 h        0.804     0.335     0.625     1.242
   127   8 o        1.609    -0.655    26.529     6.952
   128   1 h        0.804     0.334     0.628     1.244
   129   1 h        0.805     0.334     0.626     1.243
   130   8 o        1.609    -0.646    26.313     6.923
   131   1 h        0.805     0.319     0.668     1.283
   132   1 h        0.803     0.345     0.601     1.217
   133   8 o        1.609    -0.653    26.481     6.945
   134   1 h        0.804     0.346     0.599     1.215
   135   1 h        0.805     0.328     0.642     1.258
   136   8 o        1.608    -0.662    26.728     6.978
   137   1 h        0.806     0.319     0.666     1.281
   138   1 h        0.803     0.344     0.603     1.220
   139   8 o        1.609    -0.654    26.504     6.948
   140   1 h        0.806     0.323     0.655     1.271
   141   1 h        0.804     0.348     0.593     1.209
   142   8 o        1.610    -0.670    26.925     7.003
   143   1 h        0.806     0.316     0.675     1.291
   144   1 h        0.804     0.340     0.613     1.230
   145   8 o        1.608    -0.661    26.696     6.973
   146   1 h        0.802     0.342     0.608     1.225
   147   1 h        0.806     0.307     0.701     1.315
   148   8 o        1.609    -0.670    26.925     7.003
   149   1 h        0.805     0.340     0.612     1.229
   150   1 h        0.805     0.332     0.632     1.249
   151   8 o        1.608    -0.663    26.737     6.979
   152   1 h        0.804     0.341     0.609     1.226
   153   1 h        0.805     0.340     0.612     1.229
   154   8 o        1.607    -0.660    26.678     6.971
   155   1 h        0.806     0.309     0.695     1.309
   156   1 h        0.802     0.351     0.587     1.204
   157   8 o        1.609    -0.655    26.529     6.952
   158   1 h        0.806     0.315     0.677     1.292
   159   1 h        0.803     0.344     0.602     1.219
   160   8 o        1.610    -0.641    26.177     6.905
   161   1 h        0.806     0.316     0.676     1.291
   162   1 h        0.804     0.342     0.608     1.225
   163   8 o        1.606    -0.673    27.012     7.015
   164   1 h        0.806     0.315     0.676     1.292
   165   1 h        0.802     0.346     0.597     1.214

 Mol. C6AA /au·bohr⁶  :     137960.159960
 Mol. C8AA /au·bohr⁸  :    2520918.472669
 Mol. α(0) /au        :        524.197583


Wiberg/Mayer (AO) data.
largest (>0.10) Wiberg bond orders for each atom

 ---------------------------------------------------------------------------
     #   Z sym  total        # sym  WBO       # sym  WBO       # sym  WBO
 ---------------------------------------------------------------------------
     1   1 h    0.995 --     2 c    0.954
     2   6 c    3.949 --     4 c    1.001     7 o    0.994     3 h    0.958
                             1 h    0.954
     3   1 h    0.996 --     2 c    0.958
     4   6 c    3.928 --     2 c    1.001     9 n    0.976     5 h    0.953
                             6 h    0.953
     5   1 h    0.986 --     4 c    0.953
     6   1 h    0.985 --     4 c    0.953
     7   8 o    1.955 --     2 c    0.994     8 h    0.803
     8   1 h    0.877 --     7 o    0.803
     9   7 n    3.603 --     4 c    0.976    10 h    0.858    11 h    0.840
                            12 h    0.799
    10   1 h    0.916 --     9 n    0.858
    11   1 h    0.917 --     9 n    0.840
    12   1 h    0.910 --     9 n    0.799
    13   8 o    1.842 --    15 h    0.836    14 h    0.788
    14   1 h    0.881 --    13 o    0.788
    15   1 h    0.884 --    13 o    0.836
    16   8 o    1.882 --    18 h    0.834    17 h    0.817
    17   1 h    0.887 --    16 o    0.817
    18   1 h    0.892 --    16 o    0.834
    19   8 o    1.797 --    21 h    0.840    20 h    0.828
    20   1 h    0.891 --    19 o    0.828
    21   1 h    0.891 --    19 o    0.840
    22   8 o    1.840 --    24 h    0.856    23 h    0.837
    23   1 h    0.895 --    22 o    0.837
    24   1 h    0.901 --    22 o    0.856
    25   8 o    1.857 --    27 h    0.840    26 h    0.817
    26   1 h    0.880 --    25 o    0.817
    27   1 h    0.894 --    25 o    0.840
    28   8 o    1.867 --    29 h    0.868    30 h    0.813
    29   1 h    0.897 --    28 o    0.868
    30   1 h    0.880 --    28 o    0.813
    31   8 o    1.839 --    33 h    0.846    32 h    0.833
    32   1 h    0.889 --    31 o    0.833
    33   1 h    0.889 --    31 o    0.846
    34   8 o    1.931 --    35 h    0.797    36 h    0.773
    35   1 h    0.881 --    34 o    0.797
    36   1 h    0.877 --    34 o    0.773
    37   8 o    1.821 --    38 h    0.835    39 h    0.826
    38   1 h    0.897 --    37 o    0.835
    39   1 h    0.885 --    37 o    0.826
    40   8 o    1.890 --    41 h    0.856    42 h    0.815
    41   1 h    0.893 --    40 o    0.856
    42   1 h    0.873 --    40 o    0.815
    43   8 o    1.868 --    44 h    0.854    45 h    0.809
    44   1 h    0.893 --    43 o    0.854
    45   1 h    0.883 --    43 o    0.809
    46   8 o    1.834 --    47 h    0.848    48 h    0.835
    47   1 h    0.898 --    46 o    0.848
    48   1 h    0.885 --    46 o    0.835
    49   8 o    1.827 --    50 h    0.854    51 h    0.808
    50   1 h    0.898 --    49 o    0.854
    51   1 h    0.886 --    49 o    0.808
    52   8 o    1.825 --    53 h    0.853    54 h    0.836
    53   1 h    0.892 --    52 o    0.853
    54   1 h    0.889 --    52 o    0.836
    55   8 o    1.840 --    56 h    0.878    57 h    0.818
    56   1 h    0.899 --    55 o    0.878
    57   1 h    0.879 --    55 o    0.818
    58   8 o    1.871 --    59 h    0.849    60 h    0.805
    59   1 h    0.895 --    58 o    0.849
    60   1 h    0.882 --    58 o    0.805
    61   8 o    1.852 --    62 h    0.840    63 h    0.815
    62   1 h    0.888 --    61 o    0.840
    63   1 h    0.879 --    61 o    0.815
    64   8 o    1.878 --    65 h    0.841    66 h    0.819
    65   1 h    0.894 --    64 o    0.841
    66   1 h    0.878 --    64 o    0.819
    67   8 o    1.857 --    69 h    0.874    68 h    0.804
    68   1 h    0.876 --    67 o    0.804
    69   1 h    0.899 --    67 o    0.874
    70   8 o    1.859 --    72 h    0.894    71 h    0.803
    71   1 h    0.877 --    70 o    0.803
    72   1 h    0.899 --    70 o    0.894
    73   8 o    1.853 --    74 h    0.850    75 h    0.847
    74   1 h    0.892 --    73 o    0.850
    75   1 h    0.890 --    73 o    0.847
    76   8 o    1.823 --    78 h    0.859    77 h    0.851
    77   1 h    0.890 --    76 o    0.851
    78   1 h    0.891 --    76 o    0.859
    79   8 o    1.864 --    81 h    0.831    80 h    0.815
    80   1 h    0.891 --    79 o    0.815
    81   1 h    0.884 --    79 o    0.831
    82   8 o    1.855 --    83 h    0.869    84 h    0.822
    83   1 h    0.894 --    82 o    0.869
    84   1 h    0.877 --    82 o    0.822
    85   8 o    1.913 --    86 h    0.825    87 h    0.820
    86   1 h    0.883 --    85 o    0.825
    87   1 h    0.889 --    85 o    0.820
    88   8 o    1.869 --    90 h    0.846    89 h    0.811
    89   1 h    0.880 --    88 o    0.811
    90   1 h    0.888 --    88 o    0.846
    91   8 o    1.905 --    93 h    0.802    92 h    0.800
    92   1 h    0.880 --    91 o    0.800
    93   1 h    0.892 --    91 o    0.802
    94   8 o    1.868 --    95 h    0.839    96 h    0.820
    95   1 h    0.897 --    94 o    0.839
    96   1 h    0.893 --    94 o    0.820
    97   8 o    1.843 --    98 h    0.858    99 h    0.831
    98   1 h    0.891 --    97 o    0.858
    99   1 h    0.880 --    97 o    0.831
   100   8 o    1.888 --   102 h    0.856   101 h    0.810
   101   1 h    0.873 --   100 o    0.810
   102   1 h    0.887 --   100 o    0.856
   103   8 o    1.812 --   105 h    0.894   104 h    0.826
   104   1 h    0.883 --   103 o    0.826
   105   1 h    0.899 --   103 o    0.894
   106   8 o    1.853 --   108 h    0.857   107 h    0.822
   107   1 h    0.885 --   106 o    0.822
   108   1 h    0.885 --   106 o    0.857
   109   8 o    1.847 --   110 h    0.875   111 h    0.837
   110   1 h    0.892 --   109 o    0.875
   111   1 h    0.885 --   109 o    0.837
   112   8 o    1.868 --   113 h    0.873   114 h    0.864
   113   1 h    0.891 --   112 o    0.873
   114   1 h    0.889 --   112 o    0.864
   115   8 o    1.858 --   116 h    0.861   117 h    0.831
   116   1 h    0.887 --   115 o    0.861
   117   1 h    0.884 --   115 o    0.831
   118   8 o    1.838 --   120 h    0.856   119 h    0.763
   119   1 h    0.865 --   118 o    0.763
   120   1 h    0.896 --   118 o    0.856
   121   8 o    1.824 --   122 h    0.884   123 h    0.828
   122   1 h    0.895 --   121 o    0.884
   123   1 h    0.876 --   121 o    0.828
   124   8 o    1.831 --   125 h    0.858   126 h    0.838
   125   1 h    0.893 --   124 o    0.858
   126   1 h    0.888 --   124 o    0.838
   127   8 o    1.850 --   129 h    0.864   128 h    0.856
   128   1 h    0.889 --   127 o    0.856
   129   1 h    0.888 --   127 o    0.864
   130   8 o    1.845 --   131 h    0.891   132 h    0.832
   131   1 h    0.898 --   130 o    0.891
   132   1 h    0.881 --   130 o    0.832
   133   8 o    1.841 --   135 h    0.874   134 h    0.842
   134   1 h    0.880 --   133 o    0.842
   135   1 h    0.892 --   133 o    0.874
   136   8 o    1.827 --   137 h    0.893   138 h    0.825
   137   1 h    0.898 --   136 o    0.893
   138   1 h    0.882 --   136 o    0.825
   139   8 o    1.838 --   140 h    0.889   141 h    0.832
   140   1 h    0.895 --   139 o    0.889
   141   1 h    0.879 --   139 o    0.832
   142   8 o    1.794 --   143 h    0.898   144 h    0.844
   143   1 h    0.900 --   142 o    0.898
   144   1 h    0.885 --   142 o    0.844
   145   8 o    1.821 --   147 h    0.900   146 h    0.814
   146   1 h    0.883 --   145 o    0.814
   147   1 h    0.906 --   145 o    0.900
   148   8 o    1.824 --   150 h    0.862   149 h    0.856
   149   1 h    0.884 --   148 o    0.856
   150   1 h    0.890 --   148 o    0.862
   151   8 o    1.854 --   153 h    0.855   152 h    0.842
   152   1 h    0.883 --   151 o    0.842
   153   1 h    0.884 --   151 o    0.855
   154   8 o    1.836 --   155 h    0.899   156 h    0.799
   155   1 h    0.905 --   154 o    0.899
   156   1 h    0.877 --   154 o    0.799
   157   8 o    1.841 --   158 h    0.896   159 h    0.823
   158   1 h    0.901 --   157 o    0.896
   159   1 h    0.882 --   157 o    0.823
   160   8 o    1.834 --   161 h    0.896   162 h    0.853
   161   1 h    0.900 --   160 o    0.896
   162   1 h    0.883 --   160 o    0.853
   163   8 o    1.834 --   164 h    0.892   165 h    0.784
   164   1 h    0.900 --   163 o    0.892
   165   1 h    0.880 --   163 o    0.784
 ---------------------------------------------------------------------------

Topologies differ in total number of bonds
Writing topology from bond orders to xtbtopo.mol

molecular dipole:
                 x           y           z       tot (Debye)
 q only:        1.779       1.057      -1.084
   full:        1.177       1.658      -1.174       5.968
molecular quadrupole (traceless):
                xx          xy          yy          xz          yz          zz
 q only:       90.877      48.529     -37.228      10.687       7.420     -53.649
  q+dip:      107.562      63.178     -42.713      10.958       9.279     -64.849
   full:      109.144      62.824     -42.745      10.622       9.022     -66.399


           -------------------------------------------------
          | TOTAL ENERGY             -274.682471047285 Eh   |
          | GRADIENT NORM               0.057045810370 Eh/α |
          | HOMO-LUMO GAP               8.586498380607 eV   |
           -------------------------------------------------

------------------------------------------------------------------------
 * finished run on 2022/10/27 at 18:05:54.214     
------------------------------------------------------------------------
 total:
 * wall-time:     0 d,  0 h,  0 min,  0.510 sec
 *  cpu-time:     0 d,  0 h,  0 min,  9.750 sec
 * ratio c/w:    19.110 speedup
 SCF:
 * wall-time:     0 d,  0 h,  0 min,  0.278 sec
 *  cpu-time:     0 d,  0 h,  0 min,  6.770 sec
 * ratio c/w:    24.321 speedup

