165
 energy: -274.491173574873 gnorm: 0.047127440318 xtb: 6.5.1 (579679a)
h           -0.54250542236797       -1.15979968249696        0.91808737932248
c           -0.61125101768967       -0.54129568508000        0.01007491826511
h           -0.53913085058113       -1.19691447165356       -0.87124367816881
c            0.51036587524963        0.50378784395978       -0.00948718401964
h            0.39110985371409        1.15189243093055        0.86009664670295
h            0.39443993020508        1.11526701852858       -0.90564118187748
o           -1.78918255390479        0.21002581351449       -0.00773070428284
h           -2.56465822815856       -0.36207477160767        0.00267346035184
n            1.86374215708766       -0.11727809731927        0.00594752124796
h            1.98712725504032       -0.72370378895708       -0.81631063916515
h            1.98397883773239       -0.68907633486971        0.85310417755155
h            2.59308294202115        0.60724004426223       -0.00770513808498
o            4.55243782363803       -2.72916865139592       -1.01318531439976
h            3.56929092455170       -2.73683959968421       -1.01198744701067
h            4.80227623655875       -1.80259213816086       -1.17988171833410
o            1.95684366974962       -1.80044501376006        2.10166117621394
h            1.30187119251640       -2.50699913990794        1.92642299777233
h            2.84952331352966       -2.18633427205852        2.05933033724114
o            0.33442311767317       -0.36814498324445       -3.35554933458182
h           -0.60176350157005       -0.56451968622557       -3.16997331309911
h            0.42453658811281        0.59800976061861       -3.30254166479998
o           -4.27719217027465       -0.69248865755287        0.15232187396828
h           -4.68411107262218        0.04065377402846       -0.34581660941596
h           -4.40997683285553       -0.46487308857068        1.08415979361480
o            2.15821656756699        0.46000163912249        3.56047765946952
h            1.99002840647098       -0.38965405594893        3.11379590121128
h            1.48420684639968        0.49129310271904        4.26754149127022
o           -1.81629020568967        0.09222156424387        3.12946634005751
h           -2.75826613009593        0.27946073947254        3.24708075724542
h           -1.43065619036781        0.93599764416088        2.80952519044070
o            0.02151106260446       -3.62010423143726        1.55000890879482
h           -0.81787833261946       -3.30700511518578        1.93231967802500
h           -0.16626258107487       -3.75288809861823        0.60647428683307
o            3.97856776368010        1.42568634062893        0.19363403983500
h            4.18262642454845        1.20201384068087        1.13268296861320
h            4.56774188991843        0.81069519288606       -0.31792981330333
o            0.83043375455488        2.30115028740603       -2.82222968366181
h           -0.07309401101852        2.64430025966946       -2.97042436021275
h            1.11502900125076        2.75154846621935       -2.00581746370593
o           -2.03549207905277        2.87907987158763        0.00297867682341
h           -2.92459240766492        3.04084140907941        0.35517001474846
h           -1.94611344224532        1.90502959195692       -0.02287639177750
o           -2.60446350486558       -2.74172240093079       -0.61716022034158
h           -2.03215989766206       -3.50200154869437       -0.78766989892251
h           -2.58127136911744       -2.58326595843221        0.35281904166664
o           -4.51514837019770        0.56193791076487        2.64751012067153
h           -5.42236800362863        0.80398395570848        2.89136644914746
h           -4.24299880244682        1.33275180995122        2.10739421228242
o            1.96463991972630        2.63597050474259        2.03149333832387
h            2.77329181040222        3.14024750875681        2.20343734117151
h            2.03193258238320        1.83156981527214        2.59573401347523
o           -0.81333200814150        2.49360032105100        2.42742947539044
h            0.11899890775980        2.74296267691601        2.45246883376704
h           -1.18293862485020        2.83514421946360        1.59598097662949
o           -4.55261212212219        2.75019812194472        1.04842854122998
h           -5.35486645399131        2.95132895868453        1.54439765321506
h           -4.86671963958016        2.33767793341709        0.21816971945911
o           -5.22078609143089        1.46092694775943       -1.18848654413565
h           -6.10654284185270        1.28530237305358       -1.53711641619096
h           -4.59944210307711        1.46113379194013       -1.94977211360564
o           -3.48667940541617        1.19279489333606       -3.18603759250896
h           -2.90149564890801        1.96803593201157       -3.19652317793578
h           -2.92056630973842        0.42461618810512       -2.96324471357866
o           -2.21827197239545       -1.14785843520509       -2.78275376862413
h           -2.66710193435428       -1.73645338959691       -3.41725139475756
h           -2.35274797821881       -1.58529578872108       -1.91929657943343
o           -1.71240149432816        3.21196631100294       -2.66346873089133
h           -1.83882301699932        3.08843064936473       -1.69495749324698
h           -1.53195788396928        4.15744925478394       -2.74161248214135
o           -6.56075731871210       -2.64412052558600        0.63126827563259
h           -6.02929263962019       -2.71311802598474       -0.19572414704130
h           -7.15824708787893       -3.39193300590658        0.64626976194093
o            2.91527865722898       -0.58531836859596       -2.51668052930963
h            3.32006707537377        0.27981958763903       -2.68233931084067
h            2.03328793345742       -0.54628412151753       -2.92448255957514
o            3.66697336148900        2.07531448725868       -2.97063413739307
h            3.82386839583296        2.78352510495272       -2.32759331505271
h            2.76172951857468        2.21155611491820       -3.28287006612508
o           -2.33337181831661       -2.37567144369225        2.03160966931339
h           -3.24454384348076       -2.53794427153686        2.36593131959585
h           -2.09185357342402       -1.50245534990647        2.39429353116435
o            1.56553842475412        3.56290803854359       -0.50227903160022
h            2.41813425315260        3.97553266266187       -0.67754492303914
h            1.62874892928953        3.18406920149159        0.39496866605573
o            5.57002983642889       -0.26229509496492       -0.90893713417123
h            6.29316439163883       -0.31739231045317       -0.25074969753629
h            5.92987763924349        0.18858273310402       -1.69854479291421
o            4.66167781210327        0.34629622717178        2.47862125634093
h            4.69031501604618       -0.60041668639517        2.21000895926167
h            3.94222542995182        0.41891832113397        3.12484986398548
o            4.58145824004573       -2.22887006071210        1.66869278138353
h            4.57773278959115       -2.44617330655122        0.71311171523951
h            5.48948249170212       -2.48678988538293        1.95939377951326
o            1.91737090761221       -2.76819993457449       -0.77048704941646
h            1.49667796544279       -2.89178014140891       -1.64240889372231
h            1.90072389705648       -3.64107683219176       -0.33979565157463
o            6.44214318981708        2.32303630647575        1.81660776636059
h            5.85311181746540        3.05031083600105        2.06949274849841
h            5.98371410404837        1.52597414212454        2.13804681823855
o           -5.10049712289073       -2.74087396510980       -1.62946997622234
h           -4.25266657285015       -2.64898089933558       -1.14216633883310
h           -5.29255272937227       -1.86672350411070       -2.00405351977004
o            0.02777027672332        0.10011533501184        5.14674906029968
h           -0.69295412490951        0.07935005393817        4.48685870612231
h           -0.10539617092186       -0.64898685928911        5.72706436515967
o            0.79805301485892       -3.17685146196082       -3.20226793740307
h            1.70042953463927       -3.30646572883571       -3.56940763754102
h            0.52885092323457       -2.29751427794334       -3.49742200081955
o           -4.86722330693311       -2.34996965547690        2.80070347965901
h           -4.91049656821875       -1.41291766001345        3.01866211733764
h           -5.47504994804107       -2.48481594686592        2.05203441381849
o            7.67180492903272       -0.10215540442231        0.78732625925402
h            7.76555530063463        0.76429436789106        1.19265486094906
h            8.29073188271016       -0.17091891404257        0.04825443092306
o            7.16011892460538       -2.64691841972691        1.95183550841466
h            7.48522368704306       -1.73976611698975        1.91175370413299
h            7.34204908582599       -3.00829532649914        1.06241130693277
o            4.33422310418347        3.81027412069420       -0.76084664271114
h            4.19458279613883        2.89976595266821       -0.38439798143654
h            5.28550320602630        3.85079732903444       -0.93632052913085
o            3.41623697005177       -3.02098370792204       -3.69536886345455
h            4.01933650169787       -3.49814280495262       -3.11851634947295
h            3.41358057809814       -2.10330212306205       -3.36536857347112
o           -7.58112618684546       -0.07563625908263        0.54027539087500
h           -7.65449358673831        0.08479925433279       -0.40878409007398
h           -7.21507719080645       -0.97096320701686        0.63832900457747
o            1.97070344356381       -5.21352947760398        0.46267915977381
h            2.82112937356401       -5.47053176636027        0.82168958996631
h            1.38996551954298       -5.00032474018473        1.20638965067485
o           -0.51190387450684       -4.45898233130870       -1.12610834832292
h           -0.05590204201374       -5.29186910693611       -0.98483638382985
h           -0.14229478099849       -4.08016770185397       -1.94313621162143
o           -5.44283481942966       -0.71897975009521       -3.58919666850471
h           -4.81014004372921        0.01593900472115       -3.62597848999218
h           -5.11417148662224       -1.39046030529729       -4.19488272931095
o           -3.76063187929964       -3.02447333659843       -3.97948216199554
h           -3.32884967235900       -3.85377970055779       -4.18230794497771
h           -4.30236183503946       -3.17145867986122       -3.17541437459423
o           -7.52372293247134        0.39396897144846       -2.26286975775757
h           -8.25735237030718        0.68732568573178       -2.80331956841631
h           -6.93105371525715       -0.12634189217813       -2.83504818497234
o           -0.57053949426696        5.25403626624584       -1.22360316977754
h           -1.19037193616076        5.22654548379638       -0.49231083802467
h            0.18786568427015        4.71721120495091       -0.94656261828061
o           -6.90846585935259        1.80092752831501        2.31573560315305
h           -7.16990324059758        1.14832734736144        1.62724316012916
h           -7.71289712722022        2.02456996766632        2.78267634263150
o            7.33728711346780       -3.05530744633732       -0.74050320999826
h            6.39416830126798       -3.14496619771910       -0.93053520546751
h            7.62512284766354       -2.22702655518312       -1.14281236007348
o            6.44958896682608        1.34701713472754       -2.83822875457748
h            6.66293322583238        2.04133308911089       -2.18870660133819
h            5.60344051662928        1.59596209993115       -3.23363900879254
o            6.95012357998807        3.01533042574648       -0.70434503665304
h            7.78899879305970        3.47391594270019       -0.66280602190679
h            6.76747867453315        2.68328925655217        0.21007478711008
o            4.32409217022348        4.16413057006424        1.94890583158643
h            4.20547017372860        5.03505308626249        2.32590623970911
h            4.29741058679872        4.25864843789489        0.97458386008074
o            8.38105541173016       -0.51003106198079       -1.87498836214410
h            9.10006637002281       -0.86217795440979       -2.39945701478553
h            7.86848696488469        0.07595375605332       -2.45015993168110
o            2.95713354494605       -4.41641970025751        3.22342183784038
h            2.53434229827136       -4.17365820898050        4.04949884179964
h            3.89714275443443       -4.25641041780251        3.32767399236810
165
 energy: -274.492881551755 gnorm: 0.045586991087 xtb: 6.5.1 (579679a)
h           -0.54250542236797       -1.15979968249696        0.91808737932248
c           -0.61125101768967       -0.54129568508000        0.01007491826511
h           -0.53913085058113       -1.19691447165356       -0.87124367816881
c            0.51036587524963        0.50378784395978       -0.00948718401964
h            0.39110985371409        1.15189243093054        0.86009664670295
h            0.39443993020508        1.11526701852858       -0.90564118187748
o           -1.78918255390479        0.21002581351449       -0.00773070428284
h           -2.56465822815856       -0.36207477160767        0.00267346035184
n            1.86374215708766       -0.11727809731927        0.00594752124795
h            1.98712725504032       -0.72370378895708       -0.81631063916516
h            1.98397883773239       -0.68907633486971        0.85310417755155
h            2.59308294202115        0.60724004426223       -0.00770513808498
o            4.55594677267999       -2.72885125170824       -1.00623538115885
h            3.57222617649886       -2.74863482988000       -1.00535834444386
h            4.79503017318897       -1.80007930706599       -1.17522852422129
o            1.95655376609595       -1.79727844443873        2.09956804586853
h            1.29911911477457       -2.50451415639899        1.93554637386329
h            2.84255604416639       -2.19908550378471        2.06190108299375
o            0.33476398361180       -0.36663514153303       -3.35845670929586
h           -0.60033370258187       -0.56444185975687       -3.16885289796602
h            0.42460929353606        0.59921357397255       -3.30129298614843
o           -4.27852548463716       -0.69223153581190        0.15219715700510
h           -4.68423282544393        0.04176128559101       -0.34552256315751
h           -4.40952810538609       -0.46449240138703        1.08419280984005
o            2.16239921774878        0.45350088676185        3.56066752064766
h            1.98632818937457       -0.39035069743983        3.10364666939937
h            1.48152976304457        0.48912613580643        4.26067261967184
o           -1.81587356525405        0.09454235304518        3.13221168879153
h           -2.75849387526258        0.28021401097054        3.24657030639847
h           -1.43146266401198        0.93721479543134        2.80804076365230
o            0.01269869569711       -3.60481676134025        1.54851892762921
h           -0.83398803098239       -3.30762194166700        1.92435822228428
h           -0.16594274568981       -3.75503789579741        0.60611819423660
o            3.98051959403614        1.42775255657890        0.19475602526404
h            4.18385949204858        1.20277222092088        1.13341495093143
h            4.56614437875696        0.81007931338055       -0.31762506799365
o            0.83199539208924        2.30425457008519       -2.82413402160565
h           -0.07327195247612        2.64370667238096       -2.97000237581990
h            1.11465139635152        2.75079451103956       -2.00495780685225
o           -2.03495858795442        2.87868988435871        0.00299735237491
h           -2.92445846526957        3.03969700515183        0.35438696388508
h           -1.94485088679057        1.90453547980369       -0.02327180944640
o           -2.60597740267331       -2.74173827227278       -0.61819138498668
h           -2.03189182578024       -3.50099447234986       -0.78821387351622
h           -2.58167402323754       -2.58261206846504        0.35154124206267
o           -4.51444714631934        0.56309479063785        2.64870783077311
h           -5.42230909073396        0.80447754233036        2.89056190044720
h           -4.24285502403685        1.33216418027089        2.10583153588070
o            1.96236082088222        2.63386785232930        2.03403151473483
h            2.77287625698060        3.13593581347998        2.20251122153925
h            2.03230400024599        1.82675728368143        2.59408134420264
o           -0.81494409839752        2.49635095269441        2.42925326250891
h            0.11830666593475        2.74224387181600        2.45208549163081
h           -1.18325174521303        2.83367042243111        1.59546509390669
o           -4.55250758882812        2.75105239545139        1.04848467963545
h           -5.35514609168191        2.95163890181629        1.54398265213892
h           -4.86589376962038        2.33804318112232        0.21816787006874
o           -5.22010569036086        1.46264604022520       -1.18859497092859
h           -6.10553892108427        1.28577268330840       -1.53723025418623
h           -4.59839447002207        1.46157339553900       -1.94960848176273
o           -3.48662894330225        1.19341690885663       -3.18615091140128
h           -2.90101818132399        1.96826275902066       -3.19675428510083
h           -2.92100127080298        0.42522932349745       -2.96185491774913
o           -2.21810434241168       -1.14447923152285       -2.78078054667014
h           -2.66676233890098       -1.73271467680178       -3.41545266375257
h           -2.34900983872276       -1.58476402045488       -1.91806445210530
o           -1.71265965603258        3.21264356727992       -2.66360649290597
h           -1.83793565110530        3.08747786373598       -1.69513150826259
h           -1.53148993834331        4.15803597938630       -2.74053191322845
o           -6.56154404272326       -2.64266605854949        0.63159840383501
h           -6.02774558860867       -2.71184534772104       -0.19388395124079
h           -7.15764578428122       -3.39149196046484        0.64584281509349
o            2.91633574348922       -0.58413899979390       -2.51740780446671
h            3.31873196102306        0.28180433866142       -2.68382694316310
h            2.03322345797508       -0.54752492005340       -2.92303921576947
o            3.66829451538763        2.07764921305922       -2.97321186657366
h            3.82220880313237        2.78376833343378       -2.32731112021140
h            2.76148764349632        2.20969504735448       -3.28271926473352
o           -2.34153670280878       -2.37120267352010        2.03111779033398
h           -3.25100875765709       -2.53393255723213        2.36850249229802
h           -2.09644497712217       -1.49968360058056        2.39477905104197
o            1.56472373437622        3.56404001332961       -0.50090879566021
h            2.41816940193118        3.97437738993416       -0.67724029972620
h            1.62904686773502        3.18169390567728        0.39478714978890
o            5.57090405154635       -0.26056608965057       -0.90798573768476
h            6.29492607617536       -0.31649450481502       -0.25104646653552
h            5.92978155736703        0.18913843646589       -1.69871339118464
o            4.66576420944042        0.34759100986075        2.48260629704540
h            4.68879409367417       -0.59624309341669        2.20322383876462
h            3.93966039995197        0.41991117789886        3.12125155398709
o            4.59013696012694       -2.22106122603566        1.67524505974035
h            4.55877572576919       -2.45198956148021        0.72247418118359
h            5.50167718885311       -2.48431411890133        1.94591052438281
o            1.92360580518297       -2.77035174320313       -0.76952781424943
h            1.49533318008882       -2.90662586344208       -1.63562210740285
h            1.90154975832556       -3.63559648243891       -0.31933743306290
o            6.44605655723724        2.32208892246687        1.81974968226000
h            5.85569684062771        3.04976902530843        2.06814082680654
h            5.98439704544855        1.52564669898560        2.13770703585581
o           -5.10213841940381       -2.73939501513893       -1.62723001370379
h           -4.25294668272997       -2.65008170849073       -1.14144811066393
h           -5.29142129956731       -1.86517286693638       -2.00292299228336
o            0.02846331572602        0.09664297489702        5.14316256339183
h           -0.69276037495767        0.08725150745543        4.48332849335675
h           -0.11199469795542       -0.65555414892285        5.71715710859780
o            0.79841662425457       -3.17837311748134       -3.20633352243094
h            1.70278957013701       -3.30626643933474       -3.56886120791047
h            0.53176772630474       -2.29658290014962       -3.49609304590179
o           -4.87312927262007       -2.34898140385738        2.80461460605713
h           -4.91342507450639       -1.41065630874708        3.01733586113056
h           -5.47614139491959       -2.48488454485748        2.05227472119086
o            7.67269312743818       -0.10205447988749        0.79287904430118
h            7.76412112727476        0.76668617900717        1.19373993458954
h            8.28852975367614       -0.17047153238151        0.05119686995930
o            7.16801429779786       -2.64892707191623        1.95525481089000
h            7.48866642948980       -1.74039994247398        1.91004647638042
h            7.34155090820541       -3.00990119487814        1.06363546810271
o            4.33440772896371        3.81070709729584       -0.76339876760881
h            4.19359991826339        2.90056392431280       -0.38624202898900
h            5.28564168971500        3.85006762428429       -0.93886804230775
o            3.41994672620549       -3.01955104282465       -3.69748370485428
h            4.01469208129283       -3.50014705466028       -3.11473589228879
h            3.41311927093153       -2.10396687907224       -3.36206508416589
o           -7.58268097393688       -0.07613877682227        0.54019643042596
h           -7.65416505801060        0.08473283487697       -0.40887854053331
h           -7.21472490032546       -0.97067656454840        0.63827064964641
o            1.96153236464590       -5.21579141709020        0.46162928696138
h            2.82510014264815       -5.43364220005769        0.81630806910600
h            1.40995506907524       -4.96594477514438        1.21696100032371
o           -0.52157012802804       -4.46307113138311       -1.13271981333224
h           -0.04647592972580       -5.28183488625746       -0.96907895413515
h           -0.13779242059160       -4.08232113774956       -1.94212434085596
o           -5.44300634431118       -0.71782136441267       -3.59047559142682
h           -4.80901507992695        0.01602189392059       -3.62594894832582
h           -5.11231503388144       -1.39128127158666       -4.19283720253304
o           -3.76178649867333       -3.01695462570765       -3.97323927094913
h           -3.30465378874576       -3.83766468305798       -4.15431959183955
h           -4.30465871288675       -3.16367274869626       -3.17021723372284
o           -7.52104867856166        0.39307689642080       -2.26077246840511
h           -8.25454731461978        0.68764002800248       -2.80034000581217
h           -6.92923502574894       -0.12714566410912       -2.83389190258809
o           -0.56975895605499        5.25550184732568       -1.22227479579963
h           -1.19108380135002        5.22444472813929       -0.49241412681860
h            0.18753014937947        4.71635083623340       -0.94676133814026
o           -6.90600720134287        1.80033371167413        2.31243781370872
h           -7.16611711795224        1.14735294557074        1.62389206668062
h           -7.71098941319665        2.02216596515883        2.77876651223796
o            7.33511029673705       -3.05309370399283       -0.73483611227187
h            6.39280093475458       -3.14679556499993       -0.92839548306796
h            7.62222173866818       -2.22684777888875       -1.14182913453365
o            6.44849925048917        1.34801067250972       -2.83970756401277
h            6.65983789568997        2.04179025212152       -2.18907304659954
h            5.60140153667778        1.59488397324096       -3.23435913086204
o            6.94677121377507        3.01114256260717       -0.70292167893604
h            7.78766118914183        3.46531230358768       -0.66178003264801
h            6.76370788254148        2.67971449237538        0.21137782343825
o            4.32374762157810        4.14680532666014        1.94124263017877
h            4.18584008424085        5.01255833836989        2.32157128486262
h            4.29618432751984        4.24659100934047        0.96769037599398
o            8.36861789454751       -0.50186904256758       -1.86347246231032
h            9.08312808842931       -0.86581755819142       -2.38480261955115
h            7.85909715407147        0.07945791114642       -2.44584588250991
o            2.95910996316507       -4.39662261708967        3.16030484045549
h            2.51346162395243       -4.12018799360418        3.96382543946823
h            3.89190206142185       -4.19843644171311        3.27338710618450
165
 energy: -274.494373063391 gnorm: 0.045182473617 xtb: 6.5.1 (579679a)
h           -0.54250542236797       -1.15979968249696        0.91808737932247
c           -0.61125101768967       -0.54129568508001        0.01007491826511
h           -0.53913085058113       -1.19691447165356       -0.87124367816881
c            0.51036587524963        0.50378784395978       -0.00948718401963
h            0.39110985371409        1.15189243093054        0.86009664670295
h            0.39443993020508        1.11526701852858       -0.90564118187747
o           -1.78918255390479        0.21002581351449       -0.00773070428284
h           -2.56465822815856       -0.36207477160767        0.00267346035183
n            1.86374215708766       -0.11727809731927        0.00594752124794
h            1.98712725504032       -0.72370378895708       -0.81631063916517
h            1.98397883773239       -0.68907633486972        0.85310417755156
h            2.59308294202115        0.60724004426223       -0.00770513808498
o            4.55245540541165       -2.73144789882968       -0.99240473529155
h            3.56832771861360       -2.75131234926598       -0.99467741603146
h            4.79289056211666       -1.80482327347318       -1.16990677869506
o            1.95284207680795       -1.79347609996084        2.09641122883378
h            1.28930632194200       -2.49764307036467        1.94108343705688
h            2.82750072499993       -2.22156951448341        2.06486118626480
o            0.33675032787543       -0.36676565482514       -3.35582115271400
h           -0.59917464475871       -0.56455804836902       -3.17034351872750
h            0.42553582625768        0.59940419912589       -3.30488658184127
o           -4.27864855330925       -0.69044543833423        0.15228763764028
h           -4.68458714896793        0.04300526537821       -0.34596264951115
h           -4.41144152545178       -0.46367755977830        1.08407890225176
o            2.16490598647876        0.44591320125015        3.55807653474700
h            1.98872703293550       -0.39611142416056        3.09543422205705
h            1.48388828244603        0.47946787336893        4.25759601417518
o           -1.81721174279370        0.09913440006105        3.13315822038637
h           -2.76011582328410        0.28354402755038        3.24763223158712
h           -1.43447140016576        0.94137125106770        2.80595582861593
o           -0.00047856847780       -3.58270103412762        1.54744067088821
h           -0.85224696124889       -3.29902159331197        1.92009204129195
h           -0.17431315315707       -3.75435594627877        0.60829352147535
o            3.98083173419836        1.42844020902191        0.19561731060880
h            4.18805165387937        1.20655968494856        1.13379893932103
h            4.56890328114761        0.81313751991602       -0.31693728521865
o            0.83156678605246        2.30309052360817       -2.82254122237221
h           -0.07152123689172        2.64637720663992       -2.97276683046730
h            1.11491273344528        2.75404451365243       -2.00625998293866
o           -2.03329846574216        2.87757819949146        0.00363987121368
h           -2.92312916178413        3.03998981305409        0.35361389515941
h           -1.94558849472419        1.90319694962895       -0.02450519552941
o           -2.60524465694471       -2.74149599722662       -0.62023072671227
h           -2.03022631270937       -3.50058427353380       -0.79036884712716
h           -2.58400229009966       -2.58518517415322        0.34982640933655
o           -4.51281388602195        0.56416917437768        2.64855843402573
h           -5.42082437283421        0.80503251048147        2.89066984609112
h           -4.24161041212259        1.33431784365875        2.10699725463283
o            1.95935939026095        2.62797945667309        2.03497943514748
h            2.77344158069236        3.12655161438253        2.19771778309569
h            2.02922556875740        1.82214534312794        2.59624424730036