      -----------------------------------------------------------      
     |                   =====================                   |     
     |                           x T B                           |     
     |                   =====================                   |     
     |                         S. Grimme                         |     
     |          Mulliken Center for Theoretical Chemistry        |     
     |                    University of Bonn                     |     
      -----------------------------------------------------------      

   * xtb version 6.5.1 (579679a) compiled by 'ehlert@majestix' on 2022-07-11

   xtb is free software: you can redistribute it and/or modify it under
   the terms of the GNU Lesser General Public License as published by
   the Free Software Foundation, either version 3 of the License, or
   (at your option) any later version.
   
   xtb is distributed in the hope that it will be useful,
   but WITHOUT ANY WARRANTY; without even the implied warranty of
   MERCHANTABILITY or FITNESS FOR A PARTICULAR PURPOSE.  See the
   GNU Lesser General Public License for more details.
   
   Cite this work as:
   * C. Bannwarth, E. Caldeweyher, S. Ehlert, A. Hansen, P. Pracht,
     J. Seibert, S. Spicher, S. Grimme, WIREs Comput. Mol. Sci., 2020, 11,
     e01493. DOI: 10.1002/wcms.1493
   
   for GFN2-xTB:
   * C. Bannwarth, S. Ehlert and S. Grimme., J. Chem. Theory Comput., 2019,
     15, 1652-1671. DOI: 10.1021/acs.jctc.8b01176
   for GFN1-xTB:
   * S. Grimme, C. Bannwarth, P. Shushkov, J. Chem. Theory Comput., 2017,
     13, 1989-2009. DOI: 10.1021/acs.jctc.7b00118
   for GFN0-xTB:
   * P. Pracht, E. Caldeweyher, S. Ehlert, S. Grimme, ChemRxiv, 2019, preprint.
     DOI: 10.26434/chemrxiv.8326202.v1
   for GFN-FF:
   * S. Spicher and S. Grimme, Angew. Chem. Int. Ed., 2020, 59, 15665-15673.
     DOI: 10.1002/anie.202004239
   
   for ALPB and GBSA implicit solvation:
   * S. Ehlert, M. Stahn, S. Spicher, S. Grimme, J. Chem. Theory Comput.,
     2021, 17, 4250-4261. DOI: 10.1021/acs.jctc.1c00471
   
   for DFT-D4:
   * E. Caldeweyher, C. Bannwarth and S. Grimme, J. Chem. Phys., 2017,
     147, 034112. DOI: 10.1063/1.4993215
   * E. Caldeweyher, S. Ehlert, A. Hansen, H. Neugebauer, S. Spicher,
     C. Bannwarth and S. Grimme, J. Chem. Phys., 2019, 150, 154122.
     DOI: 10.1063/1.5090222
   * E. Caldeweyher, J.-M. Mewes, S. Ehlert and S. Grimme, Phys. Chem. Chem. Phys.
     2020, 22, 8499-8512. DOI: 10.1039/D0CP00502A
   
   for sTDA-xTB:
   * S. Grimme and C. Bannwarth, J. Chem. Phys., 2016, 145, 054103.
     DOI: 10.1063/1.4959605
   
   in the mass-spec context:
   * V. Asgeirsson, C. Bauer and S. Grimme, Chem. Sci., 2017, 8, 4879.
     DOI: 10.1039/c7sc00601b
   * J. Koopman and S. Grimme, ACS Omega 2019, 4, 12, 15120-15133.
     DOI: 10.1021/acsomega.9b02011
   
   for metadynamics refer to:
   * S. Grimme, J. Chem. Theory Comput., 2019, 155, 2847-2862
     DOI: 10.1021/acs.jctc.9b00143
   
   for SPH calculations refer to:
   * S. Spicher and S. Grimme, J. Chem. Theory Comput., 2021, 17, 1701-1714
     DOI: 10.1021/acs.jctc.0c01306
   
   with help from (in alphabetical order)
   P. Atkinson, C. Bannwarth, F. Bohle, G. Brandenburg, E. Caldeweyher
   M. Checinski, S. Dohm, S. Ehlert, S. Ehrlich, I. Gerasimov, C. Hölzer
   A. Katbashev, J. Koopman, C. Lavigne, S. Lehtola, F. März, M. Müller,
   F. Musil, H. Neugebauer, J. Pisarek, C. Plett, P. Pracht, F. Pultar,
   J. Seibert, P. Shushkov, S. Spicher, M. Stahn, M. Steiner, T. Strunk,
   J. Stückrath, T. Rose, and J. Unsleber
   
 * started run on 2022/11/24 at 12:04:43.997     

           -------------------------------------------------
          |                Calculation Setup                |
           -------------------------------------------------

          program call               : xtb solvent_cluster.coord --gfn2 --input xcontrol --opt 1
          hostname                   : cn0430
          coordinate file            : solvent_cluster.coord
          omp threads                :                     2

   ID    Z sym.   atoms
    1    8 o      1, 4, 7, 10, 13, 16, 19, 22, 25, 28, 31, 34, 37, 40, 43,
                  46, 49, 52, 55, 58, 61, 64, 67, 70, 73, 76, 79, 82, 85, 88,
                  91, 94, 97, 100, 103, 106, 109, 112, 115, 118, 121, 124,
                  127, 130, 133, 136, 139, 142, 145, 148, 151, 154, 157, 160,
                  163, 166, 169, 172, 175, 178, 181, 184, 187, 190, 193, 196,
                  199, 202, 205, 208, 211, 214, 217, 220, 223, 226, 229, 232,
                  235, 238, 241, 244, 247, 250, 253, 256, 259, 262, 265, 268,
                  271, 274, 277, 280, 283, 286, 289, 292, 295, 298, 301, 304,
                  307, 310, 313, 316, 319, 322, 325, 328, 331, 334, 337, 340,
                  343, 346, 349, 352, 355, 358, 361, 364, 367, 370, 373, 376,
                  379, 382, 385, 388, 391, 394, 397, 400, 403, 406, 409, 412,
                  415, 418, 421, 424, 427, 430, 433, 436, 439, 442, 445, 448,
                  451, 454, 457, 460, 463, 466, 469, 472, 475, 478, 481, 484,
                  487, 490, 493, 496, 499, 502, 505, 508, 511, 514, 517, 520,
                  523, 526, 529, 532, 535, 538, 541, 544, 547, 550, 553, 556,
                  559, 562, 565, 568, 571, 574, 577, 580, 583, 586, 589, 592,
                  595, 598, 601, 604, 607, 610, 613, 616, 619, 622, 625, 628,
                  631, 634, 637, 640, 643, 646, 649, 652, 655, 658, 661, 664,
                  667, 670, 673, 676, 679, 682, 685, 688, 691, 694, 697, 700,
                  703, 706, 709, 712, 715, 718, 721, 724, 727, 730, 733, 736,
                  739, 742, 745, 748, 751, 754
    2    1 h      2, 3, 5, 6, 8, 9, 11, 12, 14, 15, 17, 18, 20, 21, 23, 24,
                  26, 27, 29, 30, 32, 33, 35, 36, 38, 39, 41, 42, 44, 45, 47,
                  48, 50, 51, 53, 54, 56, 57, 59, 60, 62, 63, 65, 66, 68, 69,
                  71, 72, 74, 75, 77, 78, 80, 81, 83, 84, 86, 87, 89, 90, 92,
                  93, 95, 96, 98, 99, 101, 102, 104, 105, 107, 108, 110, 111,
                  113, 114, 116, 117, 119, 120, 122, 123, 125, 126, 128, 129,
                  131, 132, 134, 135, 137, 138, 140, 141, 143, 144, 146, 147,
                  149, 150, 152, 153, 155, 156, 158, 159, 161, 162, 164, 165,
                  167, 168, 170, 171, 173, 174, 176, 177, 179, 180, 182, 183,
                  185, 186, 188, 189, 191, 192, 194, 195, 197, 198, 200, 201,
                  203, 204, 206, 207, 209, 210, 212, 213, 215, 216, 218, 219,
                  221, 222, 224, 225, 227, 228, 230, 231, 233, 234, 236, 237,
                  239, 240, 242, 243, 245, 246, 248, 249, 251, 252, 254, 255,
                  257, 258, 260, 261, 263, 264, 266, 267, 269, 270, 272, 273,
                  275, 276, 278, 279, 281, 282, 284, 285, 287, 288, 290, 291,
                  293, 294, 296, 297, 299, 300, 302, 303, 305, 306, 308, 309,
                  311, 312, 314, 315, 317, 318, 320, 321, 323, 324, 326, 327,
                  329, 330, 332, 333, 335, 336, 338, 339, 341, 342, 344, 345,
                  347, 348, 350, 351, 353, 354, 356, 357, 359, 360, 362, 363,
                  365, 366, 368, 369, 371, 372, 374, 375, 377, 378, 380, 381,
                  383, 384, 386, 387, 389, 390, 392, 393, 395, 396, 398, 399,
                  401, 402, 404, 405, 407, 408, 410, 411, 413, 414, 416, 417,
                  419, 420, 422, 423, 425, 426, 428, 429, 431, 432, 434, 435,
                  437, 438, 440, 441, 443, 444, 446, 447, 449, 450, 452, 453,
                  455, 456, 458, 459, 461, 462, 464, 465, 467, 468, 470, 471,
                  473, 474, 476, 477, 479, 480, 482, 483, 485, 486, 488, 489,
                  491, 492, 494, 495, 497, 498, 500, 501, 503, 504, 506, 507,
                  509, 510, 512, 513, 515, 516, 518, 519, 521, 522, 524, 525,
                  527, 528, 530, 531, 533, 534, 536, 537, 539, 540, 542, 543,
                  545, 546, 548, 549, 551, 552, 554, 555, 557, 558, 560, 561,
                  563, 564, 566, 567, 569, 570, 572, 573, 575, 576, 578, 579,
                  581, 582, 584, 585, 587, 588, 590, 591, 593, 594, 596, 597,
                  599, 600, 602, 603, 605, 606, 608, 609, 611, 612, 614, 615,
                  617, 618, 620, 621, 623, 624, 626, 627, 629, 630, 632, 633,
                  635, 636, 638, 639, 641, 642, 644, 645, 647, 648, 650, 651,
                  653, 654, 656, 657, 659, 660, 662, 663, 665, 666, 668, 669,
                  671, 672, 674, 675, 677, 678, 680, 681, 683, 684, 686, 687,
                  689, 690, 692, 693, 695, 696, 698, 699, 701, 702, 704, 705,
                  707, 708, 710, 711, 713, 714, 716, 717, 719, 720, 722, 723,
                  725, 726, 728, 729, 731, 732, 734, 735, 737, 738, 740, 741,
                  743, 744, 746, 747, 749, 750, 752, 753, 755, 756

molecular fragmentation (1/2 indicates fragments):
111222222222222222222222222222222222222222222222222222222222222222222222
222222222222222222222222222222222222222222222222222222222222222222222222
222222222222222222222222222222222222222222222222222222222222222222222222
222222222222222222222222222222222222222222222222222222222222222222222222
222222222222222222222222222222222222222222222222222222222222222222222222
222222222222222222222222222222222222222222222222222222222222222222222222
222222222222222222222222222222222222222222222222222222222222222222222222
222222222222222222222222222222222222222222222222222222222222222222222222
222222222222222222222222222222222222222222222222222222222222222222222222
222222222222222222222222222222222222222222222222222222222222222222222222
222222222222222222222222222222222222
# atoms in fragment 1/2:     3   753
 fragment masses (1/2) :       18.02     4521.84
CMA distance (Bohr)    :  17.219
constraining FC (au)   :  0.0500

           -------------------------------------------------
          |                 G F N 2 - x T B                 |
           -------------------------------------------------

        Reference                      10.1021/acs.jctc.8b01176
      * Hamiltonian:
        H0-scaling (s, p, d)           1.850000    2.230000    2.230000
        zeta-weighting                 0.500000
      * Dispersion:
        s8                             2.700000
        a1                             0.520000
        a2                             5.000000
        s9                             5.000000
      * Repulsion:
        kExp                           1.500000    1.000000
        rExp                           1.000000
      * Coulomb:
        alpha                          2.000000
        third order                    shell-resolved
        anisotropic                    true
        a3                             3.000000
        a5                             4.000000
        cn-shift                       1.200000
        cn-exp                         4.000000
        max-rad                        5.000000


          ...................................................
          :                      SETUP                      :
          :.................................................:
          :  # basis functions                1512          :
          :  # atomic orbitals                1512          :
          :  # shells                         1008          :
          :  # electrons                      2016          :
          :  max. iterations                   250          :
          :  Hamiltonian                  GFN2-xTB          :
          :  restarted?                      false          :
          :  GBSA solvation                  false          :
          :  PC potential                    false          :
          :  electronic temp.          300.0000000     K    :
          :  accuracy                    1.0000000          :
          :  -> integral cutoff          0.2500000E+02      :
          :  -> integral neglect         0.1000000E-07      :
          :  -> SCF convergence          0.1000000E-05 Eh   :
          :  -> wf. convergence          0.1000000E-03 e    :
          :  Broyden damping             0.4000000          :
          ...................................................

 iter      E             dE          RMSdq      gap      omega  full diag
   1  -1291.0076291 -0.129101E+04  0.407E+00    8.40       0.0  T
   2  -1291.0856267 -0.779977E-01  0.242E+00    7.37       1.0  T
   3  -1291.1175535 -0.319267E-01  0.213E-01    5.79       1.0  T
   4  -1291.1229848 -0.543129E-02  0.460E-02    6.26       1.0  T
   5  -1291.1230734 -0.886170E-04  0.310E-02    6.18       1.0  T
   6  -1291.1231141 -0.406932E-04  0.440E-03    6.22       1.0  T
   7  -1291.1231167 -0.258258E-05  0.749E-04    6.21       4.9  T
   8  -1291.1231167 -0.289774E-07  0.391E-04    6.21       9.3  T
   9  -1291.1231167 -0.146945E-07  0.639E-05    6.21      56.9  T

   *** convergence criteria satisfied after 9 iterations ***

         #    Occupation            Energy/Eh            Energy/eV
      -------------------------------------------------------------
         1        2.0000           -0.6945765             -18.9004
       ...           ...                  ...                  ...
      1002        2.0000           -0.3501191              -9.5272
      1003        2.0000           -0.3467799              -9.4364
      1004        2.0000           -0.3463406              -9.4244
      1005        2.0000           -0.3417860              -9.3005
      1006        2.0000           -0.3390467              -9.2259
      1007        2.0000           -0.3338631              -9.0849
      1008        2.0000           -0.3149267              -8.5696 (HOMO)
      1009                         -0.0866092              -2.3568 (LUMO)
      1010                         -0.0766689              -2.0863
      1011                         -0.0607383              -1.6528
      1012                         -0.0599172              -1.6304
      1013                         -0.0552677              -1.5039
       ...                                ...                  ...
      1512                          0.4760478              12.9539
      -------------------------------------------------------------
                  HL-Gap            0.2283175 Eh            6.2128 eV
             Fermi-level           -0.2007680 Eh           -5.4632 eV

 SCC (total)                   0 d,  0 h,  0 min, 20.433 sec
 SCC setup                      ...        0 min,  0.042 sec (  0.205%)
 Dispersion                     ...        0 min,  0.110 sec (  0.536%)
 classical contributions        ...        0 min,  0.023 sec (  0.113%)
 integral evaluation            ...        0 min,  0.611 sec (  2.989%)
 iterations                     ...        0 min,  6.620 sec ( 32.401%)
 molecular gradient             ...        0 min, 12.961 sec ( 63.433%)
 printout                       ...        0 min,  0.066 sec (  0.323%)

         :::::::::::::::::::::::::::::::::::::::::::::::::::::
         ::                     SUMMARY                     ::
         :::::::::::::::::::::::::::::::::::::::::::::::::::::
         :: total energy           -1283.307188946821 Eh    ::
         :: gradient norm              0.106581380915 Eh/a0 ::
         :: HOMO-LUMO gap              6.212834672001 eV    ::
         ::.................................................::
         :: SCC energy             -1291.123116697447 Eh    ::
         :: -> isotropic ES            7.154361529919 Eh    ::
         :: -> anisotropic ES         -1.614638852880 Eh    ::
         :: -> anisotropic XC         -0.127221112441 Eh    ::
         :: -> dispersion             -0.801407039602 Eh    ::
         :: repulsion energy           7.655763833542 Eh    ::
         :: add. restraining           0.000000000000 Eh    ::
         :: total charge               0.000000000000 e     ::
         :::::::::::::::::::::::::::::::::::::::::::::::::::::

      ----------------------------------------------------------- 
     |                       L-ANC optimizer                     |
      ----------------------------------------------------------- 
          low memory version by Sebastian Ehlert

          ...................................................
          :                      SETUP                      :
          :.................................................:
          :   energy convergence        0.1000000E-05 Eh    :
          :   grad. convergence         0.8000000E-03 Eh/a0 :
          :   optimization log               true           :
          :   writing optlog all                1     steps :
          :   Hessian reset                    20     steps :
          :   maximium step len.        1.0000000     a0    :
          :   LBFGS images                     20           :
          ...................................................
 * calculating model hessian...
Using Lindh-Hessian (1995)
 Shifting diagonal of input Hessian by   1.000005128758573E-002
 Lowest  eigenvalues of input Hessian
    0.010000    0.010000    0.010000   -0.000000   -0.000000   -0.000000
   -0.000000   -0.000000   -0.000000   -0.000000   -0.000000   -0.000000
   -0.000000   -0.000000   -0.000000   -0.000000   -0.000000   -0.000000
 Highest eigenvalues
    0.310979    0.316269    1.213051    1.222113    1.432659    1.445764
 

........................................................................
.............................. CYCLE    1 ..............................
........................................................................
   1  -1291.1214402 -0.129112E+04  0.261E-02    6.36       0.0  T
   2  -1291.1214528 -0.126095E-04  0.160E-02    6.37       1.0  T
   3  -1291.1214573 -0.453348E-05  0.189E-03    6.39       1.9  T
   4  -1291.1214576 -0.332760E-06  0.507E-04    6.40       7.2  T
   5  -1291.1214577 -0.563205E-08  0.669E-05    6.39      54.4  T
     SCC iter.                  ...        0 min,  3.844 sec
     gradient                   ...        0 min, 12.585 sec
 * total energy  : -1283.3090534 Eh     change       -0.1864418E-02 Eh
   gradient norm :     0.0156223 Eh/a0  converged?    E=F G=F D=F
   step length   :     0.3320392 a0

........................................................................
.............................. CYCLE    2 ..............................
........................................................................
   1  -1291.1225782 -0.129112E+04  0.189E-02    6.38       0.0  T
   2  -1291.1225842 -0.601337E-05  0.115E-02    6.38       1.0  T
   3  -1291.1225864 -0.223212E-05  0.133E-03    6.38       2.7  T
   4  -1291.1225866 -0.173805E-06  0.401E-04    6.38       9.1  T
   5  -1291.1225866 -0.390560E-08  0.532E-05    6.38      68.4  T
     SCC iter.                  ...        0 min,  3.409 sec
     gradient                   ...        0 min, 12.502 sec
 * total energy  : -1283.3104010 Eh     change       -0.1347587E-02 Eh
   gradient norm :     0.0187980 Eh/a0  converged?    E=F G=F D=F
   step length   :     0.3264812 a0

........................................................................
.............................. CYCLE    3 ..............................
........................................................................
   1  -1291.1173035 -0.129112E+04  0.348E-02    6.35       0.0  T
   2  -1291.1173236 -0.201460E-04  0.211E-02    6.35       1.0  T
   3  -1291.1173288 -0.520599E-05  0.235E-03    6.35       1.5  T
   4  -1291.1173296 -0.745014E-06  0.680E-04    6.35       5.3  T
   5  -1291.1173296 -0.178200E-07  0.118E-04    6.35      30.9  T
     SCC iter.                  ...        0 min,  3.305 sec
     gradient                   ...        0 min, 12.504 sec
 * total energy  : -1283.3121711 Eh     change       -0.1770109E-02 Eh
   gradient norm :     0.0353194 Eh/a0  converged?    E=F G=F D=F
   step length   :     0.7743006 a0

........................................................................
.............................. CYCLE    4 ..............................
........................................................................
   1  -1291.1215118 -0.129112E+04  0.240E-02    6.36       0.0  T
   2  -1291.1215242 -0.124108E-04  0.146E-02    6.34       1.0  T
   3  -1291.1215273 -0.305300E-05  0.190E-03    6.33       1.9  T
   4  -1291.1215277 -0.418379E-06  0.435E-04    6.34       8.4  T
   5  -1291.1215277 -0.409955E-08  0.711E-05    6.34      51.1  T
     SCC iter.                  ...        0 min,  3.284 sec
     gradient                   ...        0 min, 12.453 sec
 * total energy  : -1283.3135314 Eh     change       -0.1360339E-02 Eh
   gradient norm :     0.0299901 Eh/a0  converged?    E=F G=F D=F
   step length   :     0.6118474 a0

........................................................................
.............................. CYCLE    5 ..............................
........................................................................
   1  -1291.1297356 -0.129113E+04  0.323E-02    6.34       0.0  T
   2  -1291.1297582 -0.225959E-04  0.195E-02    6.32       1.0  T
   3  -1291.1297640 -0.582892E-05  0.251E-03    6.30       1.4  T
   4  -1291.1297647 -0.737505E-06  0.639E-04    6.31       5.7  T
   5  -1291.1297647 -0.127072E-07  0.109E-04    6.31      33.3  T
     SCC iter.                  ...        0 min,  3.242 sec
     gradient                   ...        0 min, 12.455 sec
 * total energy  : -1283.3139140 Eh     change       -0.3825715E-03 Eh
   gradient norm :     0.0426019 Eh/a0  converged?    E=F G=F D=F
   step length   :     0.7323711 a0

........................................................................
.............................. CYCLE    6 ..............................
........................................................................
   1  -1291.1293634 -0.129113E+04  0.140E-02    6.34       0.0  T
   2  -1291.1293717 -0.825122E-05  0.826E-03    6.37       1.0  T
   3  -1291.1293734 -0.174430E-05  0.160E-03    6.39       2.3  T
   4  -1291.1293737 -0.234518E-06  0.336E-04    6.39      10.8  T
   5  -1291.1293737 -0.426166E-08  0.539E-05    6.39      67.5  T
     SCC iter.                  ...        0 min,  3.215 sec
     gradient                   ...        0 min, 12.540 sec
 * total energy  : -1283.3150268 Eh     change       -0.1112813E-02 Eh
   gradient norm :     0.0119465 Eh/a0  converged?    E=F G=F D=F
   step length   :     0.3687763 a0

........................................................................
.............................. CYCLE    7 ..............................
........................................................................
   1  -1291.1120739 -0.129111E+04  0.294E-02    6.29       0.0  T
   2  -1291.1120802 -0.631926E-05  0.176E-02    6.27       1.0  T
   3  -1291.1120832 -0.300719E-05  0.149E-03    6.25       2.4  T
   4  -1291.1120833 -0.115107E-06  0.519E-04    6.24       7.0  T
   5  -1291.1120833 -0.831756E-08  0.587E-05    6.24      62.0  T
     SCC iter.                  ...        0 min,  3.369 sec
     gradient                   ...        0 min, 12.493 sec
 * total energy  : -1283.3134323 Eh     change        0.1594527E-02 Eh
   gradient norm :     0.0545352 Eh/a0  converged?    E=F G=F D=F
   step length   :     0.3690151 a0

........................................................................
.............................. CYCLE    8 ..............................
........................................................................
   1  -1291.1268985 -0.129113E+04  0.226E-02    6.32       0.0  T
   2  -1291.1269033 -0.472283E-05  0.135E-02    6.33       1.0  T
   3  -1291.1269051 -0.183595E-05  0.127E-03    6.35       2.9  T
   4  -1291.1269052 -0.115833E-06  0.434E-04    6.35       8.4  T
   5  -1291.1269052 -0.476030E-08  0.427E-05    6.35      85.2  T
     SCC iter.                  ...        0 min,  3.074 sec
     gradient                   ...        0 min, 12.574 sec
 * total energy  : -1283.3155098 Eh     change       -0.2077524E-02 Eh
   gradient norm :     0.0083428 Eh/a0  converged?    E=F G=F D=F
   step length   :     0.2544778 a0

........................................................................
.............................. CYCLE    9 ..............................
........................................................................
   1  -1291.1267638 -0.129113E+04  0.466E-03    6.35       0.0  T
   2  -1291.1267641 -0.341869E-06  0.283E-03    6.35       1.3  T
   3  -1291.1267642 -0.898121E-07  0.300E-04    6.34      12.1  T
   4  -1291.1267642 -0.124530E-07  0.843E-05    6.34      43.2  T
     SCC iter.                  ...        0 min,  2.497 sec
     gradient                   ...        0 min, 12.654 sec
 * total energy  : -1283.3157038 Eh     change       -0.1940235E-03 Eh
   gradient norm :     0.0080623 Eh/a0  converged?    E=F G=F D=F
   step length   :     0.1133069 a0

........................................................................
.............................. CYCLE   10 ..............................
........................................................................
   1  -1291.1227442 -0.129112E+04  0.259E-02    6.28       0.0  T
   2  -1291.1227484 -0.427447E-05  0.157E-02    6.25       1.0  T
   3  -1291.1227499 -0.148616E-05  0.106E-03    6.22       3.4  T
   4  -1291.1227500 -0.113160E-06  0.342E-04    6.23      10.6  T
   5  -1291.1227500 -0.242176E-08  0.449E-05    6.23      81.1  T
     SCC iter.                  ...        0 min,  3.064 sec
     gradient                   ...        0 min, 12.711 sec
 * total energy  : -1283.3154393 Eh     change        0.2645173E-03 Eh
   gradient norm :     0.0337747 Eh/a0  converged?    E=F G=F D=F
   step length   :     0.5096525 a0

........................................................................
.............................. CYCLE   11 ..............................
........................................................................
   1  -1291.1273696 -0.129113E+04  0.161E-02    6.28       0.0  T
   2  -1291.1273724 -0.277275E-05  0.972E-03    6.30       1.0  T
   3  -1291.1273738 -0.141039E-05  0.956E-04    6.32       3.8  T
   4  -1291.1273738 -0.384568E-07  0.273E-04    6.32      13.3  T
   5  -1291.1273738 -0.331556E-08  0.356E-05    6.32     102.2  T
     SCC iter.                  ...        0 min,  3.010 sec
     gradient                   ...        0 min, 12.626 sec
 * total energy  : -1283.3162581 Eh     change       -0.8188437E-03 Eh
   gradient norm :     0.0116048 Eh/a0  converged?    E=F G=F D=F
   step length   :     0.2411042 a0

........................................................................
.............................. CYCLE   12 ..............................
........................................................................
   1  -1291.1274476 -0.129113E+04  0.440E-03    6.32       0.0  T
   2  -1291.1274478 -0.227742E-06  0.265E-03    6.32       1.4  T
   3  -1291.1274479 -0.722689E-07  0.251E-04    6.32      14.5  T
   4  -1291.1274479 -0.671730E-08  0.750E-05    6.32      48.5  T
     SCC iter.                  ...        0 min,  2.422 sec
     gradient                   ...        0 min, 12.661 sec
 * total energy  : -1283.3164223 Eh     change       -0.1642093E-03 Eh
   gradient norm :     0.0065843 Eh/a0  converged?    E=F G=F D=F
   step length   :     0.0888609 a0

........................................................................
.............................. CYCLE   13 ..............................
........................................................................
   1  -1291.1245756 -0.129112E+04  0.226E-02    6.26       0.0  T
   2  -1291.1245839 -0.827795E-05  0.136E-02    6.22       1.0  T
   3  -1291.1245853 -0.140991E-05  0.149E-03    6.18       2.4  T
   4  -1291.1245856 -0.313960E-06  0.310E-04    6.19      11.7  T
   5  -1291.1245856 -0.291880E-08  0.559E-05    6.19      65.0  T
     SCC iter.                  ...        0 min,  3.028 sec
     gradient                   ...        0 min, 12.642 sec
 * total energy  : -1283.3164036 Eh     change        0.1873829E-04 Eh
   gradient norm :     0.0224182 Eh/a0  converged?    E=F G=F D=F
   step length   :     0.4507197 a0

........................................................................
.............................. CYCLE   14 ..............................
........................................................................
   1  -1291.1297975 -0.129113E+04  0.130E-02    6.23       0.0  T
   2  -1291.1297990 -0.145440E-05  0.776E-03    6.25       1.0  T
   3  -1291.1297995 -0.484019E-06  0.632E-04    6.28       5.8  T
   4  -1291.1297995 -0.419445E-07  0.211E-04    6.27      17.2  T
     SCC iter.                  ...        0 min,  2.435 sec
     gradient                   ...        0 min, 12.636 sec
 * total energy  : -1283.3167702 Eh     change       -0.3666101E-03 Eh
   gradient norm :     0.0064128 Eh/a0  converged?    E=F G=F D=F
   step length   :     0.2071017 a0

........................................................................
.............................. CYCLE   15 ..............................
........................................................................
   1  -1291.1286717 -0.129113E+04  0.626E-03    6.27       0.0  T
   2  -1291.1286721 -0.448988E-06  0.383E-03    6.27       1.0  T
   3  -1291.1286723 -0.204364E-06  0.352E-04    6.26      10.3  T
   4  -1291.1286723 -0.990531E-08  0.120E-04    6.27      30.3  T
     SCC iter.                  ...        0 min,  2.421 sec
     gradient                   ...        0 min, 12.628 sec
 * total energy  : -1283.3169251 Eh     change       -0.1549310E-03 Eh
   gradient norm :     0.0091729 Eh/a0  converged?    E=F G=F D=F
   step length   :     0.1184066 a0

........................................................................
.............................. CYCLE   16 ..............................
........................................................................
   1  -1291.1270040 -0.129113E+04  0.165E-02    6.23       0.0  T
   2  -1291.1270099 -0.589665E-05  0.100E-02    6.20       1.0  T
   3  -1291.1270111 -0.124720E-05  0.129E-03    6.17       2.8  T
   4  -1291.1270113 -0.221733E-06  0.293E-04    6.18      12.4  T
   5  -1291.1270113 -0.278328E-08  0.463E-05    6.18      78.5  T
     SCC iter.                  ...        0 min,  3.007 sec
     gradient                   ...        0 min, 12.637 sec
 * total energy  : -1283.3171073 Eh     change       -0.1822027E-03 Eh
   gradient norm :     0.0195457 Eh/a0  converged?    E=F G=F D=F
   step length   :     0.3445754 a0

........................................................................
.............................. CYCLE   17 ..............................
........................................................................
   1  -1291.1288883 -0.129113E+04  0.335E-03    6.19       0.0  T
   2  -1291.1288885 -0.193179E-06  0.201E-03    6.19       1.8  T
   3  -1291.1288886 -0.104727E-06  0.256E-04    6.19      14.2  T
   4  -1291.1288886 -0.427144E-08  0.834E-05    6.19      43.6  T
     SCC iter.                  ...        0 min,  2.417 sec
     gradient                   ...        0 min, 12.650 sec
 * total energy  : -1283.3173232 Eh     change       -0.2158339E-03 Eh
   gradient norm :     0.0098690 Eh/a0  converged?    E=F G=F D=F
   step length   :     0.0326780 a0

........................................................................
.............................. CYCLE   18 ..............................
........................................................................
   1  -1291.1301542 -0.129113E+04  0.108E-02    6.18       0.0  T
   2  -1291.1301565 -0.232640E-05  0.662E-03    6.17       1.0  T
   3  -1291.1301570 -0.467023E-06  0.818E-04    6.16       4.4  T
   4  -1291.1301570 -0.885186E-07  0.164E-04    6.16      22.1  T
     SCC iter.                  ...        0 min,  2.404 sec
     gradient                   ...        0 min, 12.630 sec
 * total energy  : -1283.3175723 Eh     change       -0.2491538E-03 Eh
   gradient norm :     0.0063731 Eh/a0  converged?    E=F G=F D=F
   step length   :     0.2166839 a0

........................................................................
.............................. CYCLE   19 ..............................
........................................................................
   1  -1291.1301859 -0.129113E+04  0.698E-03    6.16       0.0  T
   2  -1291.1301864 -0.455238E-06  0.430E-03    6.15       1.0  T
   3  -1291.1301866 -0.168884E-06  0.326E-04    6.15      11.2  T
   4  -1291.1301866 -0.125424E-07  0.960E-05    6.15      37.9  T
     SCC iter.                  ...        0 min,  2.374 sec
     gradient                   ...        0 min, 12.548 sec
 * total energy  : -1283.3176758 Eh     change       -0.1034959E-03 Eh
   gradient norm :     0.0056416 Eh/a0  converged?    E=F G=F D=F
   step length   :     0.1254723 a0

........................................................................
.............................. CYCLE   20 ..............................
........................................................................
   1  -1291.1310286 -0.129113E+04  0.430E-03    6.16       0.0  T
   2  -1291.1310290 -0.417348E-06  0.264E-03    6.17       1.4  T
   3  -1291.1310292 -0.159873E-06  0.346E-04    6.17      10.5  T
   4  -1291.1310292 -0.123548E-07  0.106E-04    6.17      34.4  T
     SCC iter.                  ...        0 min,  2.367 sec
     gradient                   ...        0 min, 12.431 sec
 * total energy  : -1283.3177428 Eh     change       -0.6697208E-04 Eh
   gradient norm :     0.0037875 Eh/a0  converged?    E=F G=F D=F
   step length   :     0.0685404 a0
 * RMSD in coord.:     0.1067068 a0     energy gain  -0.1055386E-01 Eh
 * calculating model hessian...
Using Lindh-Hessian (1995)
 Shifting diagonal of input Hessian by   1.000010589531740E-002
 Lowest  eigenvalues of input Hessian
    0.010000    0.010000   -0.000000   -0.000000   -0.000000   -0.000000
   -0.000000   -0.000000   -0.000000   -0.000000   -0.000000   -0.000000
   -0.000000   -0.000000   -0.000000   -0.000000   -0.000000   -0.000000
 Highest eigenvalues
    0.292202    0.316046    1.218070    1.249853    1.372987    1.429307
 

........................................................................
.............................. CYCLE   21 ..............................
........................................................................
   1  -1291.1298045 -0.129113E+04  0.907E-03    6.16       0.0  T
   2  -1291.1298059 -0.138627E-05  0.554E-03    6.15       1.0  T
   3  -1291.1298064 -0.471106E-06  0.629E-04    6.14       5.8  T
   4  -1291.1298064 -0.444982E-07  0.184E-04    6.14      19.8  T
     SCC iter.                  ...        0 min,  2.568 sec
     gradient                   ...        0 min, 12.696 sec
 * total energy  : -1283.3179829 Eh     change       -0.2401301E-03 Eh
   gradient norm :     0.0036910 Eh/a0  converged?    E=F G=F D=F
   step length   :     0.1448562 a0

........................................................................
.............................. CYCLE   22 ..............................
........................................................................
   1  -1291.1288924 -0.129113E+04  0.827E-03    6.13       0.0  T
   2  -1291.1288939 -0.145961E-05  0.508E-03    6.12       1.0  T
   3  -1291.1288943 -0.405646E-06  0.651E-04    6.11       5.6  T
   4  -1291.1288943 -0.498246E-07  0.159E-04    6.11      22.9  T
     SCC iter.                  ...        0 min,  2.375 sec
     gradient                   ...        0 min, 12.546 sec
 * total energy  : -1283.3180420 Eh     change       -0.5909441E-04 Eh
   gradient norm :     0.0070064 Eh/a0  converged?    E=F G=F D=F
   step length   :     0.1321039 a0

........................................................................
.............................. CYCLE   23 ..............................
........................................................................
   1  -1291.1300085 -0.129113E+04  0.328E-03    6.12       0.0  T
   2  -1291.1300087 -0.222270E-06  0.198E-03    6.11       1.8  T
   3  -1291.1300088 -0.575781E-07  0.260E-04    6.11      14.0  T
   4  -1291.1300088 -0.692421E-08  0.590E-05    6.11      61.6  T
     SCC iter.                  ...        0 min,  2.372 sec
     gradient                   ...        0 min, 12.571 sec
 * total energy  : -1283.3180942 Eh     change       -0.5212787E-04 Eh
   gradient norm :     0.0021628 Eh/a0  converged?    E=F G=F D=F
   step length   :     0.0400621 a0

........................................................................
.............................. CYCLE   24 ..............................
........................................................................
   1  -1291.1305197 -0.129113E+04  0.194E-03    6.11       0.0  T
   2  -1291.1305200 -0.242860E-06  0.113E-03    6.11       3.2  T
   3  -1291.1305200 -0.361176E-07  0.291E-04    6.10      12.5  T
   4  -1291.1305200 -0.483328E-08  0.378E-05    6.10      96.3  T
     SCC iter.                  ...        0 min,  2.375 sec
     gradient                   ...        0 min, 12.605 sec
 * total energy  : -1283.3181062 Eh     change       -0.1205138E-04 Eh
   gradient norm :     0.0005367 Eh/a0  converged?    E=F G=T D=F
   step length   :     0.0381211 a0

........................................................................
.............................. CYCLE   25 ..............................
........................................................................
   1  -1291.1307235 -0.129113E+04  0.146E-03    6.10       0.0  T
   2  -1291.1307235 -0.743785E-07  0.882E-04    6.10       4.1  T
   3  -1291.1307236 -0.133041E-07  0.157E-04    6.09      23.2  T
     SCC iter.                  ...        0 min,  1.792 sec
     gradient                   ...        0 min, 12.571 sec
 * total energy  : -1283.3181082 Eh     change       -0.2000734E-05 Eh
   gradient norm :     0.0005240 Eh/a0  converged?    E=F G=T D=F
   step length   :     0.0220876 a0

........................................................................
.............................. CYCLE   26 ..............................
........................................................................
   1  -1291.1306091 -0.129113E+04  0.238E-04    6.09       0.0  T
   2  -1291.1306091 -0.327918E-08  0.135E-04    6.10      26.9  T
   3  -1291.1306091 -0.592991E-09  0.326E-05    6.10     111.5  T
     SCC iter.                  ...        0 min,  1.784 sec
     gradient                   ...        0 min, 12.601 sec
 * total energy  : -1283.3181085 Eh     change       -0.3365521E-06 Eh
   gradient norm :     0.0000952 Eh/a0  converged?    E=T G=T D=F
   step length   :     0.0060149 a0

   *** GEOMETRY OPTIMIZATION CONVERGED AFTER 26 CYCLES ***

------------------------------------------------------------------------
 total energy gain   :        -0.0109196 Eh       -6.8522 kcal/mol
 total RMSD          :         0.1048414 a0        0.0555 Å
 total power (kW/mol):        -1.1026691 (step)   -0.0650 (real)
------------------------------------------------------------------------

 L-ANCopt (total)              0 d,  0 h,  7 min, 21.045 sec
 setup                          ...        0 min,  0.030 sec (  0.007%)
 model hessian                  ...        0 min, 15.421 sec (  3.496%)
 ANC generation                 ...        0 min,  5.048 sec (  1.144%)
 coordinate transformation      ...        0 min,  0.002 sec (  0.000%)
 Rational function              ...        0 min,  0.000 sec (  0.000%)
 singlepoint calculation        ...        7 min,  0.360 sec ( 95.310%)
 optimization log               ...        0 min,  0.177 sec (  0.040%)
 hessian update                 ...        0 min,  0.001 sec (  0.000%)

================
 final structure:
================
$coord
        9.44436622616800      -14.40878574487500       -0.12336600934100      o
        7.61829546020200      -14.26617986097900       -0.28015796918400      h
        9.83653616370400      -13.87050228367700        1.56679327887200      h
       -2.39769036579500        5.71839986321400        8.13953437152600      o
       -0.89260191018000        4.86037199009600        8.75184040863700      h
       -1.81378060765500        7.22489757345200        7.29045921190900      h
       -0.79149364543700       -5.69376651804700       -4.16398260216200      o
       -0.39873752549400       -6.54780679464600       -5.74128141182800      h
       -1.35970225837000       -7.07485068538300       -3.07613870577100      h
       -9.95512431600000        5.42514038660700       -3.08067709768900      o
       -8.61673079281600        5.30109075813300       -1.82788214425500      h
       -9.09955062146900        5.45457520415700       -4.72199501940000      h
       -6.05361034996100        4.56352022571800       -0.09335013961100      o
       -4.63291084673600        4.98082193327800        1.01347671383300      h
       -6.29769818774900        2.75441996411600        0.09510832343800      h
       -8.06590285625700       -5.78033504708800        5.82598520635600      o
       -9.17831709208400       -4.99838008515300        4.56002147673500      h
       -9.13305212756100       -6.53752938268700        7.11193432556000      h
        0.30271006240900       -9.33900716217500       -7.60476180911500      o
       -1.00985798085900      -10.55552587369300       -7.23227246178300      h
        1.75026348562300       -9.72302279145600       -6.52694690962300      h
        0.29399511063600      -10.52589428729400        2.44545592699900      o
       -0.14702720993700       -9.98972678058800        4.13959919952000      h
        0.97284756661700      -12.23217944890500        2.66473438767900      h
       -4.67728046288300       -7.92449180204800        2.80659995593900      o
       -3.07614316703600       -7.07856731447600        3.15148921006200      h
       -5.88715121999000       -7.33093232766700        4.07529338411100      h
        1.03592899910300        3.98969017508400       -9.39579333227600      o
       -0.79570391705800        3.85374374325900       -9.30455231201700      h
        1.52467042914900        5.46135953612200       -8.36470530234000      h
       -4.27312686886800       -2.36379948828500       -6.33768659919400      o
       -4.52127875562900       -4.07725115947000       -5.72831798535700      h
       -2.58089778763400       -1.81064809039600       -5.87050948882400      h
       -2.45218532878800        7.94213192380900       -7.86803660100600      o
       -1.56709193588600        9.52244353111500       -8.19412486923600      h
       -3.16152123505800        7.50034854842400       -9.49707906382800      h
       -7.69873402704400       -8.86336730814900       -1.24207688875400      o
       -9.48771547817500       -8.41866124311500       -0.94833775132400      h
       -6.82893649209300       -8.33370209634500        0.28710929207400      h
       -3.55293441766600        3.35449908750800       -4.80288778622100      o
       -5.21580700406500        2.64781797048500       -4.42391988933900      h
       -3.21050814768600        2.85832999135300       -6.52089591094700      h
        0.03675003079300        5.51680287112100       -2.00895733539300      o
       -1.19083858800000        4.61638145713200       -3.03929429752900      h
       -0.06153622134100        7.24789866801900       -2.55787160506500      h
        0.45628901854200       -0.38394792795900       -5.80039721737100      o
        0.29728115584600       -0.44421838761600       -7.63648150262500      h
        1.68069337956800       -1.67494378688900       -5.33966557217500      h
       -4.14477522276800       -2.63069363940500        5.69797828840900      o
       -4.70547299670400       -0.91006754617500        5.35493979654400      h
       -5.64460112760700       -3.65086907759400        5.94391054124300      h
       -9.31212530750100        0.28045263849800       14.23736458006500      o
      -10.67873966390800        1.23969655763400       13.45608748078100      h
       -9.97534433509100       -1.39757640058100       14.46156189761400      h
       -0.56109159320300      -10.04688508251500        7.55254765747100      o
       -1.08253071003100      -10.45614207590900        9.27151064182200      h
        0.31203348779600       -8.44068765936800        7.74999133655100      h
       -7.04973516643600        2.96103906430100       10.13199768504800      o
       -7.74133364366400        1.63177432378700       11.17748211081500      h
       -5.60785524419500        3.57188143647700       11.12276648641300      h
       -0.46291598320000       -5.23516624637300        3.82621309615600      o
        1.01646417648400       -5.87554308947400        4.71397475658700      h
       -1.48678292147300       -4.17291406871900        4.94947188754900      h
        3.13659335569300        4.75113562551800        3.12935564086800      o
        4.20991782621200        5.23738970983000        4.54281235403000      h
        3.06626803143400        6.20197806175600        2.00430869610700      h
        2.63950431335600       -6.83190953708000       -0.34912306416900      o
        3.52145791922400       -5.74256783842100        0.84413625237800      h
        1.81984745281800       -8.11003198606800        0.68173037839900      h
        0.35925369846800       10.74361683984700       -3.75589793030800      o
        1.44832971942100       12.16766494728100       -4.18905458428100      h
       -1.31508207608900       11.29981603215500       -4.30206074029000      h
       -4.85083242654800       -1.65230441364800       16.44653232963900      o
       -6.05916141615800       -0.47574054334800       15.75673320391700      h
       -5.49252047319600       -3.33834543608300       16.08600143721200      h
      -10.68741884411300       -0.35927709667600        7.35987822851600      o
      -10.57278057734400        0.54178301331400        5.75943670387500      h
      -11.25519298070400        0.86932016693200        8.60524374573500      h
      -11.85224557268400        0.91281824581800       -1.52227893749600      o
      -11.29794896099700        2.43805265668400       -2.40037069639000      h
      -11.40108281788200        1.21540565329700        0.23567178000100      h
        3.47907368393000        8.97834971045400        0.03256597137200      o
        2.10737310953200        9.86720554413100       -0.77518712633300      h
        4.83920937740200        8.98566569319300       -1.21057141514400      h
       -5.66132994584800       -7.24398592978100       -5.61723668057800      o
       -4.92417006770100       -8.91864964567800       -5.89706193894300      h
       -6.65419064813900       -7.40992443817400       -4.06844409829700      h
        3.98407759452900       -3.89797352819000       -4.42839340904400      o
        3.91425985973000       -4.39918503055100       -6.22280879492100      h
        2.77353854132000       -4.97384017975400       -3.55424352304900      h
       -9.43221717199300      -11.91071958496500       -7.44868547450400      o
      -10.14152065113300      -10.32561849161800       -6.78117107734400      h
      -10.62910437383500      -12.52865673234000       -8.65180271597500      h
       -9.47190948227800       -4.03426082027800       -3.04745148780600      o
       -9.98046599167900       -4.02847019730200       -1.28090707355800      h
      -10.39336866799600       -2.65996675424000       -3.84567239283900      h
        2.08386765863700        3.33014721834400        9.36983718725900      o
        2.28035704444300        1.68871124261800        8.60464459432700      h
        3.35266562399100        4.43210639172200        8.64858890119400      h
        4.97077273539700       -3.43113439776300        2.84949106033000      o
        6.72512276680200       -3.95186480575500        3.19918175641200      h
        5.03853216916400       -1.91531147956000        1.82491986749400      h
        3.06074877669500       -1.67178972108500        7.14940737381600      o
        3.77923102950400       -2.52121963441900        5.66142858595200      h
        2.11147384470000       -2.96195860664900        8.08750575752300      h
        5.56584737522500        6.64258534295300        7.22123792243100      o
        4.69902069752600        8.19022985511500        6.65929577548400      h
        7.34837969190100        7.11677866902300        7.21336803418200      h
       -7.51484198584000        5.83744526002500       -7.44083246812200      o
       -5.73721200208000        5.53420205471400       -7.17039293752000      h
       -8.15636032243700        4.42400944231800       -8.45090029397700      h
      -11.22106543429300       10.13496379190600       -4.30357042458700      o
      -11.64582351894700        9.74165617642000       -6.04508929862200      h
      -10.76485314297100        8.49183541862700       -3.57305851653600      h
        3.46032472370400       -6.97798237135100       13.28282869600300      o
        4.46477389485700       -5.43516202604800       13.48751422897500      h
        2.26924292173900       -7.03842353524400       14.65952479571800      h
       -4.33806934485400       -6.69927785332300       10.16000640598200      o
       -5.31475116693400       -5.20431958678600        9.67918234203800      h
       -4.94861798199700       -8.10744289257600        9.16309105081300      h
        0.60232406585300       -5.40939993037500        9.35334724908600      o
       -1.18117076686200       -5.56630148298500        9.79092317232200      h
        1.57774415382100       -5.95161266377900       10.82425302818200      h
       -0.44746532570200        1.20625494130300        4.93133005299600      o
        0.90851476818900        0.09450872246500        5.46109422937000      h
        0.29971586288500        2.78612366468700        4.39852798379900      h
       -0.47365971243700       -5.31851811848500      -15.66251602950600      o
        0.10210324570600       -6.82580766924900      -14.79628197685600      h
        0.80225323249900       -4.03690134852000      -15.38609101626900      h
        7.00470063849700       -5.38317765959900        8.71726097489500      o
        6.33984115228200       -4.46852104604800       10.17537437587500      h
        8.64122989789800       -4.61226879458100        8.42332612988700      h
      -14.61779006376800        3.21758447802500        5.99358704982900      o
      -12.98565026225800        4.04593581742300        6.24162590301000      h
      -15.69340223973300        3.93303316265000        7.30928223484100      h
      -18.08003330094000        9.74261572710100        6.43136109420100      o
      -16.86012949743900       10.93796706929500        7.04066884053200      h
      -17.79877223598000        9.71216802683500        4.59860101830500      h
      -17.60745086287300       -6.69867165871800        2.01839017818000      o
      -16.63693618712900       -5.63749140448700        0.89006990493100      h
      -19.29641205349600       -6.72250184257700        1.35221934933500      h
        4.82022861715600      -12.39300131434200        7.03424572873700      o
        4.19597175698700      -10.71501867994100        6.54310225292000      h
        4.41977525716100      -12.51947537069100        8.83223856312300      h
       12.31549170140100       -6.52917882034500       12.02533270420600      o
       11.63857404851400       -5.07335572601900       12.89242920264600      h
       11.07824058369400       -7.88224306256100       12.18790028090000      h
        3.87692511012300        3.10558961698400       -4.35977429056600      o
        3.62617355534100        4.81289731044000       -5.01073948529100      h
        2.42056675092200        2.13317609301700       -4.95422892057000      h
       10.93181572484800       -9.29359034475500       -4.14323625376500      o
        9.78957584496400       -8.26579121143600       -5.18050283642200      h
       10.57445246853600      -11.07285043219700       -4.54267904520300      h
      -17.45546342921100       10.69993066198600       -4.70608161545000      o
      -16.46190246005700       11.92022707854100       -3.77393297418000      h
      -19.10063510155400       10.64638616179400       -3.90300498834700      h
       12.00288800883100        5.16246239398100        2.07510662627500      o
       10.39284495463800        4.62778764340700        2.75111747205500      h
       12.91394215503500        3.63496990271300        1.60475078464300      h
       -1.80044939081500        0.54288954102100      -15.61817330170200      o
       -1.91749006599400       -0.72493192167800      -16.90197417005400      h
       -3.51627518140100        1.08652516342100      -15.21375717354100      h
      -15.45064859495300       -4.06987928411700       -2.44709241814400      o
      -17.11819246031100       -3.93911762705000       -3.14799263993300      h
      -14.38335840886300       -3.07642619960700       -3.57019346560700      h
       -5.62943990185800        2.23781275692000        5.28653969333500      o
       -6.06107876555400        2.53526187066300        7.06136527465300      h
       -3.93205988707800        2.87718090134900        5.07814340567100      h
        6.54264844600500       -9.37241461849700        1.65313021991900      o
        7.87594854623900      -10.15540315715800        2.67133107382600      h
        5.67227967354500      -10.76158050102200        0.80799478949600      h
       -4.94894362599800      -12.85913904709400        2.14757703741800      o
       -4.63387954085600      -11.05445024999800        2.49181422950800      h
       -6.75253291194000      -13.02300206475200        2.32974409142200      h
        4.73177971782100        0.62335418834900       -9.54552382730900      o
        3.34495722284100        1.82860043834800       -9.29885033929800      h
        3.91924818632600       -1.01142002398200       -9.74374460440700      h
        3.19847626785800       -1.91319584405400      -14.36499870308100      o
        4.32491929982000       -3.32341272355500      -14.05165179546800      h
        4.20693205335400       -0.50070348827900      -14.92754357131700      h
       -2.20049746638800       -0.32235817068200        9.83967630336200      o
       -1.82333467768400        0.21088882296300        8.12984553380100      h
       -3.88840355479400       -1.03948082519600        9.79277584376900      h
        0.48677012235900       -9.74303459166000      -12.71557213777500      o
       -1.19772629855600      -10.23891611347800      -13.19260516580000      h
        0.41224232840200       -9.43829230058000      -10.89085811680600      h
        3.76827835950500        0.80147603281400        0.16151408754800      o
        3.38925882850700        2.12834427692500        1.40122000953000      h
        3.79477053190100        1.65956201708300       -1.46628087609100      h
       -2.20758079740600       -9.86214232901800       -1.81116164024100      o
       -1.48273242410300      -10.08625251489500       -0.12201299239500      h
       -4.01289754835600       -9.98396344298700       -1.63600084346000      h
        9.73426648378700       -4.78450068791700        3.57445045956800      o
       10.37678163060100       -5.62224443563600        5.07573634381000      h
       10.15988176872900       -5.97779544230600        2.25281376130900      h
       -5.37755803565700       -4.01640081151600      -15.45640676547600      o
       -3.58914397209700       -4.36801614434500      -15.73172821334000      h
       -5.47609111907000       -3.24339761273900      -13.78418900974700      h
      -12.46143479237900       -7.76537349394000       -0.23377529903700      o
      -12.66308662998900       -7.38817590669000        1.55213057624600      h
      -13.40003972468500       -6.48885142967000       -1.14177762154800      h
       -3.81539361479700        2.61199466469900       -9.90569051738900      o
       -4.84959993084400        2.97653410862700      -11.36398510491600      h
       -2.86693849713000        1.09139583227700      -10.36483642702300      h
      -17.43743753293600        4.68985618788700        2.17582211223500      o
      -16.19233740429400        4.05710080380200        3.40042009628300      h
      -16.94911667538400        6.42445142049400        1.80374474009000      h
        8.62032703540600       -9.78683352550000       10.88841620424100      o
        7.74529852208700       -8.39169999822000       10.05584592882900      h
        7.34913445959500      -10.88355149010000       11.56973355998000      h
        3.32046561260000        1.22587180654700       13.93890543312500      o
        1.85799377339100        0.20574406315200       14.39426509729500      h
        2.82700877944000        2.20884529751000       12.46450109118400      h
        7.57769961940500       -0.22260392047100       -4.53990062498200      o
        6.46093470891000        1.23909148930500       -4.62687135119900      h
        6.44278900382100       -1.65088662445500       -4.62216395560900      h
        8.37634122656700        9.64365405025200        2.55334834947400      o
       10.05883256888200       10.35137944684200        2.56592880181600      h
        8.40394432784200        8.20979011059500        1.42308193798800      h
       -7.81491064808800        0.76278046433800       -4.85050511108500      o
       -8.99441948185800        1.14735456470700       -6.18731769936600      h
       -6.70612020119700       -0.56440289138700       -5.49926389524000      h
        9.51476880072300      -11.82044958167700        4.96263791494000      o
       10.30603927481700      -10.43009555493700        5.88778716681800      h
        8.02728666609700      -12.29240576626400        5.94540105975100      h
       -6.40909992315200        2.49643406351200      -14.47651425346600      o
       -7.68404095860100        1.15466284265500      -14.67063825191600      h
       -6.84379631864800        3.82330604361200      -15.62468334070100      h
        9.06285088365300       -2.25461098687400       -9.01284134941900      o
        7.72336570604000       -1.06188185108300       -9.34360383399700      h
        9.67346829340300       -2.90518649705400      -10.62771814968000      h
      -18.30419001394700       -5.54743622278900        7.06945106768200      o
      -17.98524971159900       -5.82441423938000        5.27625484039100      h
      -16.81237965233000       -4.69491124146200        7.77569505046400      h
      -18.89181415354100       -1.33733222757900        1.41000347086000      o
      -18.09990051953500       -0.13954249678100        0.22082048650400      h
      -20.23245465196300       -0.43587012110100        2.30932389460600      h
      -14.87297456300400      -11.09765935047900       -3.58367091926800      o
      -16.39169477180500      -10.09993656057700       -3.47473631879000      h
      -13.53440340161300       -9.91921987426300       -4.03490006392200      h
      -14.24167476565400       12.62300757746100       -1.19286868695000      o
      -13.22015100289800       13.76764333372900       -0.21971048567000      h
      -13.04377697333400       11.68668351621900       -2.26940893964300      h
       -9.82166060385900       14.24990813475200        1.41436714722000      o
       -8.41034721163200       14.73182481480800        2.53350738918800      h
       -9.27611697940300       14.73805814558200       -0.29128166542900      h
       -4.54215095448400        8.56259501778300       -3.05133937766000      o
       -3.98639986608600        8.36698271010400       -4.78935231816300      h
       -4.81044418688700        6.87179135361900       -2.39348473439700      h
        0.38413032789800        6.92632989180200       13.80005359508500      o
        1.98963586700600        6.22872603255900       14.29345415088300      h
        0.74167613249300        7.84601264442100       12.23795838317000      h
        3.59802320303800       10.62192921196200        4.86812240042200      o
        3.94667105990200       10.12167737725500        3.12926934558800      h
        4.30958084366700       12.33056393220700        5.05832107959400      h
       -3.51022527290800        7.42060378218100      -12.99184732597900      o
       -2.03811903614300        6.50081937610100      -13.65103116033400      h
       -3.16874176925100        9.17398520072500      -13.28901323197400      h
        0.73177893509600        4.75891341173700      -14.31042439578800      o
       -0.06185644504100        3.22582178625700      -14.94808294596800      h
        0.94245079333200        4.49854964591600      -12.47873294007400      h
        7.30128299428400        5.09436370621800       -0.37433229670500      o
        5.81919894800500        5.04260086251600       -1.42215580163100      h
        6.93116146808700        4.18257403917900        1.16965794165100      h
        7.60973933479300        7.70067297449600      -13.52750617023900      o
        6.99198665660700        6.01098657791900      -13.89033868953500      h
        9.23106967502700        7.51602565801900      -12.70677917093400      h
        0.15260429350300       12.15404314765900       -9.40437201836700      o
        0.81454453598400       13.35953779174100       -8.20771760260400      h
        1.64722250725600       11.44946962290100      -10.20319996668000      h
      -10.40298547617100       -3.32838052621500        2.07246113410100      o
       -9.23601014506900       -1.94785930899600        1.75556683425900      h
      -11.97390757777500       -2.57191298847600        2.66180974140900      h
        0.70718922464700      -13.59416706568200       -3.86088375528500      o
       -0.46095508280200      -14.95786822661300       -3.56892282824100      h
       -0.20940475975900      -12.09717849346000       -3.28384261447700      h
       15.79467680735200       -5.76553252515000        1.22412838885000      o
       15.92194536458400       -4.50196421176500       -0.12173476993300      h
       14.16394300522300       -6.64964600311800        0.99948393171700      h
        3.78364515039800       -7.63642057616000        5.54242140015600      o
        4.91280917362200       -6.71908312821300        6.66954201584600      h
        4.76286191152700       -8.04774525855500        4.02748748821900      h
        2.89108839843200       14.76597924238100       -5.53724342217600      o
        4.64494669536600       14.44751965154400       -5.97041963159900      h
        2.85805443264900       15.70590384231600       -3.98085306311200      h
      -10.97067773377100       -4.62043754166600       12.71620704223000      o
      -12.44209997855900       -3.89732073899000       11.86974234153600      h
      -10.74071617098600       -6.19971203524500       11.79017454453700      h
      -12.50408056517800       -3.03103368160600      -11.23719505105000      o
      -12.48444928019000       -4.85370360774800      -11.41616124226500      h
      -14.26339684078600       -2.54202069208300      -11.10950656175200      h
       -8.31777091120700       14.34858609986400       -3.34704129633200      o
       -6.58580537153100       14.08305192876200       -3.87196441963500      h
       -9.25929568345400       12.91144917338300       -4.00197740677700      h
       -7.17414621633600       10.82919487942500       -8.56648830412700      o
       -7.80647428973000       10.95530413608500      -10.25595645077400      h
       -7.47642158754100        9.08459285930000       -8.04929012671500      h
        7.26651032888300        0.70958559406000        8.51102623684200      o
        8.73106421523100       -0.43525493140000        8.55646334859500      h
        5.76141591193800       -0.35113515308700        8.42877436721300      h
      -11.52302186246600       -7.68299244585800       -5.67452738936700      o
      -13.02068796569200       -6.89063521701600       -6.36767468390500      h
      -10.67370803726500       -6.37943992737000       -4.63339236402600      h
        5.38553895040800      -11.23372312805000      -11.72610982679000      o
        5.31922919231300      -12.12632336884600      -10.12036056632500      h
        3.66331805149800      -11.14724279459800      -12.34285154467900      h
        4.33614706799800       -9.37722082067500       -4.50010314369900      o
        5.56348309978400       -8.28709476499400       -5.33423580333000      h
        3.90841424195000       -8.66287114718400       -2.85573856726200      h
       -8.29796135514200        9.56882379261700        0.29952779698100      o
       -8.85540452059500       11.29866154849500        0.66373460756800      h
       -7.15967730151500        9.62051514704200       -1.13274379666300      h
      -12.76232228629800       -1.53519736959200       -6.13928683878100      o
      -13.05149932519800        0.27900298153400       -6.15186826697700      h
      -12.39018995638600       -2.00435598366400       -7.86688413160500      h
      -17.50278111138000        9.70564102981300        1.36453964820800      o
      -16.15766277258400       10.79975083509800        0.70909632983900      h
      -19.02780562698400       10.16638960393000        0.48292073283700      h
       10.20000236215700       14.17866722258600        6.77685014601700      o
       10.44727311751800       12.48881335452700        7.41356389596200      h
       11.02969450992700       14.19341463482400        5.13879575248600      h
      -13.61272336078800        3.55214688382500       -6.55703936106400      o
      -14.44489190144000        4.40555058280500       -5.14375724572900      h
      -12.55782839440200        4.87563933510700       -7.28827736834300      h
        5.63513195483900        6.90934386201700       12.61830798341600      o
        5.45956768134700        6.78318900834900       10.79545934910400      h
        5.95521489774500        8.66180480090900       12.95074414913400      h
        5.58409449888300        2.84368978723700      -14.12191961612300      o
        3.98847997493300        3.67695440692200      -14.52887284933600      h
        5.37220567830100        2.16780407098400      -12.41142004590300      h
       -1.68372126270100      -11.01754415165200       12.44358352246700      o
       -3.38073398618800      -11.57646547926100       12.71965293935700      h
       -1.46312488824600       -9.48946188031600       13.48090644560200      h
       11.13890281679900        3.35394781306400       -3.17507681509200      o
       12.74181910178800        4.13636016502300       -2.67050339937100      h
        9.87998015523200        3.95026340757700       -1.95863911914900      h
      -14.74574960987600       -1.73333574122200        4.20704266732900      o
      -16.28311228528600       -1.74616746248700        3.18858916065300      h
      -14.60268505377600       -0.02724980094600        4.87116469970800      h
       18.25636374699800        8.59218579290400        7.06396310283600      o
       19.74964905634800        8.58410781786100        6.04152483271900      h
       18.34077681455900        7.16500621474200        8.21175015778300      h
      -22.87236469949600        0.65881124483700        3.77264189394700      o
      -22.70023702360200        2.43000635666000        4.23408151193000      h
      -22.63309849293200       -0.29269941191400        5.33019747277100      h
      -10.27387316359700        5.60063632118300        7.33697889342400      o
       -9.00621078199800        6.24571783432300        6.14629071438200      h
       -9.28286520097300        4.72209974517800        8.62763641279700      h
      -12.41193974869600        6.90254855112300        1.52743777274200      o
      -12.96763165824600        8.26391411736000        2.65441127874600      h
      -10.88350408613600        7.59611181912800        0.77305709961900      h
      -12.82178677859300        2.35845704424300       11.23147435927200      o
      -12.85702475575000        4.18143130791400       11.57507208586400      h
      -14.53855710183000        1.77714463996400       11.38526017595700      h
       -1.16713019830100       -6.98319297715100       15.49474781777300      o
       -0.94612813955800       -5.20957806539200       14.94601086411000      h
       -2.77043356946200       -7.01265557235000       16.34667953891300      h
        3.54682124360400      -11.89740623170400       11.91005124256500      o
        3.63172276015800      -10.11852813214200       12.38203401540700      h
        1.80012010134400      -12.34586948218400       12.17126424480100      h
       -8.98705807388600        7.71769710550300      -12.84984323343800      o
       -7.21431239146600        7.27794674000200      -12.78562171454600      h
       -9.89783283147900        6.24724217117700      -13.44505773150600      h
        7.01456227276300        9.00145441245900       -3.78014752145600      o
        8.65368960280000        8.93933522332400       -2.89747527246400      h
        7.06473011274100        7.63146555069300       -4.99803967351100      h
       12.95751059200800        0.50923874601100       -7.00977306696800      o
       12.23540601121100        1.34524555552500       -5.55137401312400      h
       11.57730240581400       -0.28569207830300       -7.92686243074800      h
        5.62324383723500       15.16947778236000        4.82636836454400      o
        7.24911694202400       15.01397277275300        5.69474654976700      h
        6.05582514902500       15.08077318855300        3.04455196714200      h
       10.13593492774000        8.78573396389000        7.95880798600500      o
       10.98781520940600        7.61821617164700        9.12743565606000      h
       11.31709650864400        8.97200458235900        6.54375536828600      h
       12.59642936395300        2.07425474499800        6.48369193566600      o
       11.01684771450700        2.19130116891300        5.56524491094000      h
       13.89466558105700        2.81628956826300        5.43435538065300      h
       11.78808179720300       -8.53834725286600        0.70573784104000      o
       11.34803712691700       -8.92094509389900       -1.04899675488700      h
       12.53257753989700      -10.05168511738400        1.44270112306000      h
       14.92952301975300       -2.72380183740300        5.04099101556300      o
       14.33009554019800       -1.33278512988300        3.96640484419200      h
       15.21702362210300       -4.11222737386700        3.83006590664900      h
       21.40849737798600        4.00994924592900       -2.70280367149600      o
       22.73106369990300        2.91361420519100       -3.34502680557400      h
       19.90036065306400        3.32682138911300       -3.59387894464700      h
       -6.69398967559600        7.69146279131500        4.60211230845400      o
       -5.17495223434200        6.70263001361800        4.46311345275900      h
       -7.14452185681600        8.32750416070400        2.91468863042200      h
       12.04257660958400       11.39782255685000       -8.41153503062500      o
       13.32455408760400       11.32394401698200       -7.12217190209600      h
       12.02349353390600        9.77079548845300       -9.27346283417400      h
      -17.49547636646400       -1.76580897807300       -9.76258241463400      o
      -18.40322086969500       -1.48671524528500       -8.19090591761300      h
      -17.15753340685900       -0.06666072536800      -10.39338364936500      h
        8.73971171871600        2.85127676329100       12.94619164379800      o
        8.01295099415300        2.10553616325100       11.41795289559500      h
        7.53721240780500        4.14379049432300       13.44046301687300      h
      -16.01897548299800        2.99087845592600      -10.88237349635900      o
      -17.04475311864300        4.48711970106200      -10.98892421246500      h
      -15.16784404605700        3.11933407928400       -9.20987795582900      h
       -7.05331574848900       -2.48424986478100       10.04809721850100      o
       -8.21557175605000       -3.07858174971500       11.33702025499000      h
       -8.15531453694700       -1.73724105453800        8.76360947482900      h
      -15.53842574357800        6.29292660761700       -2.69240207203900      o
      -16.05316395965300        7.90553664475300       -3.41444603968800      h
      -14.31449313449300        6.61073125081000       -1.34752392100100      h
       -2.21116676990200       -5.73989237500500      -10.06434962492500      o
       -2.90887910470700       -6.79605558428600      -11.41417036419900      h
       -3.24104210505900       -6.07404305638500       -8.60600919075800      h
        7.87636850929700       -5.57152411896900       -1.40640435720900      o
        7.41627249553400       -7.04416359501200       -0.38619254708700      h
        6.42234418519800       -5.10990083285100       -2.41857715427900      h
      -21.72222384707200        9.96817187628200       -1.86445920087300      o
      -23.42221334737600       10.51806506802700       -2.13469536351600      h
      -21.75012667985800        8.12263123872700       -1.68156619825300      h
       16.63754151359400       -5.07504870447400        9.54483561425100      o
       15.28331916076700       -5.72811574499600       10.60068087166100      h
       15.82801635863900       -4.25136380576900        8.12067712376800      h
       11.19748954915400       -2.39515159891800        8.60020661999000      o
       12.30079020345700       -1.61601129647900        9.84591734818700      h
       12.18708225368600       -2.40604254234200        7.05399618230000      h
       21.24073026626300       -3.06782013252000       -0.99707726518700      o
       22.63880606113000       -2.21327856227200       -0.16279076977000      h
       21.03548696820400       -4.66023161520600       -0.12033067426200      h
       17.12573298595600       -8.63063106585500        5.89869275165000      o
       17.44820752180500       -7.73364408194700        7.47235942111300      h
       18.27012876819400       -7.86699067718800        4.67138724026000      h
       11.61208579994500        6.62120123718100      -10.36198489651700      o
       13.24633311888700        5.84503221283500       -9.97619902298900      h
       10.43125829481000        6.10767372921500       -9.01286948139100      h
        1.64487694293600       14.71580857631700       -0.20627514133900      o
        1.48247546899500       15.84181683392800        1.20152398385400      h
        3.38340056052300       14.08763756269500       -0.14675987475300      h
       -0.49065257036900       -2.20142666485700       14.16494701076200      o
       -1.97034061800000       -1.66928470339000       15.16448237722800      h
       -0.92710683524100       -1.79664137967700       12.41975612727600      h
       14.54606194642600      -12.16149934390600        3.10163722095700      o
       13.21034377422000      -12.91467213141400        4.08028223170400      h
       15.53960898282000      -11.15039393624000        4.26879672588300      h
       11.50612453944100       -3.78896412839100       -4.27966801294500      o
       10.47285865590700       -2.38532501396600       -4.83052466502400      h
       10.42557538451300       -4.80871936938500       -3.18507630562200      h
        6.07668772709500       -2.74435886719700       12.87940914486800      o
        7.74692150698200       -2.51968765059900       13.58410307710500      h
        5.11295922183100       -1.18833134326300       13.29929986220500      h
        6.21346873314200       11.66881457188800       10.12215389470800      o
        7.55918456076500       10.69117626898800        9.34429367259700      h
        6.49081083850800       13.38697798484400        9.61922267653800      h
       -1.28937855870800        9.79325918918000        4.96147441388500      o
       -1.92762277540000       10.74098768662100        3.51693378320900      h
        0.52417027935000       10.16631031216300        5.07788213348400      h
       -2.00413177183800        5.50501149482500        2.52630474200600      o
       -1.01677470059800        5.47116094142100        0.95453488345300      h
       -1.55738357086600        7.06793913517800        3.40904137169500      h
        6.57055856784200       13.54194078842300       -0.01704529178000      o
        7.15201029103200       12.01329385865900        0.89076742262100      h
        7.97020974408500       14.06310401244400       -1.05685495952700      h
       13.65802866510200        0.40342654179800        1.29875099772800      o
       14.73352606950600       -0.26436916601400       -0.01414653437700      h
       11.91996270040000       -0.11731675110200        0.85743430490600      h
        1.40293599048500        9.71258963508700        9.65308918376400      o
        3.04379181656400       10.52403039219800        9.81534511592600      h
        0.21208619149700       10.98338943476100        9.16305250380600      h
      -17.29142491251400        5.78488855624700        9.48265795699500      o
      -17.70780221980800        7.23865866023800        8.41083690387600      h
      -16.14974949358200        6.41624925511700       10.76508605698600      h
       -8.49653176650100        6.32457855709800       14.39107128979800      o
       -7.81310215446500        4.72560451804000       14.90748063191500      h
       -7.15920610779800        7.17039048843500       13.44760734011900      h
      -13.17442848073300       11.11956027362200        4.22458207709100      o
      -12.07977659829900       12.33327575905300        3.41654980828200      h
      -12.55497242039500       10.94777943878400        5.96067775455800      h
       15.89254228139000       -2.39950236278100       -2.53171010636400      o
       17.15496143069300       -3.30555629299000       -3.56316466433200      h
       14.24151650148400       -2.80806664934900       -3.29763414285800      h
       -8.23770430006800       -6.87970392832100       -9.94265990360200      o
       -7.63501378177100       -7.04754587016800       -8.19571857093800      h
       -9.90409465497400       -7.60382169577700      -10.03810235043000      h
       -9.83038772678900       -1.16030477197800      -15.28002523936900      o
       -8.58550805093200       -2.39567959496200      -15.79618685013000      h
      -10.64428839950500       -1.85210455868800      -13.77362063989700      h
      -21.60308937160300       -1.99769587604700        7.99750386420600      o
      -22.87131592994000       -2.73479708784200        9.05380371957000      h
      -20.41940844850400       -3.39711111036800        7.54408621054500      h
      -12.87592923021700      -13.26750032418200        0.57845520005900      o
      -13.70411559729500      -12.28004950798500       -0.75999198661700      h
      -11.58719461509000      -14.18725377674000       -0.33615282089000      h
       -2.75656264594600       11.91027562522200        0.62168660081900      o
       -1.34493930899400       12.89689547071600       -0.00604037274800      h
       -3.32764634765300       10.82989081050100       -0.75327414825000      h
      -10.43879950585900       -8.54769480400600        9.60777838904100      o
      -12.08464400454400       -9.27802032838700        9.26463512377700      h
       -9.17976553659900       -9.86125435378700        9.41759007350400      h
      -21.76519868503000        5.64104549371600        4.43208162705300      o
      -21.61471768174600        6.97305945346200        5.65011065176900      h
      -20.01973383739100        5.30986165845400        3.83984754333500      h
       18.86920995679200       -5.13462820076600       -5.45967481142300      o
       20.30086209411200       -5.77101348497100       -4.49610019788100      h
[...]
   382   8 o      384   1 h                                       0.9867023
   385   8 o      386   1 h                                       0.9705150
   385   8 o      387   1 h                                       0.9949595
   388   8 o      389   1 h                                       0.9619659
   388   8 o      390   1 h                                       0.9836047
   391   8 o      392   1 h                                       0.9629545
   391   8 o      393   1 h                                       0.9743906
   394   8 o      395   1 h                                       0.9717372
   394   8 o      396   1 h                                       0.9756428
   397   8 o      398   1 h                                       0.9785951
   397   8 o      399   1 h                                       0.9701279
   400   8 o      401   1 h                                       0.9616347
   400   8 o      402   1 h                                       0.9953833
   403   8 o      404   1 h                                       0.9707759
   403   8 o      405   1 h                                       0.9789539
   406   8 o      407   1 h                                       0.9738607
   406   8 o      408   1 h                                       0.9768601
   409   8 o      410   1 h                                       0.9792352
   409   8 o      411   1 h                                       0.9611608
   412   8 o      413   1 h                                       0.9787902
   412   8 o      414   1 h                                       0.9688102
   415   8 o      416   1 h                                       0.9562417
   415   8 o      417   1 h                                       0.9815131
   418   8 o      419   1 h                                       0.9721930
   418   8 o      420   1 h                                       0.9702888
   421   8 o      422   1 h                                       0.9723230
   421   8 o      423   1 h                                       0.9714661
   424   8 o      425   1 h                                       0.9730088
   424   8 o      426   1 h                                       0.9680594
   427   8 o      428   1 h                                       0.9736002
   427   8 o      429   1 h                                       0.9756208
   430   8 o      431   1 h                                       0.9789112
   430   8 o      432   1 h                                       0.9869087
   433   8 o      434   1 h                                       0.9578207
   433   8 o      435   1 h                                       0.9787069
   436   8 o      437   1 h                                       0.9859927
   436   8 o      438   1 h                                       0.9757596
   439   8 o      440   1 h                                       0.9626312
   439   8 o      441   1 h                                       0.9716898
   442   8 o      443   1 h                                       0.9672926
   442   8 o      444   1 h                                       0.9765605
   445   8 o      446   1 h                                       0.9666363
   445   8 o      447   1 h                                       0.9937130
   448   8 o      449   1 h                                       0.9716989
   448   8 o      450   1 h                                       0.9586647
   451   8 o      452   1 h                                       0.9746409
   451   8 o      453   1 h                                       0.9817169
   454   8 o      455   1 h                                       0.9824016
   454   8 o      456   1 h                                       0.9788422
   457   8 o      458   1 h                                       0.9898545
   457   8 o      459   1 h                                       0.9630210
   460   8 o      461   1 h                                       0.9651279
   460   8 o      462   1 h                                       0.9881324
   463   8 o      464   1 h                                       0.9724733
   463   8 o      465   1 h                                       0.9573856
   466   8 o      467   1 h                                       0.9808523
   466   8 o      468   1 h                                       0.9680706
   469   8 o      470   1 h                                       0.9599096
   469   8 o      471   1 h                                       0.9748879
   472   8 o      473   1 h                                       0.9648288
   472   8 o      474   1 h                                       0.9796589
   475   8 o      476   1 h                                       0.9869595
   475   8 o      477   1 h                                       0.9870894
   478   8 o      479   1 h                                       0.9819355
   478   8 o      480   1 h                                       0.9627991
   481   8 o      482   1 h                                       0.9674395
   481   8 o      483   1 h                                       0.9772281
   484   8 o      485   1 h                                       0.9565508
   484   8 o      486   1 h                                       0.9991577
   487   8 o      488   1 h                                       0.9832439
   487   8 o      489   1 h                                       0.9675831
   490   8 o      491   1 h                                       0.9700182
   490   8 o      492   1 h                                       0.9734395
   493   8 o      494   1 h                                       0.9699874
   493   8 o      495   1 h                                       0.9680874
   496   8 o      497   1 h                                       0.9584539
   496   8 o      498   1 h                                       0.9909996
   499   8 o      500   1 h                                       0.9733252
   499   8 o      501   1 h                                       0.9783666
   502   8 o      503   1 h                                       0.9728512
   502   8 o      504   1 h                                       0.9845095
   505   8 o      506   1 h                                       0.9693640
   505   8 o      507   1 h                                       0.9768326
   508   8 o      509   1 h                                       0.9822740
   508   8 o      510   1 h                                       0.9723010
   511   8 o      512   1 h                                       0.9693998
   511   8 o      513   1 h                                       0.9727959
   514   8 o      515   1 h                                       0.9590350
   514   8 o      516   1 h                                       0.9677342
   517   8 o      518   1 h                                       0.9576965
   517   8 o      519   1 h                                       0.9746705
   520   8 o      521   1 h                                       0.9792823
   520   8 o      522   1 h                                       0.9648637
   523   8 o      524   1 h                                       0.9853798
   523   8 o      525   1 h                                       0.9641010
   526   8 o      527   1 h                                       0.9788095
   526   8 o      528   1 h                                       0.9665405
   529   8 o      530   1 h                                       0.9778294
   529   8 o      531   1 h                                       0.9786925
   532   8 o      533   1 h                                       0.9702781
   532   8 o      534   1 h                                       0.9719498
   535   8 o      536   1 h                                       0.9744378
   535   8 o      537   1 h                                       0.9670110
   538   8 o      539   1 h                                       0.9645244
   538   8 o      540   1 h                                       0.9736503
   541   8 o      542   1 h                                       0.9820919
   541   8 o      543   1 h                                       0.9627385
   544   8 o      545   1 h                                       0.9819089
   544   8 o      546   1 h                                       0.9557423
   547   8 o      548   1 h                                       0.9939700
   547   8 o      549   1 h                                       0.9826754
   550   8 o      551   1 h                                       0.9687288
   550   8 o      552   1 h                                       0.9701210
   553   8 o      554   1 h                                       0.9559948
   553   8 o      555   1 h                                       0.9734482
   556   8 o      557   1 h                                       0.9839527
   556   8 o      558   1 h                                       0.9749324
   559   8 o      560   1 h                                       0.9716030
   559   8 o      561   1 h                                       0.9806207
   562   8 o      563   1 h                                       0.9683340
   562   8 o      564   1 h                                       0.9774077
   565   8 o      566   1 h                                       0.9703676
   565   8 o      567   1 h                                       0.9790159
   568   8 o      569   1 h                                       0.9671802
   568   8 o      570   1 h                                       0.9702425
   571   8 o      572   1 h                                       0.9608041
   571   8 o      573   1 h                                       0.9883417
   574   8 o      575   1 h                                       0.9880168
   574   8 o      576   1 h                                       0.9802673
   577   8 o      578   1 h                                       0.9821933
   577   8 o      579   1 h                                       0.9567390
   580   8 o      581   1 h                                       0.9697049
   580   8 o      582   1 h                                       0.9669039
   583   8 o      584   1 h                                       0.9733080
   583   8 o      585   1 h                                       0.9724781
   586   8 o      587   1 h                                       0.9744283
   586   8 o      588   1 h                                       0.9670424
   589   8 o      590   1 h                                       0.9723542
   589   8 o      591   1 h                                       0.9710622
   592   8 o      593   1 h                                       0.9595634
   592   8 o      594   1 h                                       0.9805955
   595   8 o      596   1 h                                       0.9667691
   595   8 o      597   1 h                                       0.9901972
   598   8 o      599   1 h                                       0.9796542
   598   8 o      600   1 h                                       0.9706881
   601   8 o      602   1 h                                       0.9763284
   601   8 o      603   1 h                                       0.9752756
   604   8 o      605   1 h                                       0.9768691
   604   8 o      606   1 h                                       0.9887187
   607   8 o      608   1 h                                       0.9721983
   607   8 o      609   1 h                                       0.9676263
   610   8 o      611   1 h                                       0.9774468
   610   8 o      612   1 h                                       0.9702970
   613   8 o      614   1 h                                       0.9712261
   613   8 o      615   1 h                                       0.9697203
   616   8 o      617   1 h                                       0.9653307
   616   8 o      618   1 h                                       0.9781009
   619   8 o      620   1 h                                       0.9792023
   619   8 o      621   1 h                                       0.9690542
   622   8 o      623   1 h                                       0.9813398
   622   8 o      624   1 h                                       0.9596067
   625   8 o      626   1 h                                       0.9601156
   625   8 o      627   1 h                                       0.9688902
   628   8 o      629   1 h                                       0.9847140
   628   8 o      630   1 h                                       0.9741360
   631   8 o      632   1 h                                       0.9744959
   631   8 o      633   1 h                                       0.9673947
   634   8 o      635   1 h                                       0.9946597
   634   8 o      636   1 h                                       0.9591024
   637   8 o      638   1 h                                       0.9783141
   637   8 o      639   1 h                                       0.9740603
   640   8 o      641   1 h                                       0.9719933
   640   8 o      642   1 h                                       0.9998437 (max)
   643   8 o      644   1 h                                       0.9692358
   643   8 o      645   1 h                                       0.9793467
   646   8 o      647   1 h                                       0.9603394
   646   8 o      648   1 h                                       0.9696360
   649   8 o      650   1 h                                       0.9833033
   649   8 o      651   1 h                                       0.9563701
   652   8 o      653   1 h                                       0.9746141
   652   8 o      654   1 h                                       0.9575824
   655   8 o      656   1 h                                       0.9767144
   655   8 o      657   1 h                                       0.9817330
   658   8 o      659   1 h                                       0.9561308
   658   8 o      660   1 h                                       0.9854365
   661   8 o      662   1 h                                       0.9769745
   661   8 o      663   1 h                                       0.9725058
   664   8 o      665   1 h                                       0.9756653
   664   8 o      666   1 h                                       0.9731352
   667   8 o      668   1 h                                       0.9649124
   667   8 o      669   1 h                                       0.9881007
   670   8 o      671   1 h                                       0.9656306
   670   8 o      672   1 h                                       0.9738216
   673   8 o      674   1 h                                       0.9808770
   673   8 o      675   1 h                                       0.9739144
   676   8 o      677   1 h                                       0.9731633
   676   8 o      678   1 h                                       0.9693657
   679   8 o      680   1 h                                       0.9691502
   679   8 o      681   1 h                                       0.9688404
   682   8 o      683   1 h                                       0.9693447
   682   8 o      684   1 h                                       0.9682898
   685   8 o      686   1 h                                       0.9810448
   685   8 o      687   1 h                                       0.9742773
   688   8 o      689   1 h                                       0.9757524
   688   8 o      690   1 h                                       0.9637645
   691   8 o      692   1 h                                       0.9750175
   691   8 o      693   1 h                                       0.9724463
   694   8 o      695   1 h                                       0.9690050
   694   8 o      696   1 h                                       0.9722832
   697   8 o      698   1 h                                       0.9703395
   697   8 o      699   1 h                                       0.9837561
   700   8 o      701   1 h                                       0.9801870
   700   8 o      702   1 h                                       0.9690776
   703   8 o      704   1 h                                       0.9820722
   703   8 o      705   1 h                                       0.9792671
   706   8 o      707   1 h                                       0.9726397
   706   8 o      708   1 h                                       0.9613399
   709   8 o      710   1 h                                       0.9811175
   709   8 o      711   1 h                                       0.9609849
   712   8 o      713   1 h                                       0.9887598
   712   8 o      714   1 h                                       0.9605467
   715   8 o      716   1 h                                       0.9887499
   715   8 o      717   1 h                                       0.9783479
   718   8 o      719   1 h                                       0.9578841
   721   8 o      722   1 h                                       0.9780396
   721   8 o      723   1 h                                       0.9695209
   724   8 o      725   1 h                                       0.9718566
   724   8 o      726   1 h                                       0.9779812
   727   8 o      728   1 h                                       0.9626913
   727   8 o      729   1 h                                       0.9685568
   730   8 o      732   1 h                                       0.9568556
   733   8 o      734   1 h                                       0.9849469
   733   8 o      735   1 h                                       0.9637845
   736   8 o      737   1 h                                       0.9783946
   736   8 o      738   1 h                                       0.9662454
   739   8 o      740   1 h                                       0.9698619
   739   8 o      741   1 h                                       0.9717993
   742   8 o      743   1 h                                       0.9837313
   742   8 o      744   1 h                                       0.9703997
   745   8 o      746   1 h                                       0.9723963
   745   8 o      747   1 h                                       0.9688990
   748   8 o      749   1 h                                       0.9758703
   748   8 o      750   1 h                                       0.9677382
   751   8 o      752   1 h                                       0.9618773
   751   8 o      753   1 h                                       0.9796036
   754   8 o      755   1 h                                       0.9633663
   754   8 o      756   1 h                                       0.9631208

 * 1 distinct bonds (by element types)

   Z      Z             #   av. dist./Å        max./Å        min./Å
   1 H    8 O         502     0.9732800     0.9998437     0.9557293


optimized geometry written to: xtbopt.coord


           -------------------------------------------------
          | TOTAL ENERGY            -1283.318108543223 Eh   |
          | GRADIENT NORM               0.005973554441 Eh/α |
          | HOMO-LUMO GAP               6.095783266467 eV   |
           -------------------------------------------------

------------------------------------------------------------------------
 * finished run on 2022/11/24 at 12:12:41.664     
------------------------------------------------------------------------
 total:
 * wall-time:     0 d,  0 h,  7 min, 57.667 sec
 *  cpu-time:     0 d,  0 h, 11 min, 46.225 sec
 * ratio c/w:     1.478 speedup
 SCF:
 * wall-time:     0 d,  0 h,  0 min, 20.441 sec
 *  cpu-time:     0 d,  0 h,  0 min, 32.204 sec
 * ratio c/w:     1.575 speedup
 ANC optimizer:
 * wall-time:     0 d,  0 h,  7 min, 36.173 sec
 *  cpu-time:     0 d,  0 h, 11 min, 12.276 sec
 * ratio c/w:     1.474 speedup

