      -----------------------------------------------------------      
     |                   =====================                   |     
     |                           x T B                           |     
     |                   =====================                   |     
     |                         S. Grimme                         |     
     |          Mulliken Center for Theoretical Chemistry        |     
     |                    University of Bonn                     |     
      -----------------------------------------------------------      

   * xtb version 6.5.1 (579679a) compiled by 'ehlert@majestix' on 2022-07-11

   xtb is free software: you can redistribute it and/or modify it under
   the terms of the GNU Lesser General Public License as published by
   the Free Software Foundation, either version 3 of the License, or
   (at your option) any later version.
   
   xtb is distributed in the hope that it will be useful,
   but WITHOUT ANY WARRANTY; without even the implied warranty of
   MERCHANTABILITY or FITNESS FOR A PARTICULAR PURPOSE.  See the
   GNU Lesser General Public License for more details.
   
   Cite this work as:
   * C. Bannwarth, E. Caldeweyher, S. Ehlert, A. Hansen, P. Pracht,
     J. Seibert, S. Spicher, S. Grimme, WIREs Comput. Mol. Sci., 2020, 11,
     e01493. DOI: 10.1002/wcms.1493
   
   for GFN2-xTB:
   * C. Bannwarth, S. Ehlert and S. Grimme., J. Chem. Theory Comput., 2019,
     15, 1652-1671. DOI: 10.1021/acs.jctc.8b01176
   for GFN1-xTB:
   * S. Grimme, C. Bannwarth, P. Shushkov, J. Chem. Theory Comput., 2017,
     13, 1989-2009. DOI: 10.1021/acs.jctc.7b00118
   for GFN0-xTB:
   * P. Pracht, E. Caldeweyher, S. Ehlert, S. Grimme, ChemRxiv, 2019, preprint.
     DOI: 10.26434/chemrxiv.8326202.v1
   for GFN-FF:
   * S. Spicher and S. Grimme, Angew. Chem. Int. Ed., 2020, 59, 15665-15673.
     DOI: 10.1002/anie.202004239
   
   for ALPB and GBSA implicit solvation:
   * S. Ehlert, M. Stahn, S. Spicher, S. Grimme, J. Chem. Theory Comput.,
     2021, 17, 4250-4261. DOI: 10.1021/acs.jctc.1c00471
   
   for DFT-D4:
   * E. Caldeweyher, C. Bannwarth and S. Grimme, J. Chem. Phys., 2017,
     147, 034112. DOI: 10.1063/1.4993215
   * E. Caldeweyher, S. Ehlert, A. Hansen, H. Neugebauer, S. Spicher,
     C. Bannwarth and S. Grimme, J. Chem. Phys., 2019, 150, 154122.
     DOI: 10.1063/1.5090222
   * E. Caldeweyher, J.-M. Mewes, S. Ehlert and S. Grimme, Phys. Chem. Chem. Phys.
     2020, 22, 8499-8512. DOI: 10.1039/D0CP00502A
   
   for sTDA-xTB:
   * S. Grimme and C. Bannwarth, J. Chem. Phys., 2016, 145, 054103.
     DOI: 10.1063/1.4959605
   
   in the mass-spec context:
   * V. Asgeirsson, C. Bauer and S. Grimme, Chem. Sci., 2017, 8, 4879.
     DOI: 10.1039/c7sc00601b
   * J. Koopman and S. Grimme, ACS Omega 2019, 4, 12, 15120-15133.
     DOI: 10.1021/acsomega.9b02011
   
   for metadynamics refer to:
   * S. Grimme, J. Chem. Theory Comput., 2019, 155, 2847-2862
     DOI: 10.1021/acs.jctc.9b00143
   
   for SPH calculations refer to:
   * S. Spicher and S. Grimme, J. Chem. Theory Comput., 2021, 17, 1701-1714
     DOI: 10.1021/acs.jctc.0c01306
   
   with help from (in alphabetical order)
   P. Atkinson, C. Bannwarth, F. Bohle, G. Brandenburg, E. Caldeweyher
   M. Checinski, S. Dohm, S. Ehlert, S. Ehrlich, I. Gerasimov, C. Hölzer
   A. Katbashev, J. Koopman, C. Lavigne, S. Lehtola, F. März, M. Müller,
   F. Musil, H. Neugebauer, J. Pisarek, C. Plett, P. Pracht, F. Pultar,
   J. Seibert, P. Shushkov, S. Spicher, M. Stahn, M. Steiner, T. Strunk,
   J. Stückrath, T. Rose, and J. Unsleber
   
 * started run on 2022/11/24 at 12:21:16.683     

           -------------------------------------------------
          |                Calculation Setup                |
           -------------------------------------------------

          program call               : xtb xtbopt.coord --gfn2 --sp --gbsa water
          hostname                   : cn0430
          coordinate file            : xtbopt.coord
          omp threads                :                     2

   ID    Z sym.   atoms
    1    8 o      1, 4, 7, 10, 13, 16, 19, 22, 25, 28, 31, 34, 37, 40, 43,
                  46, 49, 52, 55, 58, 61, 64, 67, 70, 73, 76, 79, 82, 85, 88,
                  91, 94, 97, 100, 103, 106, 109, 112, 115, 118, 121, 124,
                  127, 130, 133, 136, 139, 142, 145, 148, 151, 154, 157, 160,
                  163, 166, 169, 172, 175, 178, 181, 184, 187, 190, 193, 196,
                  199, 202, 205, 208, 211, 214, 217, 220, 223, 226, 229, 232,
                  235, 238, 241, 244, 247, 250, 253, 256, 259, 262, 265, 268,
                  271, 274, 277, 280, 283, 286, 289, 292, 295, 298, 301, 304,
                  307, 310, 313, 316, 319, 322, 325, 328, 331, 334, 337, 340,
                  343, 346, 349, 352, 355, 358, 361, 364, 367, 370, 373, 376,
                  379, 382, 385, 388, 391, 394, 397, 400, 403, 406, 409, 412,
                  415, 418, 421, 424, 427, 430, 433, 436, 439, 442, 445, 448,
                  451, 454, 457, 460, 463, 466, 469, 472, 475, 478, 481, 484,
                  487, 490, 493, 496, 499, 502, 505, 508, 511, 514, 517, 520,
                  523, 526, 529, 532, 535, 538, 541, 544, 547, 550, 553, 556,
                  559, 562, 565, 568, 571, 574, 577, 580, 583, 586, 589, 592,
                  595, 598, 601, 604, 607, 610, 613, 616, 619, 622, 625, 628,
                  631, 634, 637, 640, 643, 646, 649, 652, 655, 658, 661, 664,
                  667, 670, 673, 676, 679, 682, 685, 688, 691, 694, 697, 700,
                  703, 706, 709, 712, 715, 718, 721, 724, 727, 730, 733, 736,
                  739, 742, 745, 748, 751, 754
    2    1 h      2, 3, 5, 6, 8, 9, 11, 12, 14, 15, 17, 18, 20, 21, 23, 24,
                  26, 27, 29, 30, 32, 33, 35, 36, 38, 39, 41, 42, 44, 45, 47,
                  48, 50, 51, 53, 54, 56, 57, 59, 60, 62, 63, 65, 66, 68, 69,
                  71, 72, 74, 75, 77, 78, 80, 81, 83, 84, 86, 87, 89, 90, 92,
                  93, 95, 96, 98, 99, 101, 102, 104, 105, 107, 108, 110, 111,
                  113, 114, 116, 117, 119, 120, 122, 123, 125, 126, 128, 129,
                  131, 132, 134, 135, 137, 138, 140, 141, 143, 144, 146, 147,
                  149, 150, 152, 153, 155, 156, 158, 159, 161, 162, 164, 165,
                  167, 168, 170, 171, 173, 174, 176, 177, 179, 180, 182, 183,
                  185, 186, 188, 189, 191, 192, 194, 195, 197, 198, 200, 201,
                  203, 204, 206, 207, 209, 210, 212, 213, 215, 216, 218, 219,
                  221, 222, 224, 225, 227, 228, 230, 231, 233, 234, 236, 237,
                  239, 240, 242, 243, 245, 246, 248, 249, 251, 252, 254, 255,
                  257, 258, 260, 261, 263, 264, 266, 267, 269, 270, 272, 273,
                  275, 276, 278, 279, 281, 282, 284, 285, 287, 288, 290, 291,
                  293, 294, 296, 297, 299, 300, 302, 303, 305, 306, 308, 309,
                  311, 312, 314, 315, 317, 318, 320, 321, 323, 324, 326, 327,
                  329, 330, 332, 333, 335, 336, 338, 339, 341, 342, 344, 345,
                  347, 348, 350, 351, 353, 354, 356, 357, 359, 360, 362, 363,
                  365, 366, 368, 369, 371, 372, 374, 375, 377, 378, 380, 381,
                  383, 384, 386, 387, 389, 390, 392, 393, 395, 396, 398, 399,
                  401, 402, 404, 405, 407, 408, 410, 411, 413, 414, 416, 417,
                  419, 420, 422, 423, 425, 426, 428, 429, 431, 432, 434, 435,
                  437, 438, 440, 441, 443, 444, 446, 447, 449, 450, 452, 453,
                  455, 456, 458, 459, 461, 462, 464, 465, 467, 468, 470, 471,
                  473, 474, 476, 477, 479, 480, 482, 483, 485, 486, 488, 489,
                  491, 492, 494, 495, 497, 498, 500, 501, 503, 504, 506, 507,
                  509, 510, 512, 513, 515, 516, 518, 519, 521, 522, 524, 525,
                  527, 528, 530, 531, 533, 534, 536, 537, 539, 540, 542, 543,
                  545, 546, 548, 549, 551, 552, 554, 555, 557, 558, 560, 561,
                  563, 564, 566, 567, 569, 570, 572, 573, 575, 576, 578, 579,
                  581, 582, 584, 585, 587, 588, 590, 591, 593, 594, 596, 597,
                  599, 600, 602, 603, 605, 606, 608, 609, 611, 612, 614, 615,
                  617, 618, 620, 621, 623, 624, 626, 627, 629, 630, 632, 633,
                  635, 636, 638, 639, 641, 642, 644, 645, 647, 648, 650, 651,
                  653, 654, 656, 657, 659, 660, 662, 663, 665, 666, 668, 669,
                  671, 672, 674, 675, 677, 678, 680, 681, 683, 684, 686, 687,
                  689, 690, 692, 693, 695, 696, 698, 699, 701, 702, 704, 705,
                  707, 708, 710, 711, 713, 714, 716, 717, 719, 720, 722, 723,
                  725, 726, 728, 729, 731, 732, 734, 735, 737, 738, 740, 741,
                  743, 744, 746, 747, 749, 750, 752, 753, 755, 756

molecular fragmentation (1/2 indicates fragments):
111222222222222222222222222222222222222222222222222222222222222222222222
222222222222222222222222222222222222222222222222222222222222222222222222
222222222222222222222222222222222222222222222222222222222222222222222222
222222222222222222222222222222222222222222222222222222222222222222222222
222222222222222222222222222222222222222222222222222222222222222222222222
222222222222222222222222222222222222222222222222222222222222222222222222
222222222222222222222222222222222222222222222222222222222222222222222222
222222222222222222222222222222222222222222222222222222222222222222222222
222222222222222222222222222222222222222222222222222222222222222222222222
222222222222222222222222222222222222222222222222222222222222222222222222
222222222222222222222222222222222222
# atoms in fragment 1/2:     3   753
 fragment masses (1/2) :       18.02     4521.84
CMA distance (Bohr)    :  17.216
constraining FC (au)   :  0.0500

           -------------------------------------------------
          |                 G F N 2 - x T B                 |
           -------------------------------------------------

        Reference                      10.1021/acs.jctc.8b01176
      * Hamiltonian:
        H0-scaling (s, p, d)           1.850000    2.230000    2.230000
        zeta-weighting                 0.500000
      * Dispersion:
        s8                             2.700000
        a1                             0.520000
        a2                             5.000000
        s9                             5.000000
      * Repulsion:
        kExp                           1.500000    1.000000
        rExp                           1.000000
      * Coulomb:
        alpha                          2.000000
        third order                    shell-resolved
        anisotropic                    true
        a3                             3.000000
        a5                             4.000000
        cn-shift                       1.200000
        cn-exp                         4.000000
        max-rad                        5.000000

      * Solvation model:               GBSA
        Solvent                        water
        Parameter file                 internal GFN2-xTB/GBSA
        Dielectric constant                8.0200E+01
        Reference state                gsolv [1 M gas/solution]
        Free energy shift                  1.8574E-03 Eh       1.1656E+00 kcal/mol
        Temperature                        2.9815E+02 K
        Density                            1.0000E+00 kg/L
        Solvent mass                       1.8000E+01 g/mol
        Interaction kernel             Still
        Born radius scaling (c1)           1.5524E+00
        Born radii integrator          GBOBC
        Born offset                        2.4628E-02 a0       4.6540E-02 AA
        H-bond correction              true
        Ion screening                  false
        Surface tension                    1.0000E-05 Eh       1.5569E+01 dyn/cm
        Grid points                               230 per atom

          ...................................................
          :                      SETUP                      :
          :.................................................:
          :  # basis functions                1512          :
          :  # atomic orbitals                1512          :
          :  # shells                         1008          :
          :  # electrons                      2016          :
          :  max. iterations                   250          :
          :  Hamiltonian                  GFN2-xTB          :
          :  restarted?                      false          :
          :  GBSA solvation                   true          :
          :  PC potential                    false          :
          :  electronic temp.          300.0000000     K    :
          :  accuracy                    1.0000000          :
          :  -> integral cutoff          0.2500000E+02      :
          :  -> integral neglect         0.1000000E-07      :
          :  -> SCF convergence          0.1000000E-05 Eh   :
          :  -> wf. convergence          0.1000000E-03 e    :
          :  Broyden damping             0.4000000          :
          ...................................................

 iter      E             dE          RMSdq      gap      omega  full diag
   1  -1291.2456602 -0.129125E+04  0.408E+00    8.32       0.0  T
   2  -1291.3300970 -0.844368E-01  0.242E+00    7.95       1.0  T
   3  -1291.3658967 -0.357997E-01  0.225E-01    6.82       1.0  T
   4  -1291.3713939 -0.549716E-02  0.482E-02    7.09       1.0  T
   5  -1291.3715549 -0.161038E-03  0.310E-02    7.02       1.0  T
   6  -1291.3716026 -0.477043E-04  0.388E-03    7.03       1.0  T
   7  -1291.3716044 -0.181898E-05  0.919E-04    7.03       4.0  T
   8  -1291.3716045 -0.923487E-07  0.462E-04    7.03       7.9  T
   9  -1291.3716045 -0.342766E-07  0.128E-04    7.02      28.4  T

   *** convergence criteria satisfied after 9 iterations ***

         #    Occupation            Energy/Eh            Energy/eV
      -------------------------------------------------------------
         1        2.0000           -0.6572443             -17.8845
       ...           ...                  ...                  ...
      1002        2.0000           -0.3302300              -8.9860
      1003        2.0000           -0.3300617              -8.9814
      1004        2.0000           -0.3279263              -8.9233
      1005        2.0000           -0.3261571              -8.8752
      1006        2.0000           -0.3228036              -8.7839
      1007        2.0000           -0.3198754              -8.7043
      1008        2.0000           -0.3102883              -8.4434 (HOMO)
      1009                         -0.0521440              -1.4189 (LUMO)
      1010                         -0.0458620              -1.2480
      1011                         -0.0328449              -0.8938
      1012                         -0.0320156              -0.8712
      1013                         -0.0271542              -0.7389
       ...                                ...                  ...
      1512                          0.5010001              13.6329
      -------------------------------------------------------------
                  HL-Gap            0.2581444 Eh            7.0245 eV
             Fermi-level           -0.1812161 Eh           -4.9311 eV

 SCC (total)                   0 d,  0 h,  0 min, 22.056 sec
 SCC setup                      ...        0 min,  0.116 sec (  0.526%)
 Dispersion                     ...        0 min,  0.109 sec (  0.496%)
 classical contributions        ...        0 min,  0.023 sec (  0.106%)
 integral evaluation            ...        0 min,  0.614 sec (  2.786%)
 iterations                     ...        0 min,  8.668 sec ( 39.300%)
 molecular gradient             ...        0 min, 12.459 sec ( 56.490%)
 printout                       ...        0 min,  0.066 sec (  0.297%)

         :::::::::::::::::::::::::::::::::::::::::::::::::::::
         ::                     SUMMARY                     ::
         :::::::::::::::::::::::::::::::::::::::::::::::::::::
         :: total energy           -1283.559104000115 Eh    ::
         :: total w/o Gsasa/hb     -1283.332617738961 Eh    ::
         :: gradient norm              0.129019395814 Eh/a0 ::
         :: HOMO-LUMO gap              7.024465372447 eV    ::
         ::.................................................::
         :: SCC energy             -1291.371604546468 Eh    ::
         :: -> isotropic ES            7.338308320629 Eh    ::
         :: -> anisotropic ES         -1.638346737393 Eh    ::
         :: -> anisotropic XC         -0.119911914234 Eh    ::
         :: -> dispersion             -0.802148122180 Eh    ::
         :: -> Gsolv                  -0.256535360977 Eh    ::
         ::    -> Gelec               -0.030049099822 Eh    ::
         ::    -> Gsasa                0.005367359803 Eh    ::
         ::    -> Ghb                 -0.233711064085 Eh    ::
         ::    -> Gshift               0.001857443127 Eh    ::
         :: repulsion energy           7.652379101453 Eh    ::
         :: add. restraining           0.000000000000 Eh    ::
         :: total charge               0.000000000000 e     ::
         :::::::::::::::::::::::::::::::::::::::::::::::::::::

           -------------------------------------------------
          |                Property Printout                |
           -------------------------------------------------

    * Orbital Energies and Occupations

         #    Occupation            Energy/Eh            Energy/eV
      -------------------------------------------------------------
         1        2.0000           -0.6572443             -17.8845
       ...           ...                  ...                  ...
       996        2.0000           -0.3421270              -9.3097
       997        2.0000           -0.3410369              -9.2801
       998        2.0000           -0.3388446              -9.2204
       999        2.0000           -0.3386398              -9.2149
      1000        2.0000           -0.3376873              -9.1889
      1001        2.0000           -0.3318258              -9.0294
      1002        2.0000           -0.3302300              -8.9860
      1003        2.0000           -0.3300617              -8.9814
      1004        2.0000           -0.3279263              -8.9233
      1005        2.0000           -0.3261571              -8.8752
      1006        2.0000           -0.3228036              -8.7839
      1007        2.0000           -0.3198754              -8.7043
      1008        2.0000           -0.3102883              -8.4434 (HOMO)
      1009                         -0.0521440              -1.4189 (LUMO)
      1010                         -0.0458620              -1.2480
      1011                         -0.0328449              -0.8938
      1012                         -0.0320156              -0.8712
      1013                         -0.0271542              -0.7389
      1014                         -0.0208770              -0.5681
      1015                         -0.0191586              -0.5213
      1016                         -0.0100335              -0.2730
      1017                         -0.0046978              -0.1278
      1018                         -0.0025543              -0.0695
      1019                         -0.0013587              -0.0370
       ...                                ...                  ...
      1512                          0.5010001              13.6329
      -------------------------------------------------------------
                  HL-Gap            0.2581444 Eh            7.0245 eV
             Fermi-level           -0.1812161 Eh           -4.9311 eV

     #   Z          covCN         q      C6AA      α(0)
     1   8 o        1.609    -0.683    27.259     7.047
     2   1 h        0.804     0.340     0.612     1.229
     3   1 h        0.805     0.323     0.656     1.272
     4   8 o        1.609    -0.665    26.788     6.985
     5   1 h        0.804     0.343     0.606     1.222
     6   1 h        0.805     0.336     0.623     1.239
     7   8 o        1.607    -0.687    27.360     7.059
     8   1 h        0.804     0.320     0.664     1.280
     9   1 h        0.803     0.327     0.645     1.261
    10   8 o        1.607    -0.693    27.515     7.080
    11   1 h        0.804     0.354     0.580     1.196
    12   1 h        0.803     0.346     0.598     1.215
    13   8 o        1.607    -0.691    27.474     7.074
    14   1 h        0.804     0.353     0.581     1.197
    15   1 h        0.804     0.334     0.627     1.243
    16   8 o        1.607    -0.682    27.231     7.043
    17   1 h        0.802     0.355     0.576     1.192
    18   1 h        0.804     0.331     0.636     1.253
    19   8 o        1.608    -0.667    26.841     6.992
    20   1 h        0.805     0.327     0.645     1.262
    21   1 h        0.803     0.350     0.589     1.206
    22   8 o        1.608    -0.672    26.982     7.011
    23   1 h        0.804     0.351     0.585     1.201
    24   1 h        0.803     0.330     0.637     1.253
    25   8 o        1.607    -0.696    27.607     7.091
    26   1 h        0.804     0.353     0.582     1.198
    27   1 h        0.803     0.344     0.602     1.219
    28   8 o        1.607    -0.700    27.719     7.106
    29   1 h        0.804     0.350     0.589     1.205
    30   1 h        0.803     0.353     0.581     1.197
    31   8 o        1.608    -0.680    27.183     7.037
    32   1 h        0.804     0.344     0.602     1.219
    33   1 h        0.804     0.360     0.566     1.182
    34   8 o        1.608    -0.668    26.877     6.997
    35   1 h        0.804     0.326     0.649     1.265
    36   1 h        0.804     0.322     0.658     1.274
    37   8 o        1.606    -0.699    27.686     7.101
    38   1 h        0.802     0.353     0.582     1.198
    39   1 h        0.804     0.347     0.596     1.213
    40   8 o        1.608    -0.693    27.527     7.081
    41   1 h        0.803     0.351     0.585     1.202
    42   1 h        0.805     0.331     0.634     1.250
    43   8 o        1.609    -0.671    26.938     7.005
    44   1 h        0.804     0.349     0.590     1.207
    45   1 h        0.805     0.330     0.638     1.255
    46   8 o        1.607    -0.685    27.320     7.054
    47   1 h        0.804     0.344     0.603     1.220
    48   1 h        0.804     0.349     0.590     1.206
    49   8 o        1.608    -0.697    27.630     7.094
    50   1 h        0.804     0.340     0.612     1.229
    51   1 h        0.805     0.332     0.632     1.249
    52   8 o        1.609    -0.678    27.138     7.031
    53   1 h        0.804     0.341     0.610     1.227
    54   1 h        0.805     0.318     0.669     1.285
    55   8 o        1.607    -0.700    27.707     7.104
    56   1 h        0.804     0.321     0.660     1.276
    57   1 h        0.804     0.353     0.581     1.198
    58   8 o        1.608    -0.667    26.840     6.992
    59   1 h        0.805     0.335     0.624     1.241
    60   1 h        0.803     0.346     0.598     1.214
    61   8 o        1.606    -0.695    27.577     7.087
    62   1 h        0.804     0.337     0.619     1.236
    63   1 h        0.803     0.347     0.595     1.211
    64   8 o        1.608    -0.683    27.256     7.046
    65   1 h        0.804     0.340     0.613     1.230
    66   1 h        0.804     0.346     0.597     1.213
    67   8 o        1.608    -0.685    27.328     7.055
    68   1 h        0.804     0.349     0.592     1.208
    69   1 h        0.804     0.331     0.634     1.251
    70   8 o        1.607    -0.674    27.042     7.018
    71   1 h        0.804     0.333     0.629     1.246
    72   1 h        0.803     0.346     0.598     1.215
    73   8 o        1.609    -0.671    26.961     7.008
    74   1 h        0.805     0.335     0.625     1.242
    75   1 h        0.804     0.335     0.625     1.242
    76   8 o        1.608    -0.681    27.198     7.039
    77   1 h        0.804     0.359     0.568     1.184
    78   1 h        0.804     0.341     0.610     1.227
    79   8 o        1.611    -0.680    27.182     7.037
    80   1 h        0.803     0.349     0.591     1.208
    81   1 h        0.804     0.340     0.612     1.229
    82   8 o        1.608    -0.672    26.970     7.009
    83   1 h        0.805     0.332     0.633     1.249
    84   1 h        0.804     0.353     0.582     1.199
    85   8 o        1.606    -0.684    27.282     7.049
    86   1 h        0.803     0.339     0.614     1.231
    87   1 h        0.803     0.349     0.592     1.209
    88   8 o        1.606    -0.699    27.693     7.102
    89   1 h        0.803     0.351     0.585     1.202
    90   1 h        0.804     0.362     0.561     1.177
    91   8 o        1.608    -0.668    26.878     6.997
    92   1 h        0.802     0.364     0.557     1.172
    93   1 h        0.806     0.303     0.711     1.324
    94   8 o        1.609    -0.677    27.104     7.026
    95   1 h        0.804     0.346     0.598     1.215
    96   1 h        0.804     0.349     0.590     1.207
    97   8 o        1.609    -0.667    26.844     6.993
    98   1 h        0.805     0.351     0.587     1.203
    99   1 h        0.805     0.345     0.601     1.217
   100   8 o        1.606    -0.690    27.446     7.071
   101   1 h        0.802     0.351     0.585     1.202
   102   1 h        0.804     0.349     0.590     1.206
   103   8 o        1.605    -0.705    27.846     7.122
   104   1 h        0.803     0.357     0.572     1.188
   105   1 h        0.803     0.347     0.596     1.213
   106   8 o        1.606    -0.687    27.361     7.060
   107   1 h        0.802     0.352     0.583     1.199
   108   1 h        0.803     0.340     0.611     1.228
   109   8 o        1.608    -0.685    27.302     7.052
   110   1 h        0.805     0.350     0.587     1.203
   111   1 h        0.803     0.351     0.585     1.202
   112   8 o        1.607    -0.693    27.539     7.083
   113   1 h        0.804     0.331     0.635     1.251
   114   1 h        0.803     0.363     0.559     1.174
   115   8 o        1.608    -0.666    26.819     6.989
   116   1 h        0.803     0.351     0.587     1.203
   117   1 h        0.805     0.329     0.641     1.257
   118   8 o        1.608    -0.674    27.016     7.015
   119   1 h        0.803     0.355     0.578     1.194
   120   1 h        0.804     0.333     0.629     1.246
   121   8 o        1.607    -0.669    26.910     7.001
   122   1 h        0.804     0.344     0.602     1.219
   123   1 h        0.803     0.331     0.635     1.252
   124   8 o        1.609    -0.690    27.457     7.072
   125   1 h        0.804     0.331     0.634     1.251
   126   1 h        0.805     0.331     0.634     1.251
   127   8 o        1.609    -0.686    27.344     7.058
   128   1 h        0.804     0.332     0.631     1.248
   129   1 h        0.804     0.339     0.614     1.231
   130   8 o        1.608    -0.680    27.185     7.037
   131   1 h        0.804     0.343     0.605     1.222
   132   1 h        0.804     0.351     0.586     1.202
   133   8 o        1.607    -0.678    27.125     7.029
   134   1 h        0.803     0.355     0.577     1.194
   135   1 h        0.804     0.326     0.649     1.266
   136   8 o        1.608    -0.671    26.939     7.005
   137   1 h        0.805     0.315     0.677     1.293
   138   1 h        0.803     0.354     0.580     1.197
   139   8 o        1.610    -0.645    26.297     6.921
   140   1 h        0.805     0.360     0.565     1.181
   141   1 h        0.805     0.321     0.660     1.276
   142   8 o        1.606    -0.694    27.559     7.085
   143   1 h        0.803     0.361     0.563     1.179
   144   1 h        0.803     0.323     0.656     1.272
   145   8 o        1.608    -0.668    26.873     6.996
   146   1 h        0.805     0.334     0.628     1.245
   147   1 h        0.804     0.340     0.611     1.228
   148   8 o        1.607    -0.692    27.505     7.078
   149   1 h        0.804     0.348     0.593     1.210
   150   1 h        0.803     0.350     0.588     1.205
   151   8 o        1.606    -0.689    27.420     7.067
   152   1 h        0.803     0.360     0.566     1.182
   153   1 h        0.803     0.331     0.636     1.253
   154   8 o        1.609    -0.663    26.739     6.979
   155   1 h        0.805     0.338     0.616     1.233
   156   1 h        0.804     0.329     0.640     1.257
   157   8 o        1.609    -0.689    27.408     7.066
   158   1 h        0.805     0.351     0.585     1.201
   159   1 h        0.804     0.358     0.570     1.186
   160   8 o        1.609    -0.654    26.523     6.951
   161   1 h        0.806     0.308     0.698     1.312
   162   1 h        0.803     0.343     0.606     1.222
   163   8 o        1.609    -0.667    26.839     6.992
   164   1 h        0.805     0.313     0.682     1.297
   165   1 h        0.804     0.354     0.578     1.195
   166   8 o        1.608    -0.677    27.099     7.026
   167   1 h        0.803     0.346     0.597     1.214
   168   1 h        0.805     0.346     0.598     1.214
   169   8 o        1.607    -0.669    26.910     7.001
   170   1 h        0.803     0.336     0.622     1.239
   171   1 h        0.804     0.338     0.618     1.235
   172   8 o        1.607    -0.684    27.293     7.051
   173   1 h        0.802     0.369     0.546     1.161
   174   1 h        0.805     0.322     0.659     1.275
   175   8 o        1.607    -0.697    27.627     7.094
   176   1 h        0.803     0.354     0.580     1.196
   177   1 h        0.804     0.345     0.601     1.217
   178   8 o        1.609    -0.662    26.712     6.976
   179   1 h        0.804     0.339     0.614     1.231
   180   1 h        0.805     0.324     0.654     1.270
   181   8 o        1.609    -0.683    27.261     7.047
   182   1 h        0.804     0.361     0.563     1.179
   183   1 h        0.804     0.344     0.603     1.219
   184   8 o        1.608    -0.680    27.191     7.038
   185   1 h        0.805     0.316     0.674     1.289
   186   1 h        0.803     0.358     0.570     1.186
   187   8 o        1.606    -0.708    27.921     7.131
   188   1 h        0.803     0.339     0.615     1.232
   189   1 h        0.804     0.341     0.609     1.226
   190   8 o        1.608    -0.666    26.829     6.991
   191   1 h        0.803     0.353     0.581     1.197
   192   1 h        0.805     0.337     0.619     1.236
   193   8 o        1.609    -0.681    27.219     7.041
   194   1 h        0.804     0.334     0.626     1.243
   195   1 h        0.804     0.344     0.603     1.220
   196   8 o        1.607    -0.716    28.132     7.158
   197   1 h        0.804     0.326     0.647     1.263
   198   1 h        0.803     0.353     0.582     1.199
   199   8 o        1.609    -0.678    27.142     7.031
   200   1 h        0.804     0.342     0.609     1.225
   201   1 h        0.805     0.338     0.617     1.234
   202   8 o        1.608    -0.681    27.217     7.041
   203   1 h        0.805     0.327     0.645     1.261
   204   1 h        0.803     0.349     0.590     1.207
   205   8 o        1.607    -0.685    27.306     7.053
   206   1 h        0.803     0.351     0.587     1.203
   207   1 h        0.804     0.342     0.607     1.224
   208   8 o        1.609    -0.677    27.114     7.028
   209   1 h        0.803     0.353     0.582     1.198
   210   1 h        0.805     0.311     0.689     1.304
   211   8 o        1.609    -0.686    27.345     7.058
   212   1 h        0.804     0.330     0.638     1.255
   213   1 h        0.804     0.348     0.592     1.209
   214   8 o        1.609    -0.691    27.461     7.073
   215   1 h        0.804     0.348     0.592     1.209
   216   1 h        0.805     0.345     0.600     1.217
   217   8 o        1.610    -0.653    26.482     6.945
   218   1 h        0.805     0.326     0.647     1.264
   219   1 h        0.805     0.356     0.574     1.190
   220   8 o        1.608    -0.682    27.233     7.043
   221   1 h        0.805     0.330     0.637     1.254
   222   1 h        0.804     0.340     0.612     1.229
   223   8 o        1.607    -0.687    27.355     7.059
   224   1 h        0.803     0.345     0.599     1.216
   225   1 h        0.803     0.330     0.638     1.254
   226   8 o        1.608    -0.646    26.322     6.924
   227   1 h        0.802     0.348     0.593     1.210
   228   1 h        0.806     0.308     0.699     1.313
   229   8 o        1.608    -0.655    26.544     6.953
   230   1 h        0.805     0.344     0.602     1.219
   231   1 h        0.803     0.330     0.638     1.254
   232   8 o        1.607    -0.693    27.539     7.083
   233   1 h        0.804     0.347     0.596     1.213
   234   1 h        0.802     0.349     0.590     1.207
   235   8 o        1.606    -0.684    27.278     7.049
   236   1 h        0.803     0.360     0.566     1.182
   237   1 h        0.803     0.330     0.637     1.253
   238   8 o        1.609    -0.682    27.232     7.043
   239   1 h        0.805     0.319     0.667     1.283
   240   1 h        0.804     0.351     0.586     1.203
   241   8 o        1.607    -0.678    27.145     7.032
   242   1 h        0.805     0.319     0.666     1.281
   243   1 h        0.802     0.358     0.571     1.187
   244   8 o        1.604    -0.696    27.598     7.090
   245   1 h        0.802     0.335     0.626     1.243
   246   1 h        0.803     0.338     0.617     1.234
   247   8 o        1.608    -0.693    27.523     7.081
   248   1 h        0.804     0.344     0.603     1.220
   249   1 h        0.804     0.357     0.571     1.187
   250   8 o        1.608    -0.684    27.281     7.049
   251   1 h        0.805     0.319     0.665     1.281
   252   1 h        0.803     0.352     0.583     1.200
   253   8 o        1.606    -0.682    27.228     7.043
   254   1 h        0.804     0.358     0.571     1.187
   255   1 h        0.803     0.329     0.641     1.257
   256   8 o        1.608    -0.652    26.459     6.942
   257   1 h        0.802     0.342     0.608     1.225
   258   1 h        0.806     0.307     0.700     1.314
   259   8 o        1.606    -0.712    28.035     7.146
   260   1 h        0.804     0.337     0.620     1.237
   261   1 h        0.802     0.358     0.570     1.186
   262   8 o        1.610    -0.670    26.922     7.003
   263   1 h        0.805     0.342     0.608     1.225
   264   1 h        0.804     0.353     0.580     1.196
   265   8 o        1.609    -0.679    27.151     7.033
   266   1 h        0.804     0.336     0.622     1.239
   267   1 h        0.805     0.337     0.619     1.236
   268   8 o        1.609    -0.668    26.866     6.996
   269   1 h        0.805     0.324     0.652     1.268
   270   1 h        0.804     0.334     0.627     1.244
   271   8 o        1.608    -0.671    26.947     7.006
   272   1 h        0.804     0.347     0.595     1.211
   273   1 h        0.804     0.345     0.601     1.218
   274   8 o        1.608    -0.666    26.811     6.988
   275   1 h        0.805     0.311     0.689     1.303
   276   1 h        0.803     0.362     0.561     1.177
   277   8 o        1.605    -0.703    27.791     7.115
   278   1 h        0.803     0.345     0.601     1.217
   279   1 h        0.803     0.352     0.585     1.201
   280   8 o        1.607    -0.688    27.401     7.065
   281   1 h        0.804     0.344     0.603     1.220
   282   1 h        0.803     0.353     0.581     1.198
   283   8 o        1.609    -0.656    26.579     6.958
   284   1 h        0.804     0.345     0.601     1.217
   285   1 h        0.805     0.331     0.634     1.250
   286   8 o        1.607    -0.703    27.779     7.113
   287   1 h        0.803     0.339     0.616     1.233
   288   1 h        0.804     0.339     0.615     1.232
   289   8 o        1.609    -0.647    26.352     6.928
   290   1 h        0.804     0.330     0.638     1.255
   291   1 h        0.804     0.333     0.629     1.246
   292   8 o        1.608    -0.695    27.579     7.088
   293   1 h        0.804     0.333     0.629     1.246
   294   1 h        0.804     0.345     0.600     1.217
   295   8 o        1.609    -0.670    26.925     7.003
   296   1 h        0.806     0.305     0.706     1.320
   297   1 h        0.803     0.361     0.563     1.179
   298   8 o        1.606    -0.693    27.524     7.081
   299   1 h        0.803     0.350     0.588     1.205
   300   1 h        0.804     0.346     0.597     1.214
   301   8 o        1.606    -0.704    27.814     7.118
   302   1 h        0.804     0.331     0.634     1.251
   303   1 h        0.802     0.365     0.555     1.171
   304   8 o        1.608    -0.678    27.134     7.030
   305   1 h        0.804     0.338     0.618     1.235
   306   1 h        0.804     0.331     0.636     1.253
   307   8 o        1.608    -0.695    27.584     7.088
   308   1 h        0.804     0.352     0.584     1.200
   309   1 h        0.804     0.360     0.566     1.182
   310   8 o        1.608    -0.671    26.943     7.006
   311   1 h        0.803     0.334     0.628     1.245
   312   1 h        0.804     0.350     0.588     1.205
   313   8 o        1.609    -0.671    26.951     7.007
   314   1 h        0.804     0.344     0.603     1.220
   315   1 h        0.805     0.328     0.644     1.260
   316   8 o        1.608    -0.654    26.525     6.951
   317   1 h        0.803     0.347     0.596     1.213
   318   1 h        0.805     0.322     0.657     1.273
   319   8 o        1.609    -0.683    27.260     7.047
   320   1 h        0.805     0.340     0.612     1.228
   321   1 h        0.804     0.342     0.608     1.224
   322   8 o        1.607    -0.675    27.063     7.021
   323   1 h        0.803     0.351     0.587     1.204
   324   1 h        0.804     0.346     0.598     1.215
   325   8 o        1.610    -0.663    26.746     6.980
   326   1 h        0.804     0.355     0.578     1.194
   327   1 h        0.805     0.312     0.686     1.301
   328   8 o        1.606    -0.702    27.777     7.113
   329   1 h        0.803     0.326     0.649     1.265
   330   1 h        0.803     0.357     0.573     1.189
   331   8 o        1.608    -0.659    26.651     6.967
   332   1 h        0.806     0.312     0.685     1.300
   333   1 h        0.802     0.350     0.589     1.205
   334   8 o        1.606    -0.705    27.846     7.122
   335   1 h        0.803     0.342     0.608     1.225
   336   1 h        0.803     0.360     0.566     1.182
   337   8 o        1.608    -0.689    27.432     7.069
   338   1 h        0.804     0.335     0.624     1.241
   339   1 h        0.804     0.342     0.608     1.225
   340   8 o        1.610    -0.655    26.549     6.954
   341   1 h        0.806     0.321     0.660     1.276
   342   1 h        0.804     0.339     0.613     1.230
   343   8 o        1.608    -0.673    26.991     7.012
   344   1 h        0.804     0.336     0.622     1.239
   345   1 h        0.804     0.330     0.637     1.254
   346   8 o        1.606    -0.693    27.518     7.080
   347   1 h        0.803     0.355     0.577     1.194
   348   1 h        0.803     0.347     0.595     1.211
   349   8 o        1.607    -0.682    27.247     7.045
   350   1 h        0.803     0.332     0.633     1.250
   351   1 h        0.804     0.345     0.599     1.216
   352   8 o        1.608    -0.656    26.571     6.957
   353   1 h        0.803     0.340     0.611     1.228
   354   1 h        0.805     0.326     0.648     1.264
   355   8 o        1.607    -0.680    27.191     7.038
   356   1 h        0.802     0.355     0.576     1.192
   357   1 h        0.805     0.319     0.667     1.283
   358   8 o        1.609    -0.680    27.173     7.035
   359   1 h        0.804     0.350     0.588     1.204
   360   1 h        0.805     0.328     0.643     1.259
   361   8 o        1.609    -0.673    27.015     7.015
   362   1 h        0.805     0.336     0.622     1.239
   363   1 h        0.804     0.332     0.631     1.248
   364   8 o        1.607    -0.683    27.251     7.045
   365   1 h        0.804     0.358     0.570     1.186
   366   1 h        0.804     0.348     0.594     1.211
   367   8 o        1.610    -0.681    27.217     7.041
   368   1 h        0.804     0.351     0.586     1.203
   369   1 h        0.804     0.343     0.606     1.223
   370   8 o        1.608    -0.688    27.407     7.066
   371   1 h        0.803     0.330     0.638     1.255
   372   1 h        0.804     0.338     0.618     1.235
   373   8 o        1.605    -0.699    27.678     7.100
   374   1 h        0.802     0.334     0.626     1.243
   375   1 h        0.803     0.343     0.606     1.223
   376   8 o        1.610    -0.684    27.296     7.051
   377   1 h        0.804     0.348     0.592     1.208
   378   1 h        0.805     0.340     0.613     1.229
   379   8 o        1.608    -0.670    26.919     7.002
   380   1 h        0.803     0.351     0.587     1.204
   381   1 h        0.804     0.327     0.645     1.262
   382   8 o        1.604    -0.707    27.888     7.127
   383   1 h        0.803     0.358     0.569     1.185
   384   1 h        0.802     0.349     0.591     1.208
   385   8 o        1.604    -0.707    27.904     7.129
   386   1 h        0.804     0.312     0.687     1.302
   387   1 h        0.802     0.358     0.569     1.185
   388   8 o        1.608    -0.683    27.261     7.047
   389   1 h        0.805     0.353     0.581     1.197
   390   1 h        0.803     0.357     0.573     1.189
   391   8 o        1.609    -0.676    27.091     7.025
   392   1 h        0.805     0.330     0.637     1.254
   393   1 h        0.804     0.340     0.612     1.229
   394   8 o        1.608    -0.693    27.520     7.080
   395   1 h        0.804     0.337     0.620     1.237
   396   1 h        0.804     0.336     0.622     1.239
   397   8 o        1.607    -0.683    27.262     7.047
   398   1 h        0.803     0.362     0.562     1.178
   399   1 h        0.804     0.328     0.643     1.260
   400   8 o        1.605    -0.676    27.093     7.025
   401   1 h        0.805     0.320     0.663     1.278
   402   1 h        0.801     0.369     0.545     1.160
   403   8 o        1.607    -0.684    27.290     7.051
   404   1 h        0.804     0.321     0.662     1.278
   405   1 h        0.803     0.357     0.573     1.189
   406   8 o        1.607    -0.674    27.042     7.018
   407   1 h        0.804     0.328     0.643     1.259
   408   1 h        0.803     0.353     0.582     1.199
   409   8 o        1.608    -0.669    26.892     6.999
   410   1 h        0.803     0.333     0.630     1.247
   411   1 h        0.805     0.346     0.598     1.214
   412   8 o        1.608    -0.696    27.594     7.090
   413   1 h        0.803     0.349     0.591     1.208
   414   1 h        0.804     0.347     0.594     1.211
   415   8 o        1.608    -0.669    26.898     7.000
   416   1 h        0.806     0.320     0.663     1.279
   417   1 h        0.803     0.346     0.597     1.214
   418   8 o        1.608    -0.686    27.335     7.056
   419   1 h        0.804     0.337     0.619     1.236
   420   1 h        0.804     0.360     0.565     1.181
   421   8 o        1.608    -0.668    26.868     6.996
   422   1 h        0.804     0.332     0.632     1.248
   423   1 h        0.804     0.355     0.578     1.194
   424   8 o        1.608    -0.647    26.346     6.928
   425   1 h        0.804     0.329     0.640     1.256
   426   1 h        0.804     0.333     0.629     1.246
   427   8 o        1.607    -0.683    27.270     7.048
   428   1 h        0.804     0.332     0.632     1.249
   429   1 h        0.804     0.341     0.610     1.227
   430   8 o        1.605    -0.715    28.125     7.158
   431   1 h        0.803     0.339     0.615     1.232
   432   1 h        0.802     0.361     0.564     1.180
   433   8 o        1.609    -0.662    26.716     6.976
   434   1 h        0.806     0.305     0.706     1.320
   435   1 h        0.803     0.353     0.581     1.197
   436   8 o        1.606    -0.688    27.398     7.064
   437   1 h        0.802     0.332     0.632     1.249
   438   1 h        0.804     0.362     0.560     1.176
   439   8 o        1.609    -0.659    26.641     6.966
   440   1 h        0.805     0.324     0.652     1.268
   441   1 h        0.804     0.345     0.601     1.217
   442   8 o        1.609    -0.685    27.313     7.054
   443   1 h        0.805     0.359     0.569     1.184
   444   1 h        0.804     0.362     0.561     1.176
   445   8 o        1.605    -0.677    27.103     7.026
   446   1 h        0.805     0.327     0.645     1.261
   447   1 h        0.802     0.350     0.589     1.206
   448   8 o        1.610    -0.656    26.561     6.956
   449   1 h        0.804     0.351     0.585     1.202
   450   1 h        0.805     0.313     0.684     1.299
   451   8 o        1.607    -0.698    27.662     7.098
   452   1 h        0.804     0.334     0.627     1.243
   453   1 h        0.803     0.341     0.609     1.226
   454   8 o        1.607    -0.710    27.971     7.138
   455   1 h        0.803     0.351     0.586     1.202
   456   1 h        0.803     0.336     0.623     1.240
   457   8 o        1.606    -0.693    27.534     7.082
   458   1 h        0.802     0.364     0.557     1.173
   459   1 h        0.805     0.320     0.664     1.280
   460   8 o        1.606    -0.692    27.508     7.079
   461   1 h        0.805     0.335     0.625     1.242
   462   1 h        0.803     0.360     0.566     1.182
   463   8 o        1.610    -0.639    26.132     6.899
   464   1 h        0.804     0.336     0.623     1.240
   465   1 h        0.806     0.316     0.676     1.291
   466   8 o        1.607    -0.669    26.904     7.001
   467   1 h        0.803     0.340     0.613     1.230
   468   1 h        0.804     0.330     0.638     1.254
   469   8 o        1.609    -0.671    26.940     7.005
   470   1 h        0.805     0.323     0.657     1.273
   471   1 h        0.804     0.342     0.608     1.225
   472   8 o        1.608    -0.669    26.892     6.999
   473   1 h        0.805     0.319     0.667     1.283
   474   1 h        0.803     0.326     0.648     1.265
   475   8 o        1.604    -0.700    27.712     7.105
   476   1 h        0.802     0.338     0.618     1.235
   477   1 h        0.803     0.360     0.566     1.182
   478   8 o        1.608    -0.673    27.007     7.014
   479   1 h        0.803     0.359     0.568     1.184
   480   1 h        0.805     0.322     0.658     1.274
   481   8 o        1.608    -0.678    27.134     7.030
   482   1 h        0.805     0.335     0.624     1.241
   483   1 h        0.803     0.350     0.589     1.206
   484   8 o        1.605    -0.670    26.923     7.003
   485   1 h        0.806     0.312     0.684     1.299
   486   1 h        0.801     0.354     0.579     1.195
   487   8 o        1.607    -0.683    27.267     7.048
   488   1 h        0.802     0.347     0.594     1.211
   489   1 h        0.805     0.325     0.649     1.266
   490   8 o        1.608    -0.675    27.058     7.020
   491   1 h        0.804     0.328     0.642     1.259
   492   1 h        0.804     0.357     0.573     1.189
   493   8 o        1.609    -0.655    26.549     6.954
   494   1 h        0.804     0.333     0.631     1.248
   495   1 h        0.804     0.340     0.613     1.230
   496   8 o        1.607    -0.692    27.500     7.078
   497   1 h        0.806     0.310     0.693     1.307
   498   1 h        0.801     0.359     0.568     1.184
   499   8 o        1.607    -0.667    26.841     6.992
   500   1 h        0.804     0.330     0.637     1.254
   501   1 h        0.803     0.342     0.607     1.224
   502   8 o        1.606    -0.687    27.379     7.062
   503   1 h        0.804     0.328     0.643     1.259
   504   1 h        0.802     0.346     0.598     1.215
   505   8 o        1.608    -0.683    27.267     7.048
   506   1 h        0.804     0.324     0.652     1.269
   507   1 h        0.803     0.345     0.599     1.216
   508   8 o        1.608    -0.695    27.580     7.088
   509   1 h        0.803     0.358     0.570     1.186
   510   1 h        0.804     0.352     0.583     1.200
   511   8 o        1.608    -0.653    26.498     6.948
   512   1 h        0.804     0.328     0.641     1.258
   513   1 h        0.804     0.326     0.648     1.265
   514   8 o        1.610    -0.647    26.343     6.927
   515   1 h        0.805     0.320     0.664     1.280
   516   1 h        0.805     0.339     0.614     1.231
   517   8 o        1.609    -0.652    26.459     6.942
   518   1 h        0.806     0.309     0.695     1.309
   519   1 h        0.804     0.337     0.620     1.237
   520   8 o        1.608    -0.688    27.392     7.064
   521   1 h        0.803     0.349     0.590     1.206
   522   1 h        0.805     0.326     0.647     1.263
   523   8 o        1.607    -0.656    26.564     6.956
   524   1 h        0.802     0.335     0.624     1.241
   525   1 h        0.805     0.324     0.654     1.271
   526   8 o        1.608    -0.664    26.771     6.983
   527   1 h        0.803     0.341     0.610     1.227
   528   1 h        0.805     0.327     0.645     1.261
   529   8 o        1.606    -0.701    27.734     7.108
   530   1 h        0.803     0.361     0.564     1.180
   531   1 h        0.803     0.341     0.610     1.227
   532   8 o        1.608    -0.666    26.832     6.991
   533   1 h        0.804     0.344     0.604     1.220
   534   1 h        0.804     0.336     0.622     1.239
   535   8 o        1.608    -0.687    27.360     7.060
   536   1 h        0.804     0.339     0.614     1.231
   537   1 h        0.805     0.331     0.634     1.251
   538   8 o        1.609    -0.676    27.068     7.022
   539   1 h        0.805     0.331     0.635     1.252
   540   1 h        0.804     0.338     0.618     1.234
   541   8 o        1.608    -0.671    26.958     7.008
   542   1 h        0.803     0.341     0.610     1.227
   543   1 h        0.805     0.328     0.643     1.260
   544   8 o        1.608    -0.670    26.933     7.004
   545   1 h        0.803     0.352     0.584     1.201
   546   1 h        0.806     0.316     0.676     1.291
   547   8 o        1.603    -0.721    28.293     7.179
   548   1 h        0.801     0.362     0.561     1.176
   549   1 h        0.803     0.331     0.634     1.251
   550   8 o        1.609    -0.676    27.089     7.025
   551   1 h        0.804     0.339     0.614     1.230
   552   1 h        0.804     0.339     0.615     1.232
   553   8 o        1.610    -0.655    26.547     6.954
   554   1 h        0.806     0.311     0.688     1.302
   555   1 h        0.804     0.342     0.607     1.224
   556   8 o        1.606    -0.694    27.545     7.083
   557   1 h        0.802     0.351     0.585     1.202
   558   1 h        0.804     0.345     0.600     1.217
   559   8 o        1.607    -0.700    27.711     7.105
   560   1 h        0.804     0.329     0.639     1.256
   561   1 h        0.803     0.359     0.567     1.183
   562   8 o        1.608    -0.669    26.909     7.001
   563   1 h        0.804     0.333     0.630     1.246
   564   1 h        0.804     0.352     0.583     1.199
   565   8 o        1.607    -0.683    27.257     7.046
   566   1 h        0.804     0.318     0.669     1.285
   567   1 h        0.803     0.347     0.596     1.213
   568   8 o        1.609    -0.678    27.133     7.030
   569   1 h        0.805     0.336     0.622     1.239
   570   1 h        0.804     0.348     0.592     1.208
   571   8 o        1.607    -0.677    27.118     7.028
   572   1 h        0.805     0.335     0.625     1.242
   573   1 h        0.802     0.363     0.558     1.174
   574   8 o        1.605    -0.710    27.987     7.140
   575   1 h        0.802     0.361     0.564     1.179
   576   1 h        0.803     0.329     0.641     1.257
   577   8 o        1.608    -0.645    26.288     6.920
   578   1 h        0.803     0.358     0.569     1.185
   579   1 h        0.806     0.309     0.695     1.310
   580   8 o        1.609    -0.677    27.099     7.026
   581   1 h        0.804     0.332     0.633     1.250
   582   1 h        0.805     0.327     0.645     1.261
   583   8 o        1.608    -0.671    26.949     7.006
   584   1 h        0.804     0.341     0.611     1.228
   585   1 h        0.804     0.345     0.599     1.216
   586   8 o        1.608    -0.671    26.942     7.005
   587   1 h        0.804     0.347     0.596     1.212
   588   1 h        0.805     0.317     0.672     1.287
   589   8 o        1.608    -0.694    27.547     7.084
   590   1 h        0.804     0.321     0.660     1.276
   591   1 h        0.804     0.344     0.601     1.218
   592   8 o        1.608    -0.676    27.082     7.024
   593   1 h        0.805     0.318     0.668     1.284
   594   1 h        0.803     0.366     0.552     1.167
   595   8 o        1.606    -0.702    27.775     7.113
   596   1 h        0.805     0.318     0.668     1.284
   597   1 h        0.802     0.366     0.553     1.169
   598   8 o        1.607    -0.679    27.165     7.034
   599   1 h        0.803     0.366     0.552     1.167
   600   1 h        0.804     0.329     0.639     1.256
   601   8 o        1.607    -0.689    27.417     7.067
   602   1 h        0.803     0.359     0.568     1.184
   603   1 h        0.804     0.335     0.624     1.241
   604   8 o        1.605    -0.708    27.940     7.134
   605   1 h        0.803     0.330     0.637     1.254
   606   1 h        0.802     0.358     0.571     1.187
   607   8 o        1.609    -0.663    26.755     6.981
   608   1 h        0.804     0.339     0.614     1.231
   609   1 h        0.805     0.339     0.614     1.230
   610   8 o        1.607    -0.716    28.131     7.158
   611   1 h        0.803     0.340     0.614     1.230
   612   1 h        0.804     0.352     0.584     1.200
   613   8 o        1.609    -0.688    27.381     7.062
   614   1 h        0.804     0.341     0.610     1.227
   615   1 h        0.804     0.347     0.596     1.213
   616   8 o        1.608    -0.685    27.309     7.053
   617   1 h        0.805     0.344     0.602     1.219
   618   1 h        0.803     0.324     0.652     1.269
   619   8 o        1.607    -0.670    26.938     7.005
   620   1 h        0.803     0.345     0.599     1.216
   621   1 h        0.804     0.327     0.646     1.263
   622   8 o        1.608    -0.661    26.706     6.975
   623   1 h        0.803     0.354     0.580     1.196
   624   1 h        0.805     0.320     0.663     1.278
   625   8 o        1.610    -0.652    26.456     6.942
   626   1 h        0.805     0.313     0.682     1.297
   627   1 h        0.804     0.327     0.646     1.262
   628   8 o        1.606    -0.705    27.843     7.122
   629   1 h        0.803     0.346     0.598     1.215
   630   1 h        0.804     0.354     0.579     1.196
   631   8 o        1.608    -0.684    27.291     7.051
   632   1 h        0.804     0.344     0.604     1.220
   633   1 h        0.805     0.330     0.638     1.255
   634   8 o        1.606    -0.687    27.370     7.061
   635   1 h        0.801     0.364     0.556     1.172
   636   1 h        0.805     0.310     0.691     1.305
   637   8 o        1.607    -0.685    27.329     7.056
   638   1 h        0.803     0.341     0.610     1.227
   639   1 h        0.804     0.339     0.616     1.232
   640   8 o        1.605    -0.703    27.788     7.115
   641   1 h        0.804     0.346     0.598     1.215
   642   1 h        0.803     0.366     0.553     1.168
   643   8 o        1.607    -0.665    26.792     6.986
   644   1 h        0.804     0.332     0.632     1.248
   645   1 h        0.803     0.372     0.539     1.153
   646   8 o        1.610    -0.668    26.885     6.998
   647   1 h        0.805     0.326     0.647     1.264
   648   1 h        0.804     0.335     0.625     1.242
   649   8 o        1.608    -0.659    26.656     6.968
   650   1 h        0.803     0.346     0.598     1.215
   651   1 h        0.806     0.314     0.680     1.295
   652   8 o        1.609    -0.671    26.945     7.006
   653   1 h        0.804     0.361     0.562     1.178
   654   1 h        0.806     0.307     0.701     1.315
   655   8 o        1.607    -0.680    27.193     7.038
   656   1 h        0.803     0.349     0.590     1.206
   657   1 h        0.803     0.337     0.620     1.237
   658   8 o        1.608    -0.655    26.534     6.952
   659   1 h        0.806     0.306     0.704     1.318
   660   1 h        0.802     0.349     0.592     1.208
   661   8 o        1.607    -0.683    27.254     7.046
   662   1 h        0.803     0.349     0.591     1.208
   663   1 h        0.804     0.351     0.586     1.202
   664   8 o        1.607    -0.690    27.438     7.070
   665   1 h        0.804     0.329     0.641     1.258
   666   1 h        0.804     0.342     0.608     1.225
   667   8 o        1.606    -0.677    27.096     7.025
   668   1 h        0.805     0.330     0.638     1.255
   669   1 h        0.802     0.345     0.600     1.217
   670   8 o        1.609    -0.676    27.078     7.023
   671   1 h        0.805     0.347     0.596     1.213
   672   1 h        0.804     0.325     0.650     1.267
   673   8 o        1.606    -0.680    27.183     7.037
   674   1 h        0.803     0.349     0.591     1.208
   675   1 h        0.804     0.327     0.646     1.263
   676   8 o        1.608    -0.666    26.811     6.988
   677   1 h        0.804     0.326     0.647     1.264
   678   1 h        0.804     0.333     0.630     1.247
   679   8 o        1.609    -0.669    26.889     6.999
   680   1 h        0.804     0.327     0.645     1.261
   681   1 h        0.804     0.331     0.634     1.251
   682   8 o        1.610    -0.682    27.223     7.042
   683   1 h        0.804     0.320     0.665     1.280
   684   1 h        0.804     0.352     0.583     1.199
   685   8 o        1.606    -0.687    27.376     7.062
   686   1 h        0.803     0.364     0.557     1.172
   687   1 h        0.804     0.328     0.642     1.258
   688   8 o        1.608    -0.660    26.673     6.970
   689   1 h        0.803     0.351     0.585     1.202
   690   1 h        0.805     0.328     0.642     1.259
   691   8 o        1.608    -0.684    27.282     7.049
   692   1 h        0.804     0.334     0.627     1.243
   693   1 h        0.804     0.339     0.613     1.230
   694   8 o        1.608    -0.680    27.177     7.036
   695   1 h        0.804     0.334     0.627     1.244
   696   1 h        0.804     0.330     0.638     1.255
   697   8 o        1.607    -0.670    26.935     7.005
   698   1 h        0.804     0.329     0.639     1.256
   699   1 h        0.803     0.338     0.617     1.234
   700   8 o        1.607    -0.691    27.480     7.075
   701   1 h        0.803     0.357     0.572     1.188
   702   1 h        0.804     0.325     0.651     1.268
   703   8 o        1.606    -0.689    27.433     7.069
   704   1 h        0.803     0.332     0.632     1.249
   705   1 h        0.803     0.357     0.572     1.189
   706   8 o        1.609    -0.653    26.491     6.947
   707   1 h        0.804     0.325     0.650     1.266
   708   1 h        0.805     0.333     0.628     1.245
   709   8 o        1.608    -0.688    27.395     7.064
   710   1 h        0.803     0.355     0.577     1.193
   711   1 h        0.805     0.320     0.665     1.281
   712   8 o        1.607    -0.679    27.161     7.034
   713   1 h        0.802     0.366     0.552     1.167
   714   1 h        0.805     0.315     0.677     1.293
   715   8 o        1.605    -0.710    27.983     7.139
   716   1 h        0.802     0.360     0.566     1.182
   717   1 h        0.803     0.331     0.634     1.251
   718   8 o        1.605    -0.673    27.015     7.015
   719   1 h        0.806     0.309     0.695     1.310
   720   1 h        0.800     0.379     0.525     1.139
   721   8 o        1.607    -0.705    27.845     7.122
   722   1 h        0.803     0.353     0.581     1.197
   723   1 h        0.804     0.339     0.614     1.231
   724   8 o        1.609    -0.680    27.174     7.036
   725   1 h        0.804     0.348     0.592     1.209
   726   1 h        0.803     0.322     0.659     1.275
   727   8 o        1.610    -0.669    26.899     7.000
   728   1 h        0.805     0.324     0.652     1.268
   729   1 h        0.804     0.343     0.606     1.223
   730   8 o        1.604    -0.669    26.908     7.001
   731   1 h        0.801     0.352     0.585     1.202
   732   1 h        0.806     0.313     0.683     1.298
   733   8 o        1.607    -0.682    27.232     7.043
   734   1 h        0.802     0.359     0.569     1.185
   735   1 h        0.805     0.329     0.639     1.256
   736   8 o        1.610    -0.678    27.128     7.030
   737   1 h        0.803     0.351     0.585     1.201
   738   1 h        0.805     0.338     0.618     1.235
   739   8 o        1.608    -0.657    26.605     6.962
   740   1 h        0.804     0.335     0.624     1.241
   741   1 h        0.804     0.336     0.622     1.239
   742   8 o        1.607    -0.688    27.388     7.063
   743   1 h        0.802     0.342     0.607     1.224
   744   1 h        0.804     0.334     0.628     1.245
   745   8 o        1.608    -0.674    27.041     7.018
   746   1 h        0.804     0.332     0.632     1.249
   747   1 h        0.804     0.349     0.589     1.206
   748   8 o        1.609    -0.666    26.831     6.991
   749   1 h        0.804     0.336     0.621     1.238
   750   1 h        0.805     0.339     0.615     1.231
   751   8 o        1.608    -0.673    27.009     7.014
   752   1 h        0.805     0.318     0.669     1.285
   753   1 h        0.803     0.339     0.616     1.233
   754   8 o        1.610    -0.665    26.784     6.985
   755   1 h        0.805     0.328     0.642     1.259
   756   1 h        0.805     0.327     0.644     1.261

 Mol. C6AA /au·bohr⁶  :    2899408.736848
 Mol. C8AA /au·bohr⁸  :   52607117.844136
 Mol. α(0) /au        :       2393.092788


Wiberg/Mayer (AO) data.
largest (>0.10) Wiberg bond orders for each atom

 ---------------------------------------------------------------------------
     #   Z sym  total        # sym  WBO       # sym  WBO       # sym  WBO
 ---------------------------------------------------------------------------
     1   8 o    1.790 --     3 h    0.870     2 h    0.831
     2   1 h    0.884 --     1 o    0.831
     3   1 h    0.896 --     1 o    0.870
     4   8 o    1.862 --     6 h    0.851     5 h    0.831
     5   1 h    0.883 --     4 o    0.831
     6   1 h    0.887 --     4 o    0.851
     7   8 o    1.804 --     8 h    0.851     9 h    0.828
     8   1 h    0.898 --     7 o    0.851
     9   1 h    0.893 --     7 o    0.828
    10   8 o    1.869 --    11 h    0.814    12 h    0.804
    11   1 h    0.875 --    10 o    0.814
    12   1 h    0.880 --    10 o    0.804
    13   8 o    1.821 --    15 h    0.860    14 h    0.780
    14   1 h    0.875 --    13 o    0.780
    15   1 h    0.888 --    13 o    0.860
    16   8 o    1.862 --    18 h    0.834    17 h    0.799
    17   1 h    0.874 --    16 o    0.799
    18   1 h    0.891 --    16 o    0.834
    19   8 o    1.865 --    20 h    0.859    21 h    0.812
    20   1 h    0.893 --    19 o    0.859
    21   1 h    0.878 --    19 o    0.812
    22   8 o    1.858 --    23 h    0.830    24 h    0.821
    23   1 h    0.876 --    22 o    0.830
    24   1 h    0.891 --    22 o    0.821
    25   8 o    1.854 --    27 h    0.813    26 h    0.802
    26   1 h    0.876 --    25 o    0.802
    27   1 h    0.881 --    25 o    0.813
    28   8 o    1.871 --    29 h    0.810    30 h    0.780
    29   1 h    0.877 --    28 o    0.810
    30   1 h    0.875 --    28 o    0.780
    31   8 o    1.877 --    32 h    0.827    33 h    0.806
    32   1 h    0.882 --    31 o    0.827
    33   1 h    0.870 --    31 o    0.806
    34   8 o    1.820 --    36 h    0.849    35 h    0.839
    35   1 h    0.894 --    34 o    0.839
    36   1 h    0.896 --    34 o    0.849
    37   8 o    1.849 --    39 h    0.823    38 h    0.793
    38   1 h    0.875 --    37 o    0.793
    39   1 h    0.880 --    37 o    0.823
    40   8 o    1.815 --    42 h    0.849    41 h    0.801
    41   1 h    0.877 --    40 o    0.801
    42   1 h    0.890 --    40 o    0.849
    43   8 o    1.849 --    45 h    0.861    44 h    0.820
    44   1 h    0.878 --    43 o    0.820
    45   1 h    0.891 --    43 o    0.861
    46   8 o    1.862 --    47 h    0.825    48 h    0.819
    47   1 h    0.882 --    46 o    0.825
    48   1 h    0.878 --    46 o    0.819
    49   8 o    1.812 --    51 h    0.828    50 h    0.816
    50   1 h    0.884 --    49 o    0.816
    51   1 h    0.890 --    49 o    0.828
    52   8 o    1.802 --    54 h    0.876    53 h    0.818
    53   1 h    0.884 --    52 o    0.818
    54   1 h    0.899 --    52 o    0.876
    55   8 o    1.791 --    56 h    0.833    57 h    0.807
    56   1 h    0.897 --    55 o    0.833
    57   1 h    0.875 --    55 o    0.807
    58   8 o    1.866 --    59 h    0.845    60 h    0.806
    59   1 h    0.888 --    58 o    0.845
    60   1 h    0.880 --    58 o    0.806
    61   8 o    1.833 --    62 h    0.827    63 h    0.814
    62   1 h    0.886 --    61 o    0.827
    63   1 h    0.879 --    61 o    0.814
    64   8 o    1.842 --    66 h    0.831    65 h    0.824
    65   1 h    0.884 --    64 o    0.824
    66   1 h    0.880 --    64 o    0.831
    67   8 o    1.829 --    69 h    0.838    68 h    0.817
    68   1 h    0.878 --    67 o    0.817
    69   1 h    0.890 --    67 o    0.838
    70   8 o    1.862 --    71 h    0.825    72 h    0.816
    71   1 h    0.889 --    70 o    0.825
    72   1 h    0.880 --    70 o    0.816
    73   8 o    1.833 --    74 h    0.862    75 h    0.836
    74   1 h    0.888 --    73 o    0.862
    75   1 h    0.888 --    73 o    0.836
    76   8 o    1.867 --    78 h    0.836    77 h    0.806
    77   1 h    0.871 --    76 o    0.806
    78   1 h    0.884 --    76 o    0.836
    79   8 o    1.872 --    81 h    0.821    80 h    0.820   642 h    0.110
    80   1 h    0.878 --    79 o    0.820
    81   1 h    0.884 --    79 o    0.821
    82   8 o    1.850 --    83 h    0.851    84 h    0.816
    83   1 h    0.890 --    82 o    0.851
    84   1 h    0.876 --    82 o    0.816
    85   8 o    1.861 --    87 h    0.817    86 h    0.815
    86   1 h    0.885 --    85 o    0.815
    87   1 h    0.878 --    85 o    0.817
    88   8 o    1.862 --    90 h    0.807    89 h    0.797
    89   1 h    0.877 --    88 o    0.797
    90   1 h    0.869 --    88 o    0.807
    91   8 o    1.827 --    93 h    0.901    92 h    0.795
    92   1 h    0.867 --    91 o    0.795
    93   1 h    0.908 --    91 o    0.901
    94   8 o    1.869 --    95 h    0.828    96 h    0.827
    95   1 h    0.880 --    94 o    0.828
    96   1 h    0.878 --    94 o    0.827
    97   8 o    1.865 --    98 h    0.844    99 h    0.839
    98   1 h    0.877 --    97 o    0.844
    99   1 h    0.881 --    97 o    0.839
   100   8 o    1.870 --   102 h    0.831   101 h    0.799
   101   1 h    0.876 --   100 o    0.799
   102   1 h    0.878 --   100 o    0.831
   103   8 o    1.862 --   105 h    0.807   104 h    0.791
   104   1 h    0.872 --   103 o    0.791
   105   1 h    0.880 --   103 o    0.807
   106   8 o    1.862 --   108 h    0.823   107 h    0.805
   107   1 h    0.876 --   106 o    0.805
   108   1 h    0.884 --   106 o    0.823
   109   8 o    1.870 --   110 h    0.836   111 h    0.798
   110   1 h    0.877 --   109 o    0.836
   111   1 h    0.876 --   109 o    0.798
   112   8 o    1.853 --   113 h    0.839   114 h    0.784
   113   1 h    0.890 --   112 o    0.839
   114   1 h    0.868 --   112 o    0.784
   115   8 o    1.864 --   117 h    0.865   116 h    0.800
   116   1 h    0.877 --   115 o    0.800
   117   1 h    0.892 --   115 o    0.865
   118   8 o    1.868 --   120 h    0.854   119 h    0.807
   119   1 h    0.874 --   118 o    0.807
   120   1 h    0.889 --   118 o    0.854
   121   8 o    1.870 --   123 h    0.829   122 h    0.824
   122   1 h    0.881 --   121 o    0.824
   123   1 h    0.890 --   121 o    0.829
   124   8 o    1.803 --   126 h    0.848   125 h    0.825
   125   1 h    0.890 --   124 o    0.825
   126   1 h    0.890 --   124 o    0.848
   127   8 o    1.805 --   128 h    0.850   129 h    0.837
   128   1 h    0.889 --   127 o    0.850
   129   1 h    0.885 --   127 o    0.837
   130   8 o    1.858 --   132 h    0.824   131 h    0.820
   131   1 h    0.882 --   130 o    0.820
   132   1 h    0.877 --   130 o    0.824
   133   8 o    1.864 --   135 h    0.832   134 h    0.809
   134   1 h    0.874 --   133 o    0.809
   135   1 h    0.894 --   133 o    0.832
   136   8 o    1.826 --   137 h    0.894   138 h    0.804
   137   1 h    0.901 --   136 o    0.894
   138   1 h    0.875 --   136 o    0.804
   139   8 o    1.863 --   141 h    0.877   140 h    0.838
   140   1 h    0.870 --   139 o    0.838
   141   1 h    0.897 --   139 o    0.877
   142   8 o    1.855 --   144 h    0.833   143 h    0.793
   143   1 h    0.870 --   142 o    0.793
   144   1 h    0.896 --   142 o    0.833
   145   8 o    1.827 --   146 h    0.864   147 h    0.831
   146   1 h    0.889 --   145 o    0.864
   147   1 h    0.884 --   145 o    0.831
   148   8 o    1.851 --   150 h    0.809   149 h    0.808
   149   1 h    0.879 --   148 o    0.808
   150   1 h    0.877 --   148 o    0.809
   151   8 o    1.884 --   153 h    0.814   152 h    0.784
   152   1 h    0.870 --   151 o    0.784
   153   1 h    0.891 --   151 o    0.814
   154   8 o    1.846 --   156 h    0.847   155 h    0.847
   155   1 h    0.885 --   154 o    0.847
   156   1 h    0.892 --   154 o    0.847
   157   8 o    1.860 --   158 h    0.827   159 h    0.805
   158   1 h    0.876 --   157 o    0.827
   159   1 h    0.872 --   157 o    0.805
   160   8 o    1.827 --   161 h    0.891   162 h    0.823
   161   1 h    0.905 --   160 o    0.891
   162   1 h    0.882 --   160 o    0.823
   163   8 o    1.814 --   164 h    0.879   165 h    0.822
   164   1 h    0.902 --   163 o    0.879
   165   1 h    0.874 --   163 o    0.822
   166   8 o    1.859 --   168 h    0.843   167 h    0.819
   167   1 h    0.880 --   166 o    0.819
   168   1 h    0.880 --   166 o    0.843
   169   8 o    1.879 --   171 h    0.826   170 h    0.818
   170   1 h    0.887 --   169 o    0.818
   171   1 h    0.886 --   169 o    0.826
   172   8 o    1.853 --   174 h    0.874   173 h    0.774
   173   1 h    0.864 --   172 o    0.774
   174   1 h    0.896 --   172 o    0.874
   175   8 o    1.832 --   177 h    0.840   176 h    0.797
   176   1 h    0.875 --   175 o    0.797
   177   1 h    0.881 --   175 o    0.840
   178   8 o    1.833 --   180 h    0.857   179 h    0.843
   179   1 h    0.885 --   178 o    0.843
   180   1 h    0.895 --   178 o    0.857
   181   8 o    1.851 --   183 h    0.838   182 h    0.816
   182   1 h    0.870 --   181 o    0.816
   183   1 h    0.882 --   181 o    0.838
   184   8 o    1.822 --   185 h    0.879   186 h    0.805
   185   1 h    0.900 --   184 o    0.879
   186   1 h    0.872 --   184 o    0.805
   187   8 o    1.809 --   189 h    0.820   188 h    0.817
   188   1 h    0.885 --   187 o    0.817
   189   1 h    0.883 --   187 o    0.820
   190   8 o    1.874 --   192 h    0.856   191 h    0.802
   191   1 h    0.875 --   190 o    0.802
   192   1 h    0.886 --   190 o    0.856
   193   8 o    1.829 --   195 h    0.835   194 h    0.828
   194   1 h    0.888 --   193 o    0.828
   195   1 h    0.882 --   193 o    0.835
   196   8 o    1.786 --   197 h    0.830   198 h    0.817
   197   1 h    0.893 --   196 o    0.830
   198   1 h    0.876 --   196 o    0.817
   199   8 o    1.839 --   201 h    0.836   200 h    0.825
   200   1 h    0.883 --   199 o    0.825
   201   1 h    0.886 --   199 o    0.836
   202   8 o    1.835 --   203 h    0.849   204 h    0.803
   203   1 h    0.893 --   202 o    0.849
   204   1 h    0.878 --   202 o    0.803
   205   8 o    1.872 --   207 h    0.830   206 h    0.790
   206   1 h    0.877 --   205 o    0.790
   207   1 h    0.883 --   205 o    0.830
   208   8 o    1.806 --   210 h    0.884   209 h    0.816
   209   1 h    0.875 --   208 o    0.816
   210   1 h    0.903 --   208 o    0.884
   211   8 o    1.844 --   212 h    0.840   213 h    0.821
   212   1 h    0.891 --   211 o    0.840
   213   1 h    0.879 --   211 o    0.821
   214   8 o    1.841 --   216 h    0.836   215 h    0.805
   215   1 h    0.879 --   214 o    0.805
   216   1 h    0.881 --   214 o    0.836
   217   8 o    1.871 --   218 h    0.866   219 h    0.836
   218   1 h    0.894 --   217 o    0.866
   219   1 h    0.873 --   217 o    0.836
   220   8 o    1.832 --   221 h    0.855   222 h    0.811
   221   1 h    0.891 --   220 o    0.855
   222   1 h    0.884 --   220 o    0.811
   223   8 o    1.836 --   225 h    0.840   224 h    0.822
   224   1 h    0.881 --   223 o    0.822
   225   1 h    0.891 --   223 o    0.840
   226   8 o    1.861 --   228 h    0.896   227 h    0.804
   227   1 h    0.879 --   226 o    0.804
   228   1 h    0.905 --   226 o    0.896
   229   8 o    1.887 --   230 h    0.841   231 h    0.833
   230   1 h    0.881 --   229 o    0.841
   231   1 h    0.891 --   229 o    0.833
   232   8 o    1.861 --   233 h    0.826   234 h    0.806
   233   1 h    0.880 --   232 o    0.826
   234   1 h    0.878 --   232 o    0.806
   235   8 o    1.898 --   237 h    0.823   236 h    0.783
   236   1 h    0.871 --   235 o    0.783
   237   1 h    0.891 --   235 o    0.823
   238   8 o    1.819 --   239 h    0.870   240 h    0.822
   239   1 h    0.898 --   238 o    0.870
   240   1 h    0.877 --   238 o    0.822
   241   8 o    1.835 --   242 h    0.871   243 h    0.791
   242   1 h    0.898 --   241 o    0.871
   243   1 h    0.872 --   241 o    0.791
   244   8 o    1.839 --   246 h    0.817   245 h    0.809
   245   1 h    0.888 --   244 o    0.809
   246   1 h    0.886 --   244 o    0.817
   247   8 o    1.826 --   248 h    0.826   249 h    0.823
   248   1 h    0.882 --   247 o    0.826
   249   1 h    0.872 --   247 o    0.823
   250   8 o    1.811 --   251 h    0.877   252 h    0.810
   251   1 h    0.898 --   250 o    0.877
   252   1 h    0.876 --   250 o    0.810
   253   8 o    1.880 --   254 h    0.811   255 h    0.810
   254   1 h    0.872 --   253 o    0.811
   255   1 h    0.892 --   253 o    0.810
   256   8 o    1.833 --   258 h    0.903   257 h    0.818
   257   1 h    0.883 --   256 o    0.818
   258   1 h    0.906 --   256 o    0.903
   259   8 o    1.838 --   260 h    0.837   261 h    0.784
   260   1 h    0.887 --   259 o    0.837
   261   1 h    0.872 --   259 o    0.784
   262   8 o    1.856 --   263 h    0.855   264 h    0.822
   263   1 h    0.883 --   262 o    0.855
   264   1 h    0.875 --   262 o    0.822
   265   8 o    1.830 --   267 h    0.850   266 h    0.838
   266   1 h    0.887 --   265 o    0.838
   267   1 h    0.886 --   265 o    0.850
   268   8 o    1.817 --   269 h    0.867   270 h    0.845
   269   1 h    0.895 --   268 o    0.867
   270   1 h    0.888 --   268 o    0.845
   271   8 o    1.870 --   272 h    0.846   273 h    0.818
   272   1 h    0.879 --   271 o    0.846
   273   1 h    0.881 --   271 o    0.818
   274   8 o    1.845 --   275 h    0.883   276 h    0.808
   275   1 h    0.903 --   274 o    0.883
   276   1 h    0.869 --   274 o    0.808
   277   8 o    1.879 --   278 h    0.807   279 h    0.784
   278   1 h    0.881 --   277 o    0.807
   279   1 h    0.876 --   277 o    0.784
   280   8 o    1.869 --   281 h    0.823   282 h    0.805
   281   1 h    0.882 --   280 o    0.823
   282   1 h    0.875 --   280 o    0.805
   283   8 o    1.846 --   285 h    0.872   284 h    0.843
   284   1 h    0.881 --   283 o    0.843
   285   1 h    0.890 --   283 o    0.872
   286   8 o    1.804 --   287 h    0.826   288 h    0.823
   287   1 h    0.885 --   286 o    0.826
   288   1 h    0.885 --   286 o    0.823
   289   8 o    1.867 --   291 h    0.855   290 h    0.850
   290   1 h    0.891 --   289 o    0.850
   291   1 h    0.889 --   289 o    0.855
   292   8 o    1.810 --   293 h    0.842   294 h    0.832
   293   1 h    0.889 --   292 o    0.842
   294   1 h    0.881 --   292 o    0.832
   295   8 o    1.812 --   296 h    0.891   297 h    0.807
   296   1 h    0.907 --   295 o    0.891
   297   1 h    0.869 --   295 o    0.807
   298   8 o    1.878 --   300 h    0.812   299 h    0.801
   299   1 h    0.877 --   298 o    0.801
   300   1 h    0.880 --   298 o    0.812
   301   8 o    1.841 --   302 h    0.840   303 h    0.762
   302   1 h    0.890 --   301 o    0.840
   303   1 h    0.867 --   301 o    0.762
   304   8 o    1.812 --   306 h    0.851   305 h    0.841
   305   1 h    0.886 --   304 o    0.841
   306   1 h    0.891 --   304 o    0.851
   307   8 o    1.855 --   308 h    0.819   309 h    0.800
   308   1 h    0.876 --   307 o    0.819
   309   1 h    0.871 --   307 o    0.800
   310   8 o    1.880 --   312 h    0.823   311 h    0.815
   311   1 h    0.889 --   310 o    0.815
   312   1 h    0.878 --   310 o    0.823
   313   8 o    1.838 --   315 h    0.849   314 h    0.830
   314   1 h    0.882 --   313 o    0.830
   315   1 h    0.893 --   313 o    0.849
   316   8 o    1.874 --   318 h    0.864   317 h    0.811
   317   1 h    0.880 --   316 o    0.811
   318   1 h    0.896 --   316 o    0.864
   319   8 o    1.821 --   320 h    0.852   321 h    0.840
   320   1 h    0.884 --   319 o    0.852
   321   1 h    0.883 --   319 o    0.840
   322   8 o    1.880 --   324 h    0.824   323 h    0.809
   323   1 h    0.877 --   322 o    0.809
   324   1 h    0.880 --   322 o    0.824
   325   8 o    1.824 --   327 h    0.889   326 h    0.828
   326   1 h    0.874 --   325 o    0.828
   327   1 h    0.903 --   325 o    0.889
   328   8 o    1.821 --   329 h    0.841   330 h    0.805
   329   1 h    0.894 --   328 o    0.841
   330   1 h    0.873 --   328 o    0.805
   331   8 o    1.837 --   332 h    0.895   333 h    0.810
   332   1 h    0.902 --   331 o    0.895
   333   1 h    0.877 --   331 o    0.810
   334   8 o    1.843 --   335 h    0.809   336 h    0.792
   335   1 h    0.883 --   334 o    0.809
   336   1 h    0.870 --   334 o    0.792
   337   8 o    1.830 --   339 h    0.833   338 h    0.817
   338   1 h    0.888 --   337 o    0.817
   339   1 h    0.883 --   337 o    0.833
   340   8 o    1.827 --   341 h    0.889   342 h    0.842
   341   1 h    0.897 --   340 o    0.889
   342   1 h    0.885 --   340 o    0.842
   343   8 o    1.843 --   344 h    0.839   345 h    0.838
   344   1 h    0.887 --   343 o    0.839
   345   1 h    0.891 --   343 o    0.838
   346   8 o    1.876 --   348 h    0.814   347 h    0.795
   347   1 h    0.874 --   346 o    0.795
   348   1 h    0.879 --   346 o    0.814
   349   8 o    1.849 --   350 h    0.828   351 h    0.823
   350   1 h    0.890 --   349 o    0.828
   351   1 h    0.881 --   349 o    0.823
   352   8 o    1.866 --   354 h    0.865   353 h    0.812
   353   1 h    0.884 --   352 o    0.812
   354   1 h    0.894 --   352 o    0.865
   355   8 o    1.829 --   357 h    0.877   356 h    0.785
   356   1 h    0.874 --   355 o    0.785
   357   1 h    0.898 --   355 o    0.877
   358   8 o    1.820 --   360 h    0.866   359 h    0.822
   359   1 h    0.877 --   358 o    0.822
   360   1 h    0.892 --   358 o    0.866
   361   8 o    1.812 --   362 h    0.857   363 h    0.853
   362   1 h    0.887 --   361 o    0.857
   363   1 h    0.889 --   361 o    0.853
   364   8 o    1.890 --   366 h    0.833   365 h    0.791
[...]
   369   1 h    0.883 --   367 o    0.822
   370   8 o    1.831 --   372 h    0.839   371 h    0.829
   371   1 h    0.891 --   370 o    0.829
   372   1 h    0.886 --   370 o    0.839
   373   8 o    1.836 --   374 h    0.813   375 h    0.808
   374   1 h    0.888 --   373 o    0.813
   375   1 h    0.883 --   373 o    0.808
   376   8 o    1.851 --   378 h    0.835   377 h    0.819
   377   1 h    0.879 --   376 o    0.819
   378   1 h    0.885 --   376 o    0.835
   379   8 o    1.881 --   381 h    0.837   380 h    0.801
   380   1 h    0.877 --   379 o    0.801
   381   1 h    0.893 --   379 o    0.837
   382   8 o    1.866 --   384 h    0.796   383 h    0.793
   383   1 h    0.871 --   382 o    0.793
   384   1 h    0.878 --   382 o    0.796
   385   8 o    1.808 --   386 h    0.862   387 h    0.766
   386   1 h    0.903 --   385 o    0.862
   387   1 h    0.871 --   385 o    0.766
   388   8 o    1.880 --   389 h    0.841   390 h    0.790
   389   1 h    0.875 --   388 o    0.841
   390   1 h    0.873 --   388 o    0.790
   391   8 o    1.821 --   392 h    0.867   393 h    0.826
   392   1 h    0.891 --   391 o    0.867
   393   1 h    0.884 --   391 o    0.826
   394   8 o    1.800 --   395 h    0.840   396 h    0.825
   395   1 h    0.887 --   394 o    0.840
   396   1 h    0.887 --   394 o    0.825
   397   8 o    1.855 --   399 h    0.848   398 h    0.805
   398   1 h    0.869 --   397 o    0.805
   399   1 h    0.892 --   397 o    0.848
   400   8 o    1.870 --   401 h    0.878   402 h    0.769
   401   1 h    0.897 --   400 o    0.878
   402   1 h    0.863 --   400 o    0.769
   403   8 o    1.844 --   404 h    0.842   405 h    0.798
   404   1 h    0.897 --   403 o    0.842
   405   1 h    0.873 --   403 o    0.798
   406   8 o    1.856 --   407 h    0.833   408 h    0.821
   407   1 h    0.892 --   406 o    0.833
   408   1 h    0.876 --   406 o    0.821
   409   8 o    1.851 --   411 h    0.850   410 h    0.818
   410   1 h    0.889 --   409 o    0.818
   411   1 h    0.880 --   409 o    0.850
   412   8 o    1.843 --   414 h    0.821   413 h    0.802
   413   1 h    0.878 --   412 o    0.802
   414   1 h    0.879 --   412 o    0.821
   415   8 o    1.826 --   416 h    0.889   417 h    0.813
   416   1 h    0.897 --   415 o    0.889
   417   1 h    0.880 --   415 o    0.813
   418   8 o    1.840 --   419 h    0.846   420 h    0.831
   419   1 h    0.886 --   418 o    0.846
   420   1 h    0.870 --   418 o    0.831
   421   8 o    1.868 --   422 h    0.840   423 h    0.819
   422   1 h    0.889 --   421 o    0.840
   423   1 h    0.874 --   421 o    0.819
   424   8 o    1.867 --   426 h    0.849   425 h    0.846
   425   1 h    0.892 --   424 o    0.846
   426   1 h    0.889 --   424 o    0.849
   427   8 o    1.823 --   428 h    0.837   429 h    0.829
   428   1 h    0.890 --   427 o    0.837
   429   1 h    0.884 --   427 o    0.829
   430   8 o    1.843 --   431 h    0.811   432 h    0.784
   431   1 h    0.885 --   430 o    0.811
   432   1 h    0.870 --   430 o    0.784
   433   8 o    1.819 --   434 h    0.903   435 h    0.813
   434   1 h    0.907 --   433 o    0.903
   435   1 h    0.875 --   433 o    0.813
   436   8 o    1.876 --   437 h    0.819   438 h    0.806
   437   1 h    0.890 --   436 o    0.819
   438   1 h    0.869 --   436 o    0.806
   439   8 o    1.837 --   440 h    0.872   441 h    0.841
   440   1 h    0.895 --   439 o    0.872
   441   1 h    0.881 --   439 o    0.841
   442   8 o    1.877 --   443 h    0.831   444 h    0.795
   443   1 h    0.871 --   442 o    0.831
   444   1 h    0.869 --   442 o    0.795
   445   8 o    1.863 --   446 h    0.854   447 h    0.780
   446   1 h    0.893 --   445 o    0.854
   447   1 h    0.878 --   445 o    0.780
   448   8 o    1.826 --   450 h    0.892   449 h    0.831
   449   1 h    0.877 --   448 o    0.831
   450   1 h    0.902 --   448 o    0.892
   451   8 o    1.839 --   452 h    0.822   453 h    0.803
   452   1 h    0.888 --   451 o    0.822
   453   1 h    0.883 --   451 o    0.803
   454   8 o    1.837 --   456 h    0.806   455 h    0.793
   455   1 h    0.877 --   454 o    0.793
   456   1 h    0.887 --   454 o    0.806
   457   8 o    1.830 --   459 h    0.861   458 h    0.774
   458   1 h    0.868 --   457 o    0.774
   459   1 h    0.898 --   457 o    0.861
   460   8 o    1.860 --   461 h    0.848   462 h    0.777
   461   1 h    0.888 --   460 o    0.848
   462   1 h    0.871 --   460 o    0.777
   463   8 o    1.852 --   465 h    0.891   464 h    0.837
   464   1 h    0.887 --   463 o    0.837
   465   1 h    0.900 --   463 o    0.891
   466   8 o    1.845 --   468 h    0.862   467 h    0.814
   467   1 h    0.885 --   466 o    0.814
   468   1 h    0.891 --   466 o    0.862
   469   8 o    1.810 --   470 h    0.884   471 h    0.828
   470   1 h    0.896 --   469 o    0.884
   471   1 h    0.883 --   469 o    0.828
   472   8 o    1.831 --   473 h    0.867   474 h    0.820
   473   1 h    0.898 --   472 o    0.867
   474   1 h    0.894 --   472 o    0.820
   475   8 o    1.877 --   476 h    0.804   477 h    0.783
   476   1 h    0.886 --   475 o    0.804
   477   1 h    0.871 --   475 o    0.783
   478   8 o    1.866 --   480 h    0.857   479 h    0.794
   479   1 h    0.871 --   478 o    0.794
   480   1 h    0.896 --   478 o    0.857
   481   8 o    1.839 --   482 h    0.857   483 h    0.822
   482   1 h    0.888 --   481 o    0.857
   483   1 h    0.878 --   481 o    0.822
   484   8 o    1.851 --   485 h    0.898   486 h    0.775
   485   1 h    0.902 --   484 o    0.898
   486   1 h    0.874 --   484 o    0.775
   487   8 o    1.828 --   489 h    0.851   488 h    0.812
   488   1 h    0.879 --   487 o    0.812
   489   1 h    0.894 --   487 o    0.851
   490   8 o    1.849 --   491 h    0.850   492 h    0.817
   491   1 h    0.892 --   490 o    0.850
   492   1 h    0.873 --   490 o    0.817
   493   8 o    1.861 --   494 h    0.849   495 h    0.841
   494   1 h    0.889 --   493 o    0.849
   495   1 h    0.885 --   493 o    0.841
   496   8 o    1.801 --   497 h    0.890   498 h    0.778
   497   1 h    0.904 --   496 o    0.890
   498   1 h    0.871 --   496 o    0.778
   499   8 o    1.870 --   500 h    0.845   501 h    0.816
   500   1 h    0.891 --   499 o    0.845
   501   1 h    0.883 --   499 o    0.816
   502   8 o    1.838 --   503 h    0.842   504 h    0.809
   503   1 h    0.892 --   502 o    0.842
   504   1 h    0.880 --   502 o    0.809
   505   8 o    1.829 --   506 h    0.860   507 h    0.818
   506   1 h    0.895 --   505 o    0.860
   507   1 h    0.881 --   505 o    0.818
   508   8 o    1.873 --   510 h    0.816   509 h    0.790
   509   1 h    0.872 --   508 o    0.790
   510   1 h    0.876 --   508 o    0.816
   511   8 o    1.864 --   513 h    0.846   512 h    0.842
   512   1 h    0.892 --   511 o    0.842
   513   1 h    0.894 --   511 o    0.846
   514   8 o    1.835 --   515 h    0.883   516 h    0.843
   515   1 h    0.898 --   514 o    0.883
   516   1 h    0.885 --   514 o    0.843
   517   8 o    1.819 --   518 h    0.901   519 h    0.832
   518   1 h    0.905 --   517 o    0.901
   519   1 h    0.887 --   517 o    0.832
   520   8 o    1.814 --   522 h    0.863   521 h    0.809
   521   1 h    0.878 --   520 o    0.809
   522   1 h    0.893 --   520 o    0.863
   523   8 o    1.866 --   525 h    0.869   524 h    0.811
   524   1 h    0.887 --   523 o    0.811
   525   1 h    0.895 --   523 o    0.869
   526   8 o    1.849 --   528 h    0.861   527 h    0.822
   527   1 h    0.884 --   526 o    0.822
   528   1 h    0.893 --   526 o    0.861
   529   8 o    1.835 --   531 h    0.821   530 h    0.813
   530   1 h    0.870 --   529 o    0.813
   531   1 h    0.884 --   529 o    0.821
   532   8 o    1.857 --   533 h    0.836   534 h    0.832
   533   1 h    0.882 --   532 o    0.836
   534   1 h    0.887 --   532 o    0.832
   535   8 o    1.794 --   537 h    0.850   536 h    0.836
   536   1 h    0.885 --   535 o    0.836
   537   1 h    0.890 --   535 o    0.850
   538   8 o    1.809 --   539 h    0.868   540 h    0.828
   539   1 h    0.890 --   538 o    0.868
   540   1 h    0.886 --   538 o    0.828
   541   8 o    1.841 --   543 h    0.869   542 h    0.812
   542   1 h    0.884 --   541 o    0.812
   543   1 h    0.893 --   541 o    0.869
   544   8 o    1.820 --   546 h    0.893   545 h    0.810
   545   1 h    0.876 --   544 o    0.810
   546   1 h    0.900 --   544 o    0.893
   547   8 o    1.833 --   549 h    0.814   548 h    0.770
   548   1 h    0.869 --   547 o    0.770
   549   1 h    0.890 --   547 o    0.814
   550   8 o    1.836 --   551 h    0.853   552 h    0.841
   551   1 h    0.885 --   550 o    0.853
   552   1 h    0.885 --   550 o    0.841
   553   8 o    1.819 --   554 h    0.899   555 h    0.837
   554   1 h    0.903 --   553 o    0.899
   555   1 h    0.883 --   553 o    0.837
   556   8 o    1.872 --   558 h    0.826   557 h    0.795
   557   1 h    0.876 --   556 o    0.795
   558   1 h    0.881 --   556 o    0.826
   559   8 o    1.832 --   560 h    0.843   561 h    0.801
   560   1 h    0.892 --   559 o    0.843
   561   1 h    0.871 --   559 o    0.801
   562   8 o    1.872 --   563 h    0.845   564 h    0.804
   563   1 h    0.889 --   562 o    0.845
   564   1 h    0.876 --   562 o    0.804
   565   8 o    1.840 --   566 h    0.838   567 h    0.806
   566   1 h    0.899 --   565 o    0.838
   567   1 h    0.880 --   565 o    0.806
   568   8 o    1.834 --   569 h    0.853   570 h    0.840
   569   1 h    0.887 --   568 o    0.853
   570   1 h    0.879 --   568 o    0.840
   571   8 o    1.870 --   572 h    0.870   573 h    0.783
   572   1 h    0.888 --   571 o    0.870
   573   1 h    0.868 --   571 o    0.783
   574   8 o    1.846 --   576 h    0.823   575 h    0.781
   575   1 h    0.870 --   574 o    0.781
   576   1 h    0.892 --   574 o    0.823
   577   8 o    1.867 --   579 h    0.898   578 h    0.808
   578   1 h    0.871 --   577 o    0.808
   579   1 h    0.905 --   577 o    0.898
   580   8 o    1.796 --   582 h    0.865   581 h    0.847
   581   1 h    0.890 --   580 o    0.847
   582   1 h    0.893 --   580 o    0.865
   583   8 o    1.860 --   585 h    0.838   584 h    0.836
   584   1 h    0.884 --   583 o    0.836
   585   1 h    0.881 --   583 o    0.838
   586   8 o    1.820 --   588 h    0.861   587 h    0.832
   587   1 h    0.880 --   586 o    0.832
   588   1 h    0.899 --   586 o    0.861
   589   8 o    1.813 --   590 h    0.837   591 h    0.825
   590   1 h    0.897 --   589 o    0.837
   591   1 h    0.881 --   589 o    0.825
   592   8 o    1.842 --   593 h    0.886   594 h    0.795
   593   1 h    0.899 --   592 o    0.886
   594   1 h    0.866 --   592 o    0.795
   595   8 o    1.817 --   596 h    0.862   597 h    0.772
   596   1 h    0.899 --   595 o    0.862
   597   1 h    0.866 --   595 o    0.772
   598   8 o    1.872 --   600 h    0.847   599 h    0.801
   599   1 h    0.866 --   598 o    0.801
   600   1 h    0.892 --   598 o    0.847
   601   8 o    1.865 --   603 h    0.830   602 h    0.799
   602   1 h    0.871 --   601 o    0.799
   603   1 h    0.887 --   601 o    0.830
   604   8 o    1.834 --   605 h    0.831   606 h    0.781
   605   1 h    0.891 --   604 o    0.831
   606   1 h    0.872 --   604 o    0.781
   607   8 o    1.853 --   609 h    0.842   608 h    0.836
   608   1 h    0.885 --   607 o    0.836
   609   1 h    0.885 --   607 o    0.842
   610   8 o    1.804 --   612 h    0.830   611 h    0.819
   611   1 h    0.885 --   610 o    0.819
   612   1 h    0.876 --   610 o    0.830
   613   8 o    1.830 --   614 h    0.844   615 h    0.839
   614   1 h    0.884 --   613 o    0.844
   615   1 h    0.880 --   613 o    0.839
   616   8 o    1.805 --   617 h    0.846   618 h    0.831
   617   1 h    0.882 --   616 o    0.846
   618   1 h    0.895 --   616 o    0.831
   619   8 o    1.857 --   621 h    0.853   620 h    0.804
   620   1 h    0.881 --   619 o    0.804
   621   1 h    0.893 --   619 o    0.853
   622   8 o    1.851 --   624 h    0.883   623 h    0.809
   623   1 h    0.875 --   622 o    0.809
   624   1 h    0.897 --   622 o    0.883
   625   8 o    1.813 --   626 h    0.885   627 h    0.850
   626   1 h    0.902 --   625 o    0.885
   627   1 h    0.893 --   625 o    0.850
   628   8 o    1.844 --   630 h    0.819   629 h    0.792
   629   1 h    0.880 --   628 o    0.792
   630   1 h    0.875 --   628 o    0.819
   631   8 o    1.808 --   633 h    0.856   632 h    0.832
   632   1 h    0.882 --   631 o    0.832
   633   1 h    0.891 --   631 o    0.856
   634   8 o    1.820 --   636 h    0.886   635 h    0.766
   635   1 h    0.867 --   634 o    0.766
   636   1 h    0.904 --   634 o    0.886
   637   8 o    1.831 --   639 h    0.833   638 h    0.828
   638   1 h    0.884 --   637 o    0.828
   639   1 h    0.885 --   637 o    0.833
   640   8 o    1.881 --   641 h    0.815   642 h    0.747
   641   1 h    0.880 --   640 o    0.815
   642   1 h    0.866 --   640 o    0.747    79 o    0.110
   643   8 o    1.878 --   644 h    0.862   645 h    0.811
   644   1 h    0.890 --   643 o    0.862
   645   1 h    0.861 --   643 o    0.811
   646   8 o    1.808 --   647 h    0.875   648 h    0.840
   647   1 h    0.894 --   646 o    0.875
   648   1 h    0.888 --   646 o    0.840
   649   8 o    1.835 --   651 h    0.897   650 h    0.806
   650   1 h    0.880 --   649 o    0.806
   651   1 h    0.901 --   649 o    0.897
   652   8 o    1.822 --   654 h    0.886   653 h    0.808
   653   1 h    0.869 --   652 o    0.808
   654   1 h    0.906 --   652 o    0.886
   655   8 o    1.881 --   657 h    0.807   656 h    0.805
   656   1 h    0.878 --   655 o    0.805
   657   1 h    0.886 --   655 o    0.807
   658   8 o    1.849 --   659 h    0.903   660 h    0.805
   659   1 h    0.907 --   658 o    0.903
   660   1 h    0.878 --   658 o    0.805
   661   8 o    1.861 --   663 h    0.824   662 h    0.820
   662   1 h    0.878 --   661 o    0.820
   663   1 h    0.877 --   661 o    0.824
   664   8 o    1.815 --   666 h    0.837   665 h    0.833
   665   1 h    0.892 --   664 o    0.833
   666   1 h    0.883 --   664 o    0.837
   667   8 o    1.844 --   668 h    0.868   669 h    0.804
   668   1 h    0.891 --   667 o    0.868
   669   1 h    0.881 --   667 o    0.804
   670   8 o    1.834 --   671 h    0.837   672 h    0.827
   671   1 h    0.880 --   670 o    0.837
   672   1 h    0.894 --   670 o    0.827
   673   8 o    1.849 --   675 h    0.836   674 h    0.805
   674   1 h    0.878 --   673 o    0.805
   675   1 h    0.893 --   673 o    0.836
   676   8 o    1.830 --   678 h    0.855   677 h    0.841
   677   1 h    0.893 --   676 o    0.841
   678   1 h    0.889 --   676 o    0.855
   679   8 o    1.827 --   680 h    0.852   681 h    0.843
   680   1 h    0.893 --   679 o    0.852
   681   1 h    0.890 --   679 o    0.843
   682   8 o    1.828 --   683 h    0.837   684 h    0.820
   683   1 h    0.898 --   682 o    0.837
   684   1 h    0.876 --   682 o    0.820
   685   8 o    1.874 --   687 h    0.840   686 h    0.790
   686   1 h    0.868 --   685 o    0.790
   687   1 h    0.892 --   685 o    0.840
   688   8 o    1.850 --   690 h    0.862   689 h    0.834
   689   1 h    0.877 --   688 o    0.834
   690   1 h    0.892 --   688 o    0.862
   691   8 o    1.827 --   693 h    0.843   692 h    0.835
   692   1 h    0.888 --   691 o    0.835
   693   1 h    0.885 --   691 o    0.843
   694   8 o    1.807 --   695 h    0.846   696 h    0.839
   695   1 h    0.888 --   694 o    0.846
   696   1 h    0.891 --   694 o    0.839
   697   8 o    1.863 --   698 h    0.847   699 h    0.809
   698   1 h    0.892 --   697 o    0.847
   699   1 h    0.886 --   697 o    0.809
   700   8 o    1.838 --   702 h    0.850   701 h    0.809
   701   1 h    0.872 --   700 o    0.809
   702   1 h    0.895 --   700 o    0.850
   703   8 o    1.859 --   704 h    0.821   705 h    0.798
   704   1 h    0.890 --   703 o    0.821
   705   1 h    0.873 --   703 o    0.798
   706   8 o    1.855 --   708 h    0.862   707 h    0.839
   707   1 h    0.894 --   706 o    0.839
   708   1 h    0.889 --   706 o    0.862
   709   8 o    1.813 --   711 h    0.875   710 h    0.806
   710   1 h    0.874 --   709 o    0.806
   711   1 h    0.898 --   709 o    0.875
   712   8 o    1.844 --   714 h    0.884   713 h    0.779
   713   1 h    0.866 --   712 o    0.779
   714   1 h    0.901 --   712 o    0.884
   715   8 o    1.845 --   717 h    0.831   716 h    0.779
   716   1 h    0.871 --   715 o    0.779
   717   1 h    0.890 --   715 o    0.831
   718   8 o    1.868 --   719 h    0.892   720 h    0.750
   719   1 h    0.905 --   718 o    0.892
   720   1 h    0.856 --   718 o    0.750
   721   8 o    1.805 --   723 h    0.846   722 h    0.816
   722   1 h    0.875 --   721 o    0.816
   723   1 h    0.885 --   721 o    0.846
   724   8 o    1.855 --   726 h    0.828   725 h    0.814
   725   1 h    0.879 --   724 o    0.814
   726   1 h    0.896 --   724 o    0.828
   727   8 o    1.807 --   728 h    0.880   729 h    0.851
   728   1 h    0.895 --   727 o    0.880
   729   1 h    0.883 --   727 o    0.851
   730   8 o    1.850 --   732 h    0.897   731 h    0.775
   731   1 h    0.876 --   730 o    0.775
   732   1 h    0.902 --   730 o    0.897
   733   8 o    1.843 --   735 h    0.865   734 h    0.796
   734   1 h    0.871 --   733 o    0.796
   735   1 h    0.891 --   733 o    0.865
   736   8 o    1.855 --   738 h    0.854   737 h    0.816
   737   1 h    0.876 --   736 o    0.816
   738   1 h    0.886 --   736 o    0.854
   739   8 o    1.871 --   740 h    0.841   741 h    0.835
   740   1 h    0.888 --   739 o    0.841
   741   1 h    0.887 --   739 o    0.835
   742   8 o    1.827 --   744 h    0.843   743 h    0.814
   743   1 h    0.883 --   742 o    0.814
   744   1 h    0.889 --   742 o    0.843
   745   8 o    1.840 --   746 h    0.837   747 h    0.828
   746   1 h    0.890 --   745 o    0.837
   747   1 h    0.878 --   745 o    0.828
   748   8 o    1.859 --   750 h    0.846   749 h    0.821
   749   1 h    0.887 --   748 o    0.821
   750   1 h    0.885 --   748 o    0.846
   751   8 o    1.802 --   752 h    0.880   753 h    0.831
   752   1 h    0.899 --   751 o    0.880
   753   1 h    0.885 --   751 o    0.831
   754   8 o    1.819 --   755 h    0.863   756 h    0.852
   755   1 h    0.892 --   754 o    0.863
   756   1 h    0.893 --   754 o    0.852
 ---------------------------------------------------------------------------

Topologies differ in total number of bonds
Writing topology from bond orders to xtbtopo.mol

molecular dipole:
                 x           y           z       tot (Debye)
 q only:        0.666       0.020      -3.297
   full:        0.233       0.006      -4.287      10.912
molecular quadrupole (traceless):
                xx          xy          yy          xz          yz          zz
 q only:      262.611      -0.972    -120.671      55.900       1.015    -141.940
  q+dip:      353.084      13.559    -162.443      65.620      -1.066    -190.641
   full:      355.764      15.363    -162.700      65.070      -0.856    -193.064


           -------------------------------------------------
          | TOTAL ENERGY            -1283.559104000115 Eh   |
          | GRADIENT NORM               0.129019395814 Eh/α |
          | HOMO-LUMO GAP               7.024465372447 eV   |
           -------------------------------------------------

------------------------------------------------------------------------
 * finished run on 2022/11/24 at 12:21:39.777     
------------------------------------------------------------------------
 total:
 * wall-time:     0 d,  0 h,  0 min, 23.093 sec
 *  cpu-time:     0 d,  0 h,  0 min, 37.631 sec
 * ratio c/w:     1.630 speedup
 SCF:
 * wall-time:     0 d,  0 h,  0 min, 22.067 sec
 *  cpu-time:     0 d,  0 h,  0 min, 35.914 sec
 * ratio c/w:     1.627 speedup

