756
 energy: -1283.307188946821 gnorm: 0.021501351775 xtb: 6.5.1 (579679a)
o            4.99774337832417       -7.62480105299336       -0.06528248074349
h            4.03142834347605       -7.54933726909471       -0.14825321274546
h            5.20527077207006       -7.33995371232059        0.82911129737739
o           -1.26880310038397        3.02604689045222        4.30725609678538
h           -0.47234458927707        2.57199809367732        4.63127449772376
h           -0.95981136315153        3.82325114698996        3.85794487197097
o           -0.41884039974098       -3.01301148556149       -2.20348469966692
h           -0.21100281162387       -3.46495013713225       -3.03815528452895
h           -0.71952344874478       -3.74384975325671       -1.62782250067525
o           -5.26802491974837        2.87086065855001       -1.63022411425241
h           -4.55977756805723        2.80521642214040       -0.96727357495898
h           -4.81527481835321        2.88643689320460       -2.49877215427100
o           -3.20343264089493        2.41491090495169       -0.04939876651689
h           -2.45163084024493        2.63573745866397        0.53630878074280
h           -3.33259836211129        1.45757627427056        0.05032915733072
o           -4.26829197690066       -3.05882157831152        3.08297860227030
h           -4.85695623958604       -2.64502883250182        2.41305944672321
h           -4.83300305190807       -3.45951156493647        3.76347357053576
o            0.16018726653832       -4.94198976269684       -4.02426664374048
h           -0.53439382972061       -5.58574374147107       -3.82715376982770
h            0.92619954966995       -5.14520208234350       -3.45391156135600
o            0.15557551266592       -5.57006338122577        1.29407954683919
h           -0.07780344888153       -5.28633575544947        2.19058155866446
h            0.51480876193761       -6.47299060405480        1.41011671107326
o           -2.47511022996650       -4.19346046964328        1.48518873680847
h           -1.62782486147502       -3.74581650867411        1.66769627037621
h           -3.11534626276729       -3.87936232248440        2.15655238662139
o            0.54819001844041        2.11125311922401       -4.97203970980884
h           -0.42106837953453        2.03931336559844       -4.92375704118810
h            0.80682084524562        2.89002700707169       -4.42641142193030
o           -2.26124135830862       -1.25086882034812       -3.35375931814826
h           -2.39255768162549       -2.15758839672544       -3.03129533466526
h           -1.36575229288974       -0.95815370640530       -3.10653983788424
o           -1.29764059290895        4.20279522007678       -4.16358566381482
h           -0.82926933986308        5.03906010879096       -4.33614414410544
h           -1.67300498938332        3.96901352566657       -5.02563781073595
o           -4.07399459992665       -4.69029199134835       -0.65727878371977
h           -5.02068281459603       -4.45496367618134       -0.50183872624107
h           -3.61371756632968       -4.41000523185277        0.15193169440448
o           -1.88013192566707        1.77512447110915       -2.54157876299968
h           -2.76008620302723        1.40116492860405       -2.34103758830532
h           -1.69892774717863        1.51256309266884       -3.45070951075344
o            0.01944727879569        2.91936635644971       -1.06309443956939
h           -0.63016464263528        2.44288386395633       -1.60832527948432
h           -0.03256356597883        3.83542280206068       -1.35356736182009
o            0.24145775019840       -0.20317649364990       -3.06943802162656
h            0.15731441290505       -0.23507024739113       -4.04105198268284
h            0.88938463498544       -0.88634208156773       -2.82562933464631
o           -2.19332059221042       -1.39210312284453        3.01524025845463
h           -2.49002907638223       -0.48158700581958        2.83371210609662
h           -2.98699428137543       -1.93195671585865        3.14538200208078
o           -4.92776449781652        0.14840914503118        7.53408887910921
h           -5.65094567132201        0.65601916673666        7.12065484276655
h           -5.27872489305538       -0.73956558168539        7.65272899030206
o           -0.29691688435312       -5.31658262624324        3.99663610460376
h           -0.57285058185266       -5.53315210055063        4.90627214231069
h            0.16512101078069       -4.46661955370033        4.10111880001004
o           -3.73055919298992        1.56691439342605        5.36162227586447
h           -4.09653734623523        0.86349778548717        5.91486880833594
h           -2.96754919727924        1.89015825623643        5.88591454682199
o           -0.24496458887289       -2.77033067287700        2.02474477455007
h            0.53788967789613       -3.10920350463702        2.49452801396489
h           -0.78677163960552       -2.20821102822884        2.61914772890337
o            1.65981372370718        2.51419269894059        1.65598368996277
h            2.22779257341197        2.77150727906773        2.40395277116807
h            1.62259916475985        3.28194545281089        1.06063448559752
o            1.39676553071211       -3.61529083398380       -0.18474796935938
h            1.86347528001249       -3.03883603216546        0.44669766765676
h            0.96302179935387       -4.29164410673369        0.36075618023005
o            0.19010887016242        5.68527719433677       -1.98753559120234
h            0.76642308139329        6.43885100002252       -2.21675222123650
h           -0.69591146513527        5.97960513162965       -2.27655250368838
o           -2.56694997404574       -0.87436184117943        8.70313010724893
h           -3.20637013862261       -0.25175105384308        8.33810412981500
h           -2.90651666484168       -1.76657632690214        8.51234537514950
o           -5.65553849569583       -0.19012125196087        3.89467983356279
h           -5.59487453742409        0.28669922390093        3.04776265133754
h           -5.95599162972076        0.46002442132010        4.55369888452138
o           -6.27193825510804        0.48304261338470       -0.80555532236279
h           -5.97861712012170        1.29016190490233       -1.27022147025253
h           -6.03319320685793        0.64316497372926        0.12471213522983
o            1.84104650859329        4.75113805830321        0.01723316990103
h            1.11517382443727        5.22150030926459       -0.41021136144197
h            2.56079932131646        4.75500950964406       -0.64060680506661
o           -2.99584679075393       -3.83335227015290       -2.97251363961868
h           -2.60575858244540       -4.71954614453422       -3.12059078938089
h           -3.52124604800895       -3.92116314720596       -2.15292790065765
o            2.10828306949994       -2.06271875982713       -2.34340487298574
h            2.07133711532733       -2.32794846471977       -3.29296860208824
h            1.46769338963183       -2.63204287380692       -1.88082467440243
o           -4.99131437572072       -6.30288136983729       -3.94167460430283
h           -5.36666161249687       -5.46408199425827       -3.58844119737511
h           -5.62467980695875       -6.62987962599947       -4.57833683053556
o           -5.01231864177169       -2.13483888893598       -1.61264187868392
h           -5.28143515700383       -2.13177462322014       -0.67782683261326
h           -5.49993384363226       -1.40759378810740       -2.03504219089495
o            1.10273527549160        1.76223801690463        4.95830430938291
h            1.20671298064476        0.89362750539165        4.55338182725038
h            1.77415424399893        2.34536969880342        4.57663615299339
o            2.63041965215748       -1.81567813084669        1.50788573180271
h            3.55878170872659       -2.09123679578105        1.69293407903464
h            2.66627640033077       -1.01353918676692        0.96570600560467
o            1.61967850093080       -0.88467302182256        3.78330345369596
h            1.99988293555664       -1.33417197421949        2.99589898884904
h            1.11734384003613       -1.56740099428107        4.27972373994004
o            2.94531959034166        3.51510478497893        3.82131454306979
h            2.48661466669929        4.33408299139646        3.52394756505869
h            3.88859507002738        3.76603708669818        3.81714997755605
o           -3.97668312245479        3.08904300150768       -3.93751897228839
h           -3.03600184562847        2.92857360789547       -3.79440853576610
h           -4.31616000655928        2.34108497770098       -4.47202384719870
o           -5.93793210989598        5.36319187201884       -2.27735139421401
h           -6.16270440844231        5.15506244502846       -3.19892349471338
h           -5.69651496199385        4.49368578228902       -1.89078114017906
o            1.83112498611354       -3.69258924901224        7.02897024227302
h            2.36265659699961       -2.87616388175809        7.13728516172365
h            1.20083164019061       -3.72457333554496        7.75748644458330
o           -2.29560743662012       -3.54510516949570        5.37644385268933
h           -2.81244519916953       -2.75400732359104        5.12200271559568
h           -2.61869586154499       -4.29027401746082        4.84889896553314
o            0.31873616922874       -2.86253116782280        4.94957820989254
h           -0.62504865200995       -2.94555989381954        5.18113341650952
h            0.83490625083987       -3.14945778980243        5.72794802757786
o           -0.23678845303145        0.63832262547848        2.60954748349393
h            0.48076531109580        0.05001186216018        2.88988661278464
h            0.15860280438532        1.47435315011407        2.32760077055212
o           -0.25064992554524       -2.81443858408490       -8.28824654824089
h            0.05403071078700       -3.61206186458368       -7.82985522826907
h            0.42453412801293       -2.13623619630640       -8.14196873071190
o            3.70672794710076       -2.84865493970997        4.61297584942151
h            3.35489945854211       -2.36463950401571        5.38457623213457
h            4.57274193615418       -2.44070753665820        4.45743222795253
o           -7.73540137553215        1.70267237993086        3.17166967834180
h           -6.87171018756288        2.14101703136249        3.30292618686407
h           -8.30459082682422        2.08127151940600        3.86790558674692
o           -9.56754159525177        5.15557021738155        3.40332972614895
h           -8.92199630294333        5.78812290669471        3.72576149993489
h           -9.41870464936021        5.13945798827633        2.43347486092920
o           -9.31746173875303       -3.54478438512536        1.06808608500631
h           -8.80388748950094       -2.98323197792448        0.47100470980141
h          -10.21122151093284       -3.55739477535521        0.71556366381218
o            2.55075513554863       -6.55809387025921        3.72236253554988
h            2.22041263139640       -5.67014369984071        3.46246060086311
h            2.33884434340914       -6.62502105864975        4.67381936887653
o            6.51707754946480       -3.45509263764685        6.36353202061031
h            6.15886815389805       -2.68470423302107        6.82237972723984
h            5.86235245380815       -4.17110339951731        6.44955907742874
o            2.05158041666048        1.64340725172954       -2.30709319925483
h            1.91888840827098        2.54687557510837       -2.65156914539530
h            1.28090876206105        1.12882817527088       -2.62166504236961
o            5.78486775539694       -4.91795621792637       -2.19250620488574
h            5.18042044157604       -4.37406833918657       -2.74140404206061
h            5.59575926414201       -5.85950010847261       -2.40388222717481
o           -9.23703345251525        5.66215946458121       -2.49035114355274
h           -8.71126362999477        6.30791251877053       -1.99707932541707
h          -10.10762080954479        5.63382493531033       -2.06538129387979
o            6.35165479931217        2.73185745104619        1.09809913682164
h            5.49965670645816        2.44891975779639        1.45582867073268
h            6.83376389138337        1.92354323483944        0.84919754441418
o           -0.95275678700617        0.28728477314671       -8.26478138721767
h           -1.01469204505978       -0.38361745240920       -8.94413955008895
h           -1.86073269326647        0.57496435555667       -8.05077358847264
o           -8.17613113014264       -2.15368736828701       -1.29494554065897
h           -9.05855734187369       -2.08449127930704       -1.66584596514761
h           -7.61134548624180       -1.62797463586154       -1.88926502051936
o           -2.97897130621968        1.18419951323342        2.79751633025491
h           -3.20738475622831        1.34160280562995        3.73671358121871
h           -2.08075648415337        1.52253856464354        2.68723776398602
o            3.46222045658554       -4.95966822725673        0.87479883903867
h            4.16777248492605       -5.37400791831555        1.41360752704975
h            3.00164113711679       -5.69478315445499        0.42757242913086
o           -2.61886818492919       -6.80476333557426        1.13644882686339
h           -2.45214345109757       -5.84976315137641        1.31861130406317
h           -3.57328653288120       -6.89147591022891        1.23284748041991
o            2.50394999369096        0.32986483079616       -5.05127367555775
h            1.77007513377784        0.96765367982373       -4.92073968716801
h            2.07397682408248       -0.53522042734375       -5.15616759352579
o            1.69256075056931       -1.01241964067056       -7.60162994834305
h            2.28864873246576       -1.75867427573534       -7.43581390572686
h            2.22621257045858       -0.26496087541763       -7.89931587272482
o           -1.16445311186560       -0.17058459767378        5.20693246241613
h           -0.96486715928226        0.11159755914649        4.30212898466116
h           -2.05765454799700       -0.55006956386592        5.18211380801857
o            0.25758765570157       -5.15579187096063       -6.72879099892265
h           -0.63380946209683       -5.41820107161535       -6.98122600620224
h            0.21814924556054       -4.99452919532227       -5.76319392260795
o            1.99408703219461        0.42412285165131        0.08546957437043
h            1.79351853390276        1.12627128830771        0.74149369650665
h            2.00810608609393        0.87820239952302       -0.77592242441243
o           -1.16820144921762       -5.21882097121288       -0.95842546527994
h           -0.78462820870448       -5.33741497431056       -0.06456649500970
h           -2.12353393228450       -5.28328592853227       -0.86573436337956
o            5.15115198809148       -2.53184872960254        1.89151772471048
h            5.49115636144641       -2.97516362947316        2.68596400170394
h            5.37637789749541       -3.16331311951708        1.19213770289676
o           -2.84568116278601       -2.12538777931258       -8.17917822275992
h           -1.89929319668896       -2.31145460045028       -8.32487205864278
h           -2.89782262504832       -1.71633210256351       -7.29427869475827
o           -6.59430730729932       -4.10925868715484       -0.12370856072276
h           -6.70101686429955       -3.90965431997398        0.82135212929744
h           -7.09099564751821       -3.43375230152640       -0.60420269724394
o           -2.01901935158109        1.38220805156283       -5.24186568007499
h           -2.56629776540665        1.57511401776533       -6.01356194257964
h           -1.51711851774597        0.57754180251713       -5.48483523193332
o           -9.22749455900039        2.48176501704922        1.15139547677684
h           -8.56861594562879        2.14692528771432        1.79942482245462
h           -8.96908628957453        3.39967328428842        0.95450061074447
o            4.56168061768074       -5.17896926861067        5.76190171812753
h            4.09863546954069       -4.44069639980529        5.32132450190302
h            3.88899447589058       -5.75932742226655        6.12243933617832
o            1.75711473177994        0.64870342351499        7.37615110016256
h            0.98320796288096        0.10887506949893        7.61711705720645
h            1.49598862110657        1.16887059385585        6.59592992274875
o            4.00994594966877       -0.11779692177125       -2.40241195051154
h            3.41897940909702        0.65569897836591       -2.44843487684139
h            3.40937711548813       -0.87361157944863       -2.44594383037245
o            4.43256888785904        5.10320195324017        1.35117375804224
h            5.32290496375625        5.47771410469394        1.35783104672450
h            4.44717582000406        4.34443383283595        0.75306253083305
o           -4.13547262022303        0.40364603865082       -2.56677676616195
h           -4.75964181511465        0.60715388847019       -3.27418752313050
h           -3.54872598405970       -0.29866914789060       -2.91008513011088
o            5.03499881636768       -6.25511254126901        2.62611489055684
h            5.45372111891982       -5.51936887522891        3.11568279133601
h            4.24785716909603       -6.50486099869788        3.14617075050765
o           -3.39154962174177        1.32105601493625       -7.66064143626827
h           -4.06621936294836        0.61102126261123       -7.76336743233767
h           -3.62158104790058        2.02320642859289       -8.26822635149804
o            4.79585415345481       -1.19308875370861       -4.76939024761023
h            4.08702912311765       -0.56192367626620       -4.94442221667105
h            5.11897897127604       -1.53735848766843       -5.62394624872671
o           -9.68616021944634       -2.93557682804604        3.74099239862175
h           -9.51738427980479       -3.08214728234752        2.79207382045944
h           -8.89672817308743       -2.48444003620101        4.11472061964841
o           -9.99711752269684       -0.70768573824295        0.74614170407535
h           -9.57805487457631       -0.07384270924922        0.11685316915876
h          -10.70655392247740       -0.23065253500083        1.22204157762270
o           -7.87043919710392       -5.87262842265464       -1.89639698185778
h           -8.67411132134152       -5.34465625943845       -1.83875127380584
h           -7.16209784332184       -5.24902510741090       -2.13517716210460
o           -7.53636973109767        6.67980794306709       -0.63123892473551
h           -6.99580263544979        7.28552310007054       -0.11626578201332
h           -6.90246951840913        6.18432658783628       -1.20091949308200
o           -5.19739896480064        7.54072664239330        0.74845086216082
h           -4.45056408018980        7.79574596703369        1.34067437401643
h           -4.90870971118428        7.79904450362732       -0.15413961929933
o           -2.40360277360102        4.53113014961511       -1.61469926139317
h           -2.10951196268543        4.42761657421895       -2.53441610176446
h           -2.54557743802859        3.63639538242571       -1.26657757609068
o            0.20327301554089        3.66525593394820        7.30267387177959
h            1.05286995881778        3.29609986939778        7.56377020175551
h            0.39247810718708        4.15193108789609        6.47604868437115
o            1.90399188335330        5.62088287481100        2.57609943419700
h            2.08848838383642        5.35616100417090        1.65593802446718
h            2.28053197101913        6.52505343052483        2.67674824075895
o           -1.85753121956392        3.92681441268187       -6.87498953245856
h           -1.07852614703751        3.44008546603901       -7.22381459539586
h           -1.67682593152881        4.85466390139875       -7.03224295776890
o            0.38724073587276        2.51830852615897       -7.57275046862270
h           -0.03273302106326        1.70703137572643       -7.91018484171636
h            0.49872348223015        2.38052995474122       -6.60346109285038
o            3.86367257093961        2.69582117738951       -0.19808812072182
h            3.07938746900364        2.66842946013080       -0.75257244057874
h            3.66781269401097        2.21332286445428        0.61895632727517
o            4.02690063689597        4.07502064673139       -7.15844798566039
h            3.69999999762472        3.18087711208752       -7.35045068624689
h            4.88487170429583        3.97730949479710       -6.72413796125415
o            0.08075471440797        6.43164265409105       -4.97657935498770
h            0.43103840570951        7.06956294760666       -4.34333710883769
h            0.87167261212884        6.05879840138246       -5.39930090066853
o           -5.50502283936011       -1.76130312369128        1.09669920265153
h           -4.88748608845321       -1.03076275636886        0.92900596090961
h           -6.33631901563514       -1.36099774193077        1.40856905491722
o            0.37422842148041       -7.19372341238731       -2.04309169724818
h           -0.24392692506941       -7.91536298923599       -1.88859262818195
h           -0.11081222671939       -6.40155117498297       -1.73773467577826
o            8.35818302005240       -3.05098842103801        0.64778084660065
h            8.42553064020427       -2.38233686517364       -0.06441926602325
h            7.49523585491410       -3.51884112543219        0.52890411932986
o            2.00221878773992       -4.04101974178603        2.93292309819192
h            2.59974665620329       -3.55558566962319        3.52936964195571
h            2.52039798226510       -4.25868338999199        2.13125459596847
o            1.52989809516058        7.81381971175681       -2.93018303024634
h            2.45799993705382        7.64529815369190       -3.15941000857899
h            1.51241727328242        8.31120639001093       -2.10657672095821
o           -5.80543264488896       -2.44503025145722        6.72912697589134
h           -6.58407576444870       -2.06237331865896        6.28119714644898
h           -5.68374222647915       -3.28074632322196        6.23909168155523
o           -6.61687447840596       -1.60395394978984       -5.94646753550440
h           -6.60648604976954       -2.56846933770516       -6.04117236541776
h           -7.54786455823108       -1.34517941989799       -5.87889769687308
o           -4.40157481173504        7.59294477274900       -1.77117797797512
h           -3.48505811806660        7.45243014068541       -2.04895533230388
h           -4.89980826471019        6.83244466230593       -2.11775524222105
o           -3.79639468538170        5.73056314263533       -4.53319038802388
h           -4.13100829163695        5.79729728734391       -5.42721842977852
h           -3.95635192324108        4.80735951148724       -4.25950089901611
o            3.84527166884699        0.37549652556268        4.50384112594701
h            4.62028020964396       -0.23032699063068        4.52788541001602
h            3.04881000314011       -0.18581272096110        4.46031531098505
o           -6.09772057037125       -4.06566451389942       -3.00283057710638
h           -6.89025134174258       -3.64636712550080       -3.36962832917599
h           -5.64828304916876       -3.37585422789841       -2.45188564822145
o            2.84990448099441       -5.94463027297479       -6.20519009290049
h            2.81481486814995       -6.41697397885190       -5.35546417783567
h            1.93854442914779       -5.89886685132057       -6.53155575502144
o            2.29459021151487       -4.96221155992033       -2.38135203036518
h            2.94406846965798       -4.38534169424075       -2.82275602471305
h            2.06824374761450       -4.58419399209183       -1.51119177009610
o           -4.39109204610731        5.06360348621361        0.15850328419477
h           -4.68607826563950        5.97899420518642        0.35123322841362
h           -3.78873806539191        5.09095737297611       -0.59942220298749
o           -6.75353011212742       -0.81239146222861       -3.24877068628879
h           -6.90655601103014        0.14764201960220       -3.25542849137074
h           -6.55660616369720       -1.06065950909505       -4.16297580327154
o           -9.26207289159190        5.13600405019665        0.72208328520731
h           -8.55026692073135        5.71498202538062        0.37523761808681
h          -10.06908111132020        5.37982169557610        0.25555064649064
o            5.39760880122548        7.50302757519101        3.58615465898698
h            5.52845884988566        6.60879541845538        3.92308906532741
h            5.83666297789176        7.51083156966717        2.71933360370839
o           -7.20354298087622        1.87971518070560       -3.46983580087882
h           -7.64390760822091        2.33131696990741       -2.72195911286465
h           -6.64531660476689        2.58007722472816       -3.85679029007808
o            2.98198341094048        3.65626731408223        6.67732102499797
h            2.88907879835951        3.58950904047613        5.71271106879168
h            3.15136400992558        4.58362970594417        6.85323866797640
o            2.95497555234603        1.50481583028767       -7.47299803507741
h            2.11061270888346        1.94576047767797       -7.68834841199763
h            2.84284881724860        1.14715251207072       -6.56784064325506
o           -0.89098692173671       -5.83023328518831        6.58486082207619
h           -1.78900738162099       -6.12600171444747        6.73095046612207
h           -0.77425234756697       -5.02160697081012        7.13378847334806
o            5.89445352512989        1.77483274923643       -1.68017829341790
h            6.74268029413376        2.18886753542332       -1.41316954059011
h            5.22826034233740        2.09038937235967       -1.03646718623970
o           -7.80311465125019       -0.91724177310093        2.22627110485336
h           -8.61665194397232       -0.92403202757105        1.68732871875465
h           -7.72740814847390       -0.01441997366231        2.57770934964790
o            9.66085164889429        4.54678891346214        3.73808829269100
h           10.45106420398078        4.54251423315913        3.19703726058847
h            9.70552112055011        3.79155800483053        4.34547104514013
o          -12.10353415846966        0.34862789705536        1.99639611518032
h          -12.01244811502060        1.28590398629753        2.24057944522539
h          -11.97691993461643       -0.15488985843004        2.82061903221113
o           -5.43669954589878        2.96372910773402        3.88256202728724
h           -4.76588150243567        3.30509154366349        3.25247697764485
h           -4.91228071625326        2.49882757276611        4.56554857362196
o           -6.56811565812956        3.65267139041611        0.80828526040978
h           -6.86217515294742        4.37307502377883        1.40465395708024
h           -5.75930233716910        4.01968926616481        0.40908419984630
o           -6.78499736630794        1.24804172071056        5.94344027578488
h           -6.80364450077780        2.21271815711065        6.12526436241596
h           -7.69347309772210        0.94042444395002        6.02482022533492
o           -0.61761870309933       -3.69534658285660        8.19946743387759
h           -0.50066945004956       -2.75678999063336        7.90908834321797
h           -1.46605030928408       -3.71093751681002        8.65029028595152
o            1.87689697326717       -6.29583624669085        6.30252769827013
h            1.92182492099878       -5.35449449542555        6.55229022559763
h            0.95258253452233       -6.53315277877302        6.44075566624537
o           -4.75574632577569        4.08402942889575       -6.79984420283068
h           -3.81764970990970        3.85132355698570       -6.76585963858337
h           -5.23770757176097        3.30589818798837       -7.11481815080823
o            3.71194649921660        4.76336454006899       -2.00036792221162
h            4.57933532804291        4.73049248081888       -1.53327788334723
h            3.73849417685326        4.03839765522944       -2.64484869441855
o            6.85681931534421        0.26947753929860       -3.70941216065156
h            6.47469802729670        0.71187329105438       -2.93766061695264
h            6.12644459690652       -0.15118173717389       -4.19471495232683
o            2.97569249002389        8.02734194374693        2.55400414994707
h            3.83606748490076        7.94505223648142        3.01353009601368
h            3.20460466208633        7.98040149420173        1.61110751842599
o            5.36370577497088        4.64921019476018        4.21161981215853
h            5.81450140644743        4.03138638577966        4.83003094318405
h            5.98874956598120        4.74778036111506        3.46280621463089
o            6.66574335817210        1.09764834066345        3.43102201487968
h            5.82986474652235        1.15958664081714        2.94500077997165
h            7.35274037863439        1.49031625883283        2.87573702339778
o            6.23798424735790       -4.51829878500566        0.37346038235131
h            6.00512263606257       -4.72076084342159       -0.55510517699897
h            6.63195442800698       -5.31912269530746        0.76344455646967
o            7.90036335172731       -1.44137385937345        2.66757756581023
h            7.58315998995688       -0.70527951776647        2.09893105276759