      -----------------------------------------------------------      
     |                   =====================                   |     
     |                           x T B                           |     
     |                   =====================                   |     
     |                         S. Grimme                         |     
     |          Mulliken Center for Theoretical Chemistry        |     
     |                    University of Bonn                     |     
      -----------------------------------------------------------      

   * xtb version 6.5.1 (579679a) compiled by 'ehlert@majestix' on 2022-07-11

   xtb is free software: you can redistribute it and/or modify it under
   the terms of the GNU Lesser General Public License as published by
   the Free Software Foundation, either version 3 of the License, or
   (at your option) any later version.
   
   xtb is distributed in the hope that it will be useful,
   but WITHOUT ANY WARRANTY; without even the implied warranty of
   MERCHANTABILITY or FITNESS FOR A PARTICULAR PURPOSE.  See the
   GNU Lesser General Public License for more details.
   
   Cite this work as:
   * C. Bannwarth, E. Caldeweyher, S. Ehlert, A. Hansen, P. Pracht,
     J. Seibert, S. Spicher, S. Grimme, WIREs Comput. Mol. Sci., 2020, 11,
     e01493. DOI: 10.1002/wcms.1493
   
   for GFN2-xTB:
   * C. Bannwarth, S. Ehlert and S. Grimme., J. Chem. Theory Comput., 2019,
     15, 1652-1671. DOI: 10.1021/acs.jctc.8b01176
   for GFN1-xTB:
   * S. Grimme, C. Bannwarth, P. Shushkov, J. Chem. Theory Comput., 2017,
     13, 1989-2009. DOI: 10.1021/acs.jctc.7b00118
   for GFN0-xTB:
   * P. Pracht, E. Caldeweyher, S. Ehlert, S. Grimme, ChemRxiv, 2019, preprint.
     DOI: 10.26434/chemrxiv.8326202.v1
   for GFN-FF:
   * S. Spicher and S. Grimme, Angew. Chem. Int. Ed., 2020, 59, 15665-15673.
     DOI: 10.1002/anie.202004239
   
   for ALPB and GBSA implicit solvation:
   * S. Ehlert, M. Stahn, S. Spicher, S. Grimme, J. Chem. Theory Comput.,
     2021, 17, 4250-4261. DOI: 10.1021/acs.jctc.1c00471
   
   for DFT-D4:
   * E. Caldeweyher, C. Bannwarth and S. Grimme, J. Chem. Phys., 2017,
     147, 034112. DOI: 10.1063/1.4993215
   * E. Caldeweyher, S. Ehlert, A. Hansen, H. Neugebauer, S. Spicher,
     C. Bannwarth and S. Grimme, J. Chem. Phys., 2019, 150, 154122.
     DOI: 10.1063/1.5090222
   * E. Caldeweyher, J.-M. Mewes, S. Ehlert and S. Grimme, Phys. Chem. Chem. Phys.
     2020, 22, 8499-8512. DOI: 10.1039/D0CP00502A
   
   for sTDA-xTB:
   * S. Grimme and C. Bannwarth, J. Chem. Phys., 2016, 145, 054103.
     DOI: 10.1063/1.4959605
   
   in the mass-spec context:
   * V. Asgeirsson, C. Bauer and S. Grimme, Chem. Sci., 2017, 8, 4879.
     DOI: 10.1039/c7sc00601b
   * J. Koopman and S. Grimme, ACS Omega 2019, 4, 12, 15120-15133.
     DOI: 10.1021/acsomega.9b02011
   
   for metadynamics refer to:
   * S. Grimme, J. Chem. Theory Comput., 2019, 155, 2847-2862
     DOI: 10.1021/acs.jctc.9b00143
   
   for SPH calculations refer to:
   * S. Spicher and S. Grimme, J. Chem. Theory Comput., 2021, 17, 1701-1714
     DOI: 10.1021/acs.jctc.0c01306
   
   with help from (in alphabetical order)
   P. Atkinson, C. Bannwarth, F. Bohle, G. Brandenburg, E. Caldeweyher
   M. Checinski, S. Dohm, S. Ehlert, S. Ehrlich, I. Gerasimov, C. Hölzer
   A. Katbashev, J. Koopman, C. Lavigne, S. Lehtola, F. März, M. Müller,
   F. Musil, H. Neugebauer, J. Pisarek, C. Plett, P. Pracht, F. Pultar,
   J. Seibert, P. Shushkov, S. Spicher, M. Stahn, M. Steiner, T. Strunk,
   J. Stückrath, T. Rose, and J. Unsleber
   
 * started run on 2022/10/27 at 18:50:49.396     

           -------------------------------------------------
          |                Calculation Setup                |
           -------------------------------------------------

          program call               : xtb cluster.coord --gfn2 --opt 0.00 --input xcontrol
          hostname                   : cn0328
          coordinate file            : cluster.coord
          omp threads                :                    25

   ID    Z sym.   atoms
    1    1 h      1, 3, 5, 6, 8, 10-12, 14, 15, 17, 18, 20, 21, 23, 24, 26,
                  27, 29, 30, 32, 33, 35, 36, 38, 39, 41, 42, 44, 45, 47, 48,
                  50, 51, 53, 54, 56, 57, 59, 60, 62, 63, 65, 66, 68, 69, 71,
                  72, 74, 75, 77, 78, 80, 81, 83, 84, 86, 87, 89, 90, 92, 93,
                  95, 96, 98, 99, 101, 102, 104, 105, 107, 108, 110, 111,
                  113, 114, 116, 117, 119, 120, 122, 123, 125, 126, 128, 129,
                  131, 132, 134, 135, 137, 138, 140, 141, 143, 144, 146, 147,
                  149, 150, 152, 153, 155, 156, 158, 159, 161, 162, 164, 165,
                  167, 168, 170, 171, 173, 174, 176, 177, 179, 180, 182, 183,
                  185, 186, 188, 189, 191, 192, 194, 195, 197, 198, 200, 201,
                  203, 204, 206, 207, 209, 210, 212, 213, 215, 216, 218, 219,
                  221, 222, 224, 225, 227, 228, 230, 231, 233, 234, 236, 237,
                  239, 240, 242, 243, 245, 246, 248, 249
    2    6 c      2, 4
    3    8 o      7, 13, 16, 19, 22, 25, 28, 31, 34, 37, 40, 43, 46, 49, 52,
                  55, 58, 61, 64, 67, 70, 73, 76, 79, 82, 85, 88, 91, 94, 97,
                  100, 103, 106, 109, 112, 115, 118, 121, 124, 127, 130, 133,
                  136, 139, 142, 145, 148, 151, 154, 157, 160, 163, 166, 169,
                  172, 175, 178, 181, 184, 187, 190, 193, 196, 199, 202, 205,
                  208, 211, 214, 217, 220, 223, 226, 229, 232, 235, 238, 241,
                  244, 247
    4    7 n      9
ellipsoidal wallpotenial with radii   13.7958066 Å    8.4561863 Å    8.3089188 Å
ellipsoidal wallpotenial with radii    8.0254990 Å    3.0152750 Å    2.9111654 Å

molecular fragmentation (1/2 indicates fragments):
111111111111222222222222222222222222222222222222222222222222222222222222
222222222222222222222222222222222222222222222222222222222222222222222222
222222222222222222222222222222222222222222222222222222222222222222222222
222222222222222222222222222222222
# atoms in fragment 1/2:    12   237
 fragment masses (1/2) :       62.09     1423.21
CMA distance (Bohr)    :   0.440
constraining FC (au)   :  0.0500

           -------------------------------------------------
          |                 G F N 2 - x T B                 |
           -------------------------------------------------

        Reference                      10.1021/acs.jctc.8b01176
      * Hamiltonian:
        H0-scaling (s, p, d)           1.850000    2.230000    2.230000
        zeta-weighting                 0.500000
      * Dispersion:
        s8                             2.700000
        a1                             0.520000
        a2                             5.000000
        s9                             5.000000
      * Repulsion:
        kExp                           1.500000    1.000000
        rExp                           1.000000
      * Coulomb:
        alpha                          2.000000
        third order                    shell-resolved
        anisotropic                    true
        a3                             3.000000
        a5                             4.000000
        cn-shift                       1.200000
        cn-exp                         4.000000
        max-rad                        5.000000


          ...................................................
          :                      SETUP                      :
          :.................................................:
          :  # basis functions                 498          :
          :  # atomic orbitals                 498          :
          :  # shells                          332          :
          :  # electrons                       658          :
          :  max. iterations                   250          :
          :  Hamiltonian                  GFN2-xTB          :
          :  restarted?                      false          :
          :  GBSA solvation                  false          :
          :  PC potential                    false          :
          :  electronic temp.          300.0000000     K    :
          :  accuracy                    1.0000000          :
          :  -> integral cutoff          0.2500000E+02      :
          :  -> integral neglect         0.1000000E-07      :
          :  -> SCF convergence          0.1000000E-05 Eh   :
          :  -> wf. convergence          0.1000000E-03 e    :
          :  Broyden damping             0.4000000          :
          ...................................................

 iter      E             dE          RMSdq      gap      omega  full diag
   1   -419.5626016 -0.419563E+03  0.407E+00    8.80       0.0  T
   2   -419.6612625 -0.986609E-01  0.240E+00    8.51       1.0  T
   3   -419.6718384 -0.105759E-01  0.315E-01    8.27       1.0  T
   4   -419.6743556 -0.251721E-02  0.102E-01    8.29       1.0  T
   5   -419.6746783 -0.322773E-03  0.392E-02    8.31       1.0  T
   6   -419.6747109 -0.325117E-04  0.163E-02    8.32       1.0  T
   7   -419.6747137 -0.279504E-05  0.357E-03    8.32       1.8  T
   8   -419.6747141 -0.464968E-06  0.797E-04    8.32       7.9  T
   9   -419.6747141 -0.990343E-08  0.221E-04    8.32      28.6  T

   *** convergence criteria satisfied after 9 iterations ***

         #    Occupation            Energy/Eh            Energy/eV
      -------------------------------------------------------------
         1        2.0000           -0.7615932             -20.7240
       ...           ...                  ...                  ...
       323        2.0000           -0.4863175             -13.2334
       324        2.0000           -0.4854405             -13.2095
       325        2.0000           -0.4837710             -13.1641
       326        2.0000           -0.4828366             -13.1387
       327        2.0000           -0.4811165             -13.0918
       328        2.0000           -0.4792809             -13.0419
       329        2.0000           -0.4584909             -12.4762 (HOMO)
       330                         -0.1526030              -4.1525 (LUMO)
       331                         -0.1368187              -3.7230
       332                         -0.1202039              -3.2709
       333                         -0.1138205              -3.0972
       334                         -0.0996685              -2.7121
       ...                                ...                  ...
       498                          0.3273781               8.9084
      -------------------------------------------------------------
                  HL-Gap            0.3058879 Eh            8.3236 eV
             Fermi-level           -0.3055470 Eh           -8.3144 eV

 SCC (total)                   0 d,  0 h,  0 min,  0.545 sec
 SCC setup                      ...        0 min,  0.003 sec (  0.523%)
 Dispersion                     ...        0 min,  0.008 sec (  1.496%)
 classical contributions        ...        0 min,  0.000 sec (  0.079%)
 integral evaluation            ...        0 min,  0.027 sec (  4.916%)
 iterations                     ...        0 min,  0.391 sec ( 71.834%)
 molecular gradient             ...        0 min,  0.107 sec ( 19.634%)
 printout                       ...        0 min,  0.008 sec (  1.481%)

         :::::::::::::::::::::::::::::::::::::::::::::::::::::
         ::                     SUMMARY                     ::
         :::::::::::::::::::::::::::::::::::::::::::::::::::::
         :: total energy            -417.071039218811 Eh    ::
         :: gradient norm              0.038925038590 Eh/a0 ::
         :: HOMO-LUMO gap              8.323634399406 eV    ::
         ::.................................................::
         :: SCC energy              -419.674714126425 Eh    ::
         :: -> isotropic ES            2.360651584317 Eh    ::
         :: -> anisotropic ES         -0.495830881888 Eh    ::
         :: -> anisotropic XC         -0.039900634235 Eh    ::
         :: -> dispersion             -0.225171797039 Eh    ::
         :: repulsion energy           2.564872740829 Eh    ::
         :: add. restraining           0.005846867307 Eh    ::
         :: total charge               1.000000000000 e     ::
         :::::::::::::::::::::::::::::::::::::::::::::::::::::

      ----------------------------------------------------------- 
     |                   =====================                   |
     |                        A N C O P T                        |
     |                   =====================                   |
     |               Approximate Normal Coordinate               |
     |                Rational Function Optimizer                |
      ----------------------------------------------------------- 

          ...................................................
          :                      SETUP                      :
          :.................................................:
          :   optimization level            normal          :
          :   max. optcycles                   747          :
          :   ANC micro-cycles                  20          :
          :   degrees of freedom               708          :
          :.................................................:
          :   RF solver                   davidson          :
          :   write xtbopt.log                true          :
          :   linear?                        false          :
          :   energy convergence         0.5000000E-05 Eh   :
          :   grad. convergence          0.1000000E-02 Eh/α :
          :   maximium RF displ.         1.0000000          :
          :   Hlow (freq-cutoff)         0.1000000E-01      :
          :   Hmax (freq-cutoff)         5.0000000          :
          :   S6 in model hess.         20.0000000          :
          ...................................................

generating ANC from model Hessian ...
Using Lindh-Hessian (1995)
 Shifting diagonal of input Hessian by   1.006520823383176E-002
 Lowest  eigenvalues of input Hessian
    0.010000    0.010029    0.010037    0.010049   -0.000000   -0.000000
   -0.000000   -0.000000   -0.000000   -0.000000   -0.000000   -0.000000
   -0.000000   -0.000000   -0.000000   -0.000000   -0.000000   -0.000000
 Highest eigenvalues
    1.432136    1.433832    1.439321    1.442145    1.447213    1.457514
 

........................................................................
.............................. CYCLE    1 ..............................
........................................................................
   1   -419.6747141 -0.419675E+03  0.697E-05    8.32       0.0  T
   2   -419.6747141 -0.248008E-09  0.326E-05    8.32     194.3  T
   3   -419.6747141 -0.218847E-10  0.130E-05    8.32     487.7  T
     SCC iter.                  ...        0 min,  0.106 sec
     gradient                   ...        0 min,  0.106 sec
 * total energy  :  -417.0710392 Eh     change       -0.1498279E-08 Eh
   gradient norm :     0.0135022 Eh/α   predicted     0.0000000E+00 (-100.00%)
   displ. norm   :     0.3268282 α      lambda       -0.2645474E-02
   maximum displ.:     0.0930501 α      in ANC's #56, #31, #16, ...

........................................................................
.............................. CYCLE    2 ..............................
........................................................................
   1   -419.6733438 -0.419673E+03  0.425E-02    8.34       0.0  T
   2   -419.6733534 -0.962669E-05  0.263E-02    8.34       1.0  T
   3   -419.6733572 -0.372645E-05  0.253E-03    8.34       2.5  T
   4   -419.6733574 -0.249409E-06  0.738E-04    8.34       8.6  T
   5   -419.6733574 -0.377730E-08  0.272E-04    8.34      23.3  T
     SCC iter.                  ...        0 min,  0.227 sec
     gradient                   ...        0 min,  0.105 sec
 * total energy  :  -417.0725392 Eh     change       -0.1499977E-02 Eh
   gradient norm :     0.0115566 Eh/α   predicted    -0.1471828E-02 (  -1.88%)
   displ. norm   :     0.3632593 α      lambda       -0.1453674E-02
   maximum displ.:     0.1391453 α      in ANC's #56, #31, #71, ...

........................................................................
.............................. CYCLE    3 ..............................
........................................................................
   1   -419.6742870 -0.419674E+03  0.217E-02    8.33       0.0  T
   2   -419.6742920 -0.508149E-05  0.132E-02    8.33       1.0  T
   3   -419.6742931 -0.103569E-05  0.209E-03    8.33       3.0  T
   4   -419.6742932 -0.164881E-06  0.396E-04    8.33      16.0  T
   5   -419.6742932 -0.117734E-08  0.114E-04    8.33      55.8  T
     SCC iter.                  ...        0 min,  0.238 sec
     gradient                   ...        0 min,  0.107 sec
 * total energy  :  -417.0736238 Eh     change       -0.1084593E-02 Eh
   gradient norm :     0.0094736 Eh/α   predicted    -0.8227502E-03 ( -24.14%)
   displ. norm   :     0.5225152 α      lambda       -0.1365618E-02
   maximum displ.:     0.1825046 α      in ANC's #56, #71, #46, ...

........................................................................
.............................. CYCLE    4 ..............................
........................................................................
   1   -419.6774705 -0.419677E+03  0.176E-02    8.34       0.0  T
   2   -419.6774744 -0.388235E-05  0.106E-02    8.34       1.0  T
   3   -419.6774752 -0.780078E-06  0.191E-03    8.34       3.3  T
   4   -419.6774753 -0.111107E-06  0.355E-04    8.34      17.8  T
   5   -419.6774753 -0.122236E-08  0.609E-05    8.34     104.1  T
     SCC iter.                  ...        0 min,  0.193 sec
     gradient                   ...        0 min,  0.109 sec
 * total energy  :  -417.0745887 Eh     change       -0.9649069E-03 Eh
   gradient norm :     0.0082420 Eh/α   predicted    -0.8692620E-03 (  -9.91%)
   displ. norm   :     0.4930485 α      lambda       -0.8235017E-03
   maximum displ.:     0.1709443 α      in ANC's #56, #31, #16, ...

........................................................................
.............................. CYCLE    5 ..............................
........................................................................
   1   -419.6762601 -0.419676E+03  0.304E-02    8.34       0.0  T
   2   -419.6762658 -0.574577E-05  0.187E-02    8.34       1.0  T
   3   -419.6762678 -0.197604E-05  0.229E-03    8.34       2.8  T
   4   -419.6762680 -0.170453E-06  0.541E-04    8.34      11.7  T
   5   -419.6762680 -0.116250E-08  0.112E-04    8.34      56.7  T
     SCC iter.                  ...        0 min,  0.193 sec
     gradient                   ...        0 min,  0.107 sec
 * total energy  :  -417.0749479 Eh     change       -0.3592107E-03 Eh
   gradient norm :     0.0163933 Eh/α   predicted    -0.5118491E-03 (  42.49%)
   displ. norm   :     0.2896206 α      lambda       -0.6755854E-03
   maximum displ.:     0.1235584 α      in ANC's #71, #46, #62, ...

........................................................................
.............................. CYCLE    6 ..............................
........................................................................
   1   -419.6795908 -0.419680E+03  0.269E-02    8.33       0.0  T
   2   -419.6795958 -0.504353E-05  0.164E-02    8.33       1.0  T
   3   -419.6795974 -0.159302E-05  0.235E-03    8.33       2.7  T
   4   -419.6795976 -0.154077E-06  0.507E-04    8.33      12.5  T
   5   -419.6795976 -0.784098E-09  0.112E-04    8.33      56.7  T
     SCC iter.                  ...        0 min,  0.197 sec
     gradient                   ...        0 min,  0.112 sec
 * total energy  :  -417.0751404 Eh     change       -0.1924945E-03 Eh
   gradient norm :     0.0066740 Eh/α   predicted    -0.3661323E-03 (  90.20%)
   displ. norm   :     0.1240865 α      lambda       -0.2828876E-03
   maximum displ.:     0.0414117 α      in ANC's #50, #56, #11, ...

........................................................................
.............................. CYCLE    7 ..............................
........................................................................
   1   -419.6781881 -0.419678E+03  0.112E-02    8.34       0.0  T
   2   -419.6781888 -0.637394E-06  0.691E-03    8.34       1.0  T
   3   -419.6781890 -0.217540E-06  0.732E-04    8.34       8.7  T
   4   -419.6781890 -0.186145E-07  0.212E-04    8.34      29.9  T
     SCC iter.                  ...        0 min,  0.251 sec
     gradient                   ...        0 min,  0.204 sec
 * total energy  :  -417.0753381 Eh     change       -0.1976689E-03 Eh
   gradient norm :     0.0055504 Eh/α   predicted    -0.1436224E-03 ( -27.34%)
   displ. norm   :     0.2382337 α      lambda       -0.3276987E-03
   maximum displ.:     0.0983987 α      in ANC's #16, #11, #50, ...

........................................................................
.............................. CYCLE    8 ..............................
........................................................................
   1   -419.6761796 -0.419676E+03  0.215E-02    8.34       0.0  T
   2   -419.6761819 -0.223807E-05  0.132E-02    8.34       1.0  T
   3   -419.6761827 -0.849304E-06  0.139E-03    8.34       4.6  T
   4   -419.6761828 -0.627825E-07  0.390E-04    8.34      16.3  T
   5   -419.6761828 -0.806835E-09  0.840E-05    8.34      75.4  T
     SCC iter.                  ...        0 min,  0.165 sec
     gradient                   ...        0 min,  0.107 sec
 * total energy  :  -417.0754824 Eh     change       -0.1442788E-03 Eh
   gradient norm :     0.0136493 Eh/α   predicted    -0.1731545E-03 (  20.01%)
   displ. norm   :     0.1558949 α      lambda       -0.2152416E-03
   maximum displ.:     0.0634764 α      in ANC's #16, #11, #15, ...

........................................................................
.............................. CYCLE    9 ..............................
........................................................................
   1   -419.6759955 -0.419676E+03  0.933E-03    8.34       0.0  T
   2   -419.6759961 -0.638981E-06  0.567E-03    8.34       1.1  T
   3   -419.6759963 -0.189955E-06  0.776E-04    8.34       8.2  T
   4   -419.6759963 -0.201074E-07  0.195E-04    8.34      32.5  T
     SCC iter.                  ...        0 min,  0.163 sec
     gradient                   ...        0 min,  0.130 sec
 * total energy  :  -417.0756355 Eh     change       -0.1531639E-03 Eh
   gradient norm :     0.0089709 Eh/α   predicted    -0.1102379E-03 ( -28.03%)
   displ. norm   :     0.3220207 α      lambda       -0.2995050E-03
   maximum displ.:     0.1321475 α      in ANC's #16, #11, #46, ...

........................................................................
.............................. CYCLE   10 ..............................
........................................................................
   1   -419.6774511 -0.419677E+03  0.159E-02    8.34       0.0  T
   2   -419.6774529 -0.180948E-05  0.952E-03    8.34       1.0  T
   3   -419.6774533 -0.396846E-06  0.136E-03    8.34       4.7  T
   4   -419.6774534 -0.606314E-07  0.281E-04    8.34      22.6  T
   5   -419.6774534 -0.430703E-09  0.803E-05    8.34      78.9  T
     SCC iter.                  ...        0 min,  0.196 sec
     gradient                   ...        0 min,  0.112 sec
 * total energy  :  -417.0758523 Eh     change       -0.2167785E-03 Eh
   gradient norm :     0.0040212 Eh/α   predicted    -0.1652823E-03 ( -23.76%)
   displ. norm   :     0.5398441 α      lambda       -0.3728014E-03
   maximum displ.:     0.2296204 α      in ANC's #16, #11, #13, ...

........................................................................
.............................. CYCLE   11 ..............................
........................................................................
   1   -419.6741749 -0.419674E+03  0.310E-02    8.34       0.0  T
   2   -419.6741798 -0.487420E-05  0.191E-02    8.35       1.0  T
   3   -419.6741816 -0.182159E-05  0.203E-03    8.35       3.1  T
   4   -419.6741817 -0.136500E-06  0.579E-04    8.35      11.0  T
   5   -419.6741817 -0.159895E-08  0.154E-04    8.35      41.2  T
     SCC iter.                  ...        0 min,  0.164 sec
     gradient                   ...        0 min,  0.105 sec
 * total energy  :  -417.0759760 Eh     change       -0.1236946E-03 Eh
   gradient norm :     0.0195497 Eh/α   predicted    -0.2407248E-03 (  94.61%)
   displ. norm   :     0.2598186 α      lambda       -0.5916927E-03
   maximum displ.:     0.0985850 α      in ANC's #11, #2, #16, ...

........................................................................
.............................. CYCLE   12 ..............................
........................................................................
   1   -419.6789426 -0.419679E+03  0.150E-02    8.35       0.0  T
   2   -419.6789448 -0.222545E-05  0.892E-03    8.35       1.0  T
   3   -419.6789454 -0.646920E-06  0.155E-03    8.35       4.1  T
   4   -419.6789455 -0.662354E-07  0.417E-04    8.35      15.2  T
   5   -419.6789455 -0.158917E-08  0.127E-04    8.35      49.9  T
     SCC iter.                  ...        0 min,  0.166 sec
     gradient                   ...        0 min,  0.105 sec
 * total energy  :  -417.0762494 Eh     change       -0.2733645E-03 Eh
   gradient norm :     0.0089458 Eh/α   predicted    -0.3158183E-03 (  15.53%)
   displ. norm   :     0.2162923 α      lambda       -0.2624645E-03
   maximum displ.:     0.0808355 α      in ANC's #2, #11, #50, ...

........................................................................
.............................. CYCLE   13 ..............................
........................................................................
   1   -419.6788128 -0.419679E+03  0.136E-02    8.35       0.0  T
   2   -419.6788143 -0.154556E-05  0.808E-03    8.36       1.0  T
   3   -419.6788147 -0.370944E-06  0.128E-03    8.36       5.0  T
   4   -419.6788148 -0.479070E-07  0.285E-04    8.36      22.2  T
   5   -419.6788148 -0.747491E-09  0.681E-05    8.36      93.0  T
     SCC iter.                  ...        0 min,  0.374 sec
     gradient                   ...        0 min,  0.234 sec
 * total energy  :  -417.0764232 Eh     change       -0.1738427E-03 Eh
   gradient norm :     0.0055873 Eh/α   predicted    -0.1373738E-03 ( -20.98%)
   displ. norm   :     0.4804186 α      lambda       -0.4963585E-03
   maximum displ.:     0.1936394 α      in ANC's #50, #2, #11, ...

........................................................................
.............................. CYCLE   14 ..............................
........................................................................
   1   -419.6761049 -0.419676E+03  0.294E-02    8.36       0.0  T
   2   -419.6761091 -0.414060E-05  0.177E-02    8.36       1.0  T
   3   -419.6761101 -0.990797E-06  0.192E-03    8.37       3.3  T
   4   -419.6761102 -0.142035E-06  0.458E-04    8.37      13.9  T
   5   -419.6761102 -0.145587E-08  0.137E-04    8.37      46.4  T
     SCC iter.                  ...        0 min,  0.212 sec
     gradient                   ...        0 min,  0.240 sec
 * total energy  :  -417.0765118 Eh     change       -0.8857232E-04 Eh
   gradient norm :     0.0199554 Eh/α   predicted    -0.3054609E-03 ( 244.87%)
   displ. norm   :     0.2238028 α      lambda       -0.5404659E-03
   maximum displ.:     0.0874840 α      in ANC's #16, #15, #11, ...

........................................................................
.............................. CYCLE   15 ..............................
........................................................................
   1   -419.6796475 -0.419680E+03  0.139E-02    8.36       0.0  T
   2   -419.6796489 -0.147072E-05  0.837E-03    8.35       1.0  T
   3   -419.6796494 -0.443288E-06  0.121E-03    8.35       5.2  T
   4   -419.6796494 -0.476036E-07  0.368E-04    8.35      17.2  T
   5   -419.6796494 -0.123350E-08  0.158E-04    8.35      40.2  T
     SCC iter.                  ...        0 min,  0.208 sec
     gradient                   ...        0 min,  0.198 sec
 * total energy  :  -417.0767654 Eh     change       -0.2535902E-03 Eh
   gradient norm :     0.0096039 Eh/α   predicted    -0.2837671E-03 (  11.90%)
   displ. norm   :     0.1977705 α      lambda       -0.2740076E-03
   maximum displ.:     0.0824477 α      in ANC's #2, #11, #16, ...

........................................................................
.............................. CYCLE   16 ..............................
........................................................................
   1   -419.6779875 -0.419678E+03  0.153E-02    8.35       0.0  T
   2   -419.6779888 -0.131421E-05  0.935E-03    8.35       1.0  T
   3   -419.6779893 -0.461189E-06  0.110E-03    8.35       5.8  T
   4   -419.6779893 -0.386017E-07  0.305E-04    8.35      20.8  T
   5   -419.6779893 -0.737543E-09  0.417E-05    8.35     151.9  T
     SCC iter.                  ...        0 min,  0.269 sec
     gradient                   ...        0 min,  0.146 sec
 * total energy  :  -417.0768741 Eh     change       -0.1087528E-03 Eh
   gradient norm :     0.0085612 Eh/α   predicted    -0.1423658E-03 (  30.91%)
   displ. norm   :     0.2459410 α      lambda       -0.2783147E-03
   maximum displ.:     0.1198742 α      in ANC's #2, #50, #11, ...

........................................................................
.............................. CYCLE   17 ..............................
........................................................................
   1   -419.6782569 -0.419678E+03  0.149E-02    8.35       0.0  T
   2   -419.6782580 -0.117761E-05  0.889E-03    8.35       1.0  T
   3   -419.6782583 -0.252641E-06  0.106E-03    8.35       6.0  T
   4   -419.6782583 -0.411201E-07  0.236E-04    8.35      26.9  T
   5   -419.6782583 -0.494083E-09  0.623E-05    8.35     101.7  T
     SCC iter.                  ...        0 min,  0.283 sec
     gradient                   ...        0 min,  0.109 sec
 * total energy  :  -417.0770517 Eh     change       -0.1776388E-03 Eh
   gradient norm :     0.0081555 Eh/α   predicted    -0.1475780E-03 ( -16.92%)
   displ. norm   :     0.3002083 α      lambda       -0.3016069E-03
   maximum displ.:     0.1320393 α      in ANC's #2, #50, #3, ...

........................................................................
.............................. CYCLE   18 ..............................
........................................................................
   1   -419.6783873 -0.419678E+03  0.199E-02    8.35       0.0  T
   2   -419.6783896 -0.234281E-05  0.119E-02    8.35       1.0  T
   3   -419.6783901 -0.483359E-06  0.152E-03    8.35       4.2  T
   4   -419.6783902 -0.818222E-07  0.306E-04    8.35      20.7  T
   5   -419.6783902 -0.901252E-09  0.125E-04    8.35      50.6  T
     SCC iter.                  ...        0 min,  0.345 sec
     gradient                   ...        0 min,  0.106 sec
 * total energy  :  -417.0771870 Eh     change       -0.1352801E-03 Eh
   gradient norm :     0.0096960 Eh/α   predicted    -0.1643978E-03 (  21.52%)
   displ. norm   :     0.1912640 α      lambda       -0.2677490E-03
   maximum displ.:     0.0812946 α      in ANC's #2, #11, #56, ...

........................................................................
.............................. CYCLE   19 ..............................
........................................................................
   1   -419.6781603 -0.419678E+03  0.137E-02    8.34       0.0  T
   2   -419.6781612 -0.896197E-06  0.838E-03    8.34       1.0  T
   3   -419.6781616 -0.340621E-06  0.880E-04    8.34       7.2  T
   4   -419.6781616 -0.241783E-07  0.257E-04    8.34      24.7  T
     SCC iter.                  ...        0 min,  0.175 sec
     gradient                   ...        0 min,  0.133 sec
 * total energy  :  -417.0773640 Eh     change       -0.1769487E-03 Eh
   gradient norm :     0.0104142 Eh/α   predicted    -0.1387725E-03 ( -21.57%)
   displ. norm   :     0.2508526 α      lambda       -0.3335572E-03
   maximum displ.:     0.0575131 α      in ANC's #76, #2, #57, ...

........................................................................
.............................. CYCLE   20 ..............................
........................................................................
   1   -419.6806083 -0.419681E+03  0.151E-02    8.35       0.0  T
   2   -419.6806095 -0.120986E-05  0.917E-03    8.34       1.0  T
   3   -419.6806098 -0.380328E-06  0.102E-03    8.35       6.2  T
   4   -419.6806099 -0.375056E-07  0.308E-04    8.35      20.6  T
   5   -419.6806099 -0.918078E-09  0.127E-04    8.35      49.8  T
     SCC iter.                  ...        0 min,  0.215 sec
     gradient                   ...        0 min,  0.136 sec
 * total energy  :  -417.0775295 Eh     change       -0.1655546E-03 Eh
   gradient norm :     0.0076479 Eh/α   predicted    -0.1772773E-03 (   7.08%)
   displ. norm   :     0.2750124 α      lambda        0.5903997E-04
   maximum displ.:     0.0611889 α      in ANC's #76, #2, #57, ...
 * RMSD in coord.:     0.2268635 α      energy gain  -0.6490313E-02 Eh

generating ANC from model Hessian ...
Using Lindh-Hessian (1995)
 Shifting diagonal of input Hessian by   1.006256498073956E-002
 Lowest  eigenvalues of input Hessian
    0.010000    0.010033    0.010042   -0.000000   -0.000000   -0.000000
   -0.000000   -0.000000   -0.000000   -0.000000   -0.000000   -0.000000
   -0.000000   -0.000000   -0.000000   -0.000000   -0.000000   -0.000000
 Highest eigenvalues
    1.430357    1.432744    1.436011    1.439394    1.447461    1.457300
 

........................................................................
.............................. CYCLE   21 ..............................
........................................................................
   1   -419.6789316 -0.419679E+03  0.182E-02    8.34       0.0  T
   2   -419.6789343 -0.272052E-05  0.108E-02    8.34       1.0  T
   3   -419.6789348 -0.560521E-06  0.167E-03    8.34       3.8  T
   4   -419.6789349 -0.842717E-07  0.327E-04    8.34      19.4  T
   5   -419.6789349 -0.879368E-09  0.138E-04    8.34      45.9  T
     SCC iter.                  ...        0 min,  0.211 sec
     gradient                   ...        0 min,  0.130 sec
 * total energy  :  -417.0774610 Eh     change        0.6854839E-04 Eh
   gradient norm :     0.0117211 Eh/α   predicted     0.0000000E+00 (-100.00%)
   displ. norm   :     0.1473044 α      lambda       -0.5420086E-03
   maximum displ.:     0.0626344 α      in ANC's #167, #164, #116, ...

........................................................................
.............................. CYCLE   22 ..............................
........................................................................
   1   -419.6788984 -0.419679E+03  0.199E-02    8.34       0.0  T
   2   -419.6789014 -0.295147E-05  0.121E-02    8.34       1.0  T
   3   -419.6789021 -0.765079E-06  0.158E-03    8.34       4.0  T
   4   -419.6789022 -0.922960E-07  0.364E-04    8.34      17.4  T
   5   -419.6789022 -0.132633E-08  0.182E-04    8.34      34.9  T
     SCC iter.                  ...        0 min,  0.212 sec
     gradient                   ...        0 min,  0.151 sec
 * total energy  :  -417.0777875 Eh     change       -0.3265378E-03 Eh
   gradient norm :     0.0072002 Eh/α   predicted    -0.2768855E-03 ( -15.21%)
   displ. norm   :     0.2127290 α      lambda       -0.4882664E-03
   maximum displ.:     0.0764061 α      in ANC's #167, #116, #128, ...

........................................................................
.............................. CYCLE   23 ..............................
........................................................................
   1   -419.6784589 -0.419678E+03  0.227E-02    8.35       0.0  T
   2   -419.6784633 -0.441675E-05  0.136E-02    8.35       1.0  T
   3   -419.6784641 -0.782040E-06  0.204E-03    8.35       3.1  T
   4   -419.6784643 -0.143022E-06  0.357E-04    8.35      17.8  T
   5   -419.6784643 -0.936552E-09  0.150E-04    8.35      42.2  T
     SCC iter.                  ...        0 min,  0.275 sec
     gradient                   ...        0 min,  0.197 sec
 * total energy  :  -417.0780482 Eh     change       -0.2606700E-03 Eh
   gradient norm :     0.0086593 Eh/α   predicted    -0.2552336E-03 (  -2.09%)
   displ. norm   :     0.1251522 α      lambda       -0.1964024E-03
   maximum displ.:     0.0349447 α      in ANC's #116, #161, #18, ...

........................................................................
.............................. CYCLE   24 ..............................
........................................................................
   1   -419.6793603 -0.419679E+03  0.128E-02    8.35       0.0  T
   2   -419.6793618 -0.146564E-05  0.769E-03    8.35       1.0  T
   3   -419.6793622 -0.362775E-06  0.124E-03    8.35       5.1  T
   4   -419.6793622 -0.453207E-07  0.249E-04    8.35      25.5  T
   5   -419.6793622 -0.407965E-09  0.101E-04    8.35      62.9  T
     SCC iter.                  ...        0 min,  0.381 sec
     gradient                   ...        0 min,  0.117 sec
 * total energy  :  -417.0781471 Eh     change       -0.9894159E-04 Eh
   gradient norm :     0.0067162 Eh/α   predicted    -0.9975267E-04 (   0.82%)
   displ. norm   :     0.1442357 α      lambda       -0.1730329E-03
   maximum displ.:     0.0510801 α      in ANC's #167, #18, #116, ...

........................................................................
.............................. CYCLE   25 ..............................
........................................................................
   1   -419.6796004 -0.419680E+03  0.136E-02    8.35       0.0  T
   2   -419.6796017 -0.126143E-05  0.828E-03    8.35       1.0  T
   3   -419.6796020 -0.340942E-06  0.106E-03    8.35       6.0  T
   4   -419.6796021 -0.423703E-07  0.260E-04    8.35      24.4  T
   5   -419.6796021 -0.442867E-09  0.534E-05    8.35     118.6  T
     SCC iter.                  ...        0 min,  0.417 sec
     gradient                   ...        0 min,  0.114 sec
 * total energy  :  -417.0782692 Eh     change       -0.1220686E-03 Eh
   gradient norm :     0.0045942 Eh/α   predicted    -0.8833375E-04 ( -27.64%)
   displ. norm   :     0.2052667 α      lambda       -0.1760210E-03
   maximum displ.:     0.0620425 α      in ANC's #18, #167, #29, ...

........................................................................
.............................. CYCLE   26 ..............................
........................................................................
   1   -419.6799057 -0.419680E+03  0.159E-02    8.36       0.0  T
   2   -419.6799071 -0.144383E-05  0.964E-03    8.36       1.0  T
   3   -419.6799075 -0.369103E-06  0.113E-03    8.36       5.6  T
   4   -419.6799075 -0.512110E-07  0.283E-04    8.36      22.4  T
   5   -419.6799075 -0.706791E-09  0.479E-05    8.36     132.2  T
     SCC iter.                  ...        0 min,  0.300 sec
     gradient                   ...        0 min,  0.105 sec
 * total energy  :  -417.0783891 Eh     change       -0.1199182E-03 Eh
   gradient norm :     0.0054619 Eh/α   predicted    -0.9172696E-04 ( -23.51%)
   displ. norm   :     0.2839027 α      lambda       -0.1810715E-03
   maximum displ.:     0.0931738 α      in ANC's #18, #29, #25, ...

........................................................................
.............................. CYCLE   27 ..............................
........................................................................
   1   -419.6788072 -0.419679E+03  0.208E-02    8.36       0.0  T
   2   -419.6788090 -0.177659E-05  0.127E-02    8.36       1.0  T
   3   -419.6788097 -0.654691E-06  0.123E-03    8.36       5.2  T
   4   -419.6788097 -0.545836E-07  0.369E-04    8.36      17.2  T
   5   -419.6788097 -0.124999E-08  0.494E-05    8.36     128.3  T
     SCC iter.                  ...        0 min,  0.356 sec
     gradient                   ...        0 min,  0.125 sec
 * total energy  :  -417.0785138 Eh     change       -0.1246982E-03 Eh
   gradient norm :     0.0079301 Eh/α   predicted    -0.9783674E-04 ( -21.54%)
   displ. norm   :     0.3668150 α      lambda       -0.2706926E-03
   maximum displ.:     0.1313420 α      in ANC's #18, #29, #25, ...

........................................................................
.............................. CYCLE   28 ..............................
........................................................................
   1   -419.6785139 -0.419679E+03  0.224E-02    8.36       0.0  T
   2   -419.6785158 -0.187301E-05  0.136E-02    8.36       1.0  T
   3   -419.6785163 -0.531945E-06  0.127E-03    8.36       5.0  T
   4   -419.6785164 -0.669557E-07  0.339E-04    8.36      18.7  T
   5   -419.6785164 -0.112840E-08  0.552E-05    8.36     114.9  T
     SCC iter.                  ...        0 min,  0.245 sec
     gradient                   ...        0 min,  0.114 sec
 * total energy  :  -417.0786742 Eh     change       -0.1604186E-03 Eh
   gradient norm :     0.0077188 Eh/α   predicted    -0.1535576E-03 (  -4.28%)
   displ. norm   :     0.4011708 α      lambda       -0.2518333E-03
   maximum displ.:     0.1440958 α      in ANC's #18, #29, #25, ...

........................................................................
.............................. CYCLE   29 ..............................
........................................................................
   1   -419.6746647 -0.419675E+03  0.287E-02    8.36       0.0  T
   2   -419.6746673 -0.258454E-05  0.175E-02    8.36       1.0  T
   3   -419.6746686 -0.124627E-05  0.149E-03    8.36       4.3  T
   4   -419.6746686 -0.608345E-07  0.516E-04    8.36      12.3  T
   5   -419.6746686 -0.294267E-08  0.101E-04    8.36      62.7  T
     SCC iter.                  ...        0 min,  0.201 sec
     gradient                   ...        0 min,  0.106 sec
 * total energy  :  -417.0786897 Eh     change       -0.1543764E-04 Eh
   gradient norm :     0.0168278 Eh/α   predicted    -0.1461810E-03 ( 846.91%)
   displ. norm   :     0.1645069 α      lambda       -0.4940547E-03
   maximum displ.:     0.0480675 α      in ANC's #116, #18, #128, ...

........................................................................
.............................. CYCLE   30 ..............................
........................................................................
   1   -419.6810632 -0.419681E+03  0.154E-02    8.36       0.0  T
   2   -419.6810660 -0.277156E-05  0.913E-03    8.36       1.0  T
   3   -419.6810666 -0.624841E-06  0.167E-03    8.36       3.8  T
   4   -419.6810667 -0.848047E-07  0.401E-04    8.36      15.8  T
   5   -419.6810667 -0.152551E-08  0.733E-05    8.36      86.5  T
     SCC iter.                  ...        0 min,  0.214 sec
     gradient                   ...        0 min,  0.105 sec
 * total energy  :  -417.0788418 Eh     change       -0.1521569E-03 Eh
   gradient norm :     0.0106569 Eh/α   predicted    -0.2537140E-03 (  66.74%)
   displ. norm   :     0.1567880 α      lambda       -0.3157273E-03
   maximum displ.:     0.0549328 α      in ANC's #18, #29, #25, ...

........................................................................
.............................. CYCLE   31 ..............................
........................................................................
   1   -419.6798238 -0.419680E+03  0.166E-02    8.36       0.0  T
   2   -419.6798258 -0.200706E-05  0.100E-02    8.36       1.0  T
   3   -419.6798264 -0.650605E-06  0.144E-03    8.36       4.4  T
   4   -419.6798265 -0.616217E-07  0.364E-04    8.36      17.4  T
   5   -419.6798265 -0.102250E-08  0.738E-05    8.36      85.9  T
     SCC iter.                  ...        0 min,  0.216 sec
     gradient                   ...        0 min,  0.116 sec
 * total energy  :  -417.0789451 Eh     change       -0.1032406E-03 Eh
   gradient norm :     0.0092212 Eh/α   predicted    -0.1617463E-03 (  56.67%)
   displ. norm   :     0.2053148 α      lambda       -0.1959549E-03
   maximum displ.:     0.0747147 α      in ANC's #18, #29, #25, ...

........................................................................
.............................. CYCLE   32 ..............................
........................................................................
   1   -419.6788404 -0.419679E+03  0.138E-02    8.36       0.0  T
   2   -419.6788412 -0.803889E-06  0.839E-03    8.36       1.0  T
   3   -419.6788416 -0.340599E-06  0.825E-04    8.36       7.7  T
   4   -419.6788416 -0.222109E-07  0.279E-04    8.36      22.8  T
     SCC iter.                  ...        0 min,  0.246 sec
     gradient                   ...        0 min,  0.113 sec
 * total energy  :  -417.0790691 Eh     change       -0.1239916E-03 Eh
   gradient norm :     0.0066351 Eh/α   predicted    -0.1021119E-03 ( -17.65%)
   displ. norm   :     0.2804056 α      lambda       -0.1675584E-03
   maximum displ.:     0.1087314 α      in ANC's #18, #29, #25, ...

........................................................................
.............................. CYCLE   33 ..............................
........................................................................
   1   -419.6786186 -0.419679E+03  0.165E-02    8.36       0.0  T
   2   -419.6786199 -0.127098E-05  0.101E-02    8.36       1.0  T
   3   -419.6786204 -0.511897E-06  0.104E-03    8.36       6.1  T
   4   -419.6786205 -0.360610E-07  0.348E-04    8.36      18.2  T
   5   -419.6786205 -0.137112E-08  0.650E-05    8.36      97.5  T
     SCC iter.                  ...        0 min,  0.197 sec
     gradient                   ...        0 min,  0.144 sec
 * total energy  :  -417.0791347 Eh     change       -0.6559507E-04 Eh
   gradient norm :     0.0102922 Eh/α   predicted    -0.9037115E-04 (  37.77%)
   displ. norm   :     0.3070890 α      lambda       -0.1921522E-03
   maximum displ.:     0.1181725 α      in ANC's #18, #29, #25, ...

........................................................................
.............................. CYCLE   34 ..............................
........................................................................
   1   -419.6777885 -0.419678E+03  0.169E-02    8.35       0.0  T
   2   -419.6777897 -0.117247E-05  0.104E-02    8.35       1.0  T
   3   -419.6777902 -0.477388E-06  0.973E-04    8.35       6.5  T
   4   -419.6777902 -0.333750E-07  0.325E-04    8.35      19.5  T
     SCC iter.                  ...        0 min,  0.196 sec
     gradient                   ...        0 min,  0.116 sec
 * total energy  :  -417.0792238 Eh     change       -0.8909667E-04 Eh
   gradient norm :     0.0112058 Eh/α   predicted    -0.1051407E-03 (  18.01%)
   displ. norm   :     0.1382649 α      lambda       -0.2523391E-03
   maximum displ.:     0.0267723 α      in ANC's #35, #85, #131, ...

........................................................................
.............................. CYCLE   35 ..............................
........................................................................
   1   -419.6825360 -0.419683E+03  0.121E-02    8.36       0.0  T
   2   -419.6825371 -0.109839E-05  0.719E-03    8.36       1.0  T
   3   -419.6825374 -0.321439E-06  0.105E-03    8.36       6.0  T
   4   -419.6825375 -0.340922E-07  0.289E-04    8.36      21.9  T
   5   -419.6825375 -0.812065E-09  0.952E-05    8.36      66.6  T
     SCC iter.                  ...        0 min,  0.253 sec
     gradient                   ...        0 min,  0.124 sec
 * total energy  :  -417.0792539 Eh     change       -0.3016473E-04 Eh
   gradient norm :     0.0089466 Eh/α   predicted    -0.1285861E-03 ( 326.28%)
   displ. norm   :     0.2620808 α      lambda       -0.2337395E-03
   maximum displ.:     0.0987078 α      in ANC's #18, #29, #25, ...

........................................................................
.............................. CYCLE   36 ..............................
........................................................................
   1   -419.6792864 -0.419679E+03  0.181E-02    8.36       0.0  T
   2   -419.6792878 -0.145221E-05  0.111E-02    8.36       1.0  T
   3   -419.6792885 -0.666244E-06  0.115E-03    8.36       5.5  T
   4   -419.6792885 -0.376148E-07  0.383E-04    8.36      16.6  T
   5   -419.6792885 -0.166472E-08  0.558E-05    8.36     113.5  T
     SCC iter.                  ...        0 min,  0.254 sec
     gradient                   ...        0 min,  0.108 sec
 * total energy  :  -417.0793810 Eh     change       -0.1270579E-03 Eh
   gradient norm :     0.0068958 Eh/α   predicted    -0.1248991E-03 (  -1.70%)
   displ. norm   :     0.1607254 α      lambda       -0.1147750E-03
   maximum displ.:     0.0550502 α      in ANC's #18, #10, #28, ...

........................................................................
.............................. CYCLE   37 ..............................
........................................................................
   1   -419.6789392 -0.419679E+03  0.107E-02    8.35       0.0  T
   2   -419.6789396 -0.388477E-06  0.651E-03    8.35       1.0  T
   3   -419.6789398 -0.187533E-06  0.572E-04    8.35      11.1  T
   4   -419.6789398 -0.859143E-08  0.191E-04    8.35      33.2  T
     SCC iter.                  ...        0 min,  0.164 sec
     gradient                   ...        0 min,  0.110 sec
 * total energy  :  -417.0794211 Eh     change       -0.4014165E-04 Eh
   gradient norm :     0.0081019 Eh/α   predicted    -0.5887311E-04 (  46.66%)
   displ. norm   :     0.1998082 α      lambda       -0.1620433E-03
   maximum displ.:     0.0613277 α      in ANC's #18, #10, #28, ...

........................................................................
.............................. CYCLE   38 ..............................
........................................................................
   1   -419.6797951 -0.419680E+03  0.144E-02    8.35       0.0  T
   2   -419.6797962 -0.112046E-05  0.890E-03    8.35       1.0  T
   3   -419.6797967 -0.482997E-06  0.967E-04    8.35       6.6  T
   4   -419.6797967 -0.280244E-07  0.303E-04    8.35      20.9  T
     SCC iter.                  ...        0 min,  0.351 sec
     gradient                   ...        0 min,  0.128 sec
 * total energy  :  -417.0794540 Eh     change       -0.3286408E-04 Eh
   gradient norm :     0.0125811 Eh/α   predicted    -0.8425891E-04 ( 156.39%)
   displ. norm   :     0.1318827 α      lambda       -0.2118395E-03
   maximum displ.:     0.0343918 α      in ANC's #10, #67, #28, ...

........................................................................
.............................. CYCLE   39 ..............................
........................................................................
   1   -419.6797985 -0.419680E+03  0.998E-03    8.35       0.0  T
   2   -419.6797991 -0.537820E-06  0.592E-03    8.35       1.1  T
   3   -419.6797992 -0.110555E-06  0.681E-04    8.35       9.3  T
   4   -419.6797992 -0.172535E-07  0.145E-04    8.35      43.8  T
     SCC iter.                  ...        0 min,  0.180 sec
     gradient                   ...        0 min,  0.107 sec
 * total energy  :  -417.0795735 Eh     change       -0.1194957E-03 Eh
   gradient norm :     0.0063490 Eh/α   predicted    -0.1077644E-03 (  -9.82%)
   displ. norm   :     0.1995334 α      lambda       -0.1737085E-03
   maximum displ.:     0.0547098 α      in ANC's #10, #67, #28, ...

........................................................................
.............................. CYCLE   40 ..............................
........................................................................
   1   -419.6800351 -0.419680E+03  0.134E-02    8.35       0.0  T
   2   -419.6800361 -0.955659E-06  0.812E-03    8.35       1.0  T
   3   -419.6800363 -0.281359E-06  0.915E-04    8.35       6.9  T
   4   -419.6800364 -0.301022E-07  0.235E-04    8.35      26.9  T
     SCC iter.                  ...        0 min,  0.152 sec
     gradient                   ...        0 min,  0.143 sec
 * total energy  :  -417.0796428 Eh     change       -0.6934941E-04 Eh
   gradient norm :     0.0075089 Eh/α   predicted    -0.9031662E-04 (  30.23%)
   displ. norm   :     0.2946822 α      lambda       -0.1701284E-03
   maximum displ.:     0.0877438 α      in ANC's #10, #18, #28, ...

........................................................................
.............................. CYCLE   41 ..............................
........................................................................
   1   -419.6786452 -0.419679E+03  0.195E-02    8.35       0.0  T
   2   -419.6786472 -0.194958E-05  0.120E-02    8.35       1.0  T
   3   -419.6786480 -0.836980E-06  0.128E-03    8.35       4.9  T
   4   -419.6786481 -0.547839E-07  0.415E-04    8.35      15.3  T
   5   -419.6786481 -0.181001E-08  0.928E-05    8.35      68.3  T
     SCC iter.                  ...        0 min,  0.219 sec
     gradient                   ...        0 min,  0.145 sec
 * total energy  :  -417.0797253 Eh     change       -0.8242770E-04 Eh
   gradient norm :     0.0077573 Eh/α   predicted    -0.9245456E-04 (  12.16%)
   displ. norm   :     0.1930567 α      lambda       -0.1982032E-03
   maximum displ.:     0.0655205 α      in ANC's #9, #67, #10, ...

........................................................................
.............................. CYCLE   42 ..............................
........................................................................
   1   -419.6815018 -0.419682E+03  0.127E-02    8.35       0.0  T
   2   -419.6815028 -0.103409E-05  0.771E-03    8.35       1.0  T
   3   -419.6815032 -0.359780E-06  0.969E-04    8.34       6.5  T
   4   -419.6815032 -0.292836E-07  0.278E-04    8.34      22.8  T
     SCC iter.                  ...        0 min,  0.251 sec
     gradient                   ...        0 min,  0.129 sec
 * total energy  :  -417.0797645 Eh     change       -0.3926135E-04 Eh
   gradient norm :     0.0082884 Eh/α   predicted    -0.1027984E-03 ( 161.83%)
   displ. norm   :     0.3554645 α      lambda       -0.2468344E-03
   maximum displ.:     0.1070135 α      in ANC's #18, #10, #28, ...
 * RMSD in coord.:     0.2441306 α      energy gain  -0.2234986E-02 Eh

generating ANC from model Hessian ...
Using Lindh-Hessian (1995)
 Shifting diagonal of input Hessian by   1.006874605290333E-002
 Lowest  eigenvalues of input Hessian
    0.010000    0.010029    0.010039   -0.000000   -0.000000   -0.000000
   -0.000000   -0.000000   -0.000000   -0.000000   -0.000000   -0.000000
   -0.000000   -0.000000   -0.000000   -0.000000   -0.000000   -0.000000
 Highest eigenvalues
    1.432506    1.432956    1.434709    1.439973    1.447134    1.457239
 

........................................................................
.............................. CYCLE   43 ..............................
........................................................................
   1   -419.6768528 -0.419677E+03  0.236E-02    8.34       0.0  T
   2   -419.6768559 -0.308101E-05  0.144E-02    8.34       1.0  T
   3   -419.6768569 -0.108863E-05  0.166E-03    8.34       3.8  T
   4   -419.6768570 -0.981807E-07  0.491E-04    8.34      12.9  T
   5   -419.6768570 -0.215715E-08  0.735E-05    8.34      86.2  T
     SCC iter.                  ...        0 min,  0.195 sec
     gradient                   ...        0 min,  0.148 sec
 * total energy  :  -417.0797705 Eh     change       -0.6024148E-05 Eh
   gradient norm :     0.0122363 Eh/α   predicted     0.0000000E+00 (-100.00%)
   displ. norm   :     0.1001398 α      lambda       -0.3338557E-03
   maximum displ.:     0.0169853 α      in ANC's #230, #270, #429, ...

........................................................................
.............................. CYCLE   44 ..............................
........................................................................
   1   -419.6786612 -0.419679E+03  0.153E-02    8.35       0.0  T
   2   -419.6786621 -0.942074E-06  0.946E-03    8.35       1.0  T
   3   -419.6786626 -0.423035E-06  0.820E-04    8.35       7.7  T
   4   -419.6786626 -0.186102E-07  0.263E-04    8.35      24.1  T
     SCC iter.                  ...        0 min,  0.154 sec
     gradient                   ...        0 min,  0.153 sec
 * total energy  :  -417.0799232 Eh     change       -0.1526999E-03 Eh
   gradient norm :     0.0042021 Eh/α   predicted    -0.1686023E-03 (  10.41%)
   displ. norm   :     0.0708082 α      lambda       -0.1066361E-03
   maximum displ.:     0.0134067 α      in ANC's #96, #92, #23, ...

........................................................................
.............................. CYCLE   45 ..............................
........................................................................
   1   -419.6800822 -0.419680E+03  0.670E-03    8.35       0.0  T
   2   -419.6800824 -0.231082E-06  0.409E-03    8.35       1.6  T
   3   -419.6800825 -0.820492E-07  0.435E-04    8.35      14.6  T
   4   -419.6800825 -0.591797E-08  0.139E-04    8.35      45.5  T
     SCC iter.                  ...        0 min,  0.158 sec
     gradient                   ...        0 min,  0.223 sec
 * total energy  :  -417.0799854 Eh     change       -0.6217607E-04 Eh
   gradient norm :     0.0024878 Eh/α   predicted    -0.5375145E-04 ( -13.55%)
   displ. norm   :     0.0885286 α      lambda       -0.5826207E-04
   maximum displ.:     0.0191351 α      in ANC's #95, #96, #32, ...

........................................................................
.............................. CYCLE   46 ..............................
........................................................................
   1   -419.6805815 -0.419681E+03  0.632E-03    8.35       0.0  T
   2   -419.6805817 -0.181520E-06  0.388E-03    8.35       1.6  T
   3   -419.6805817 -0.681212E-07  0.369E-04    8.35      17.2  T
   4   -419.6805817 -0.484653E-08  0.109E-04    8.35      58.0  T
     SCC iter.                  ...        0 min,  0.153 sec
     gradient                   ...        0 min,  0.147 sec
 * total energy  :  -417.0800232 Eh     change       -0.3782531E-04 Eh
   gradient norm :     0.0032427 Eh/α   predicted    -0.2935973E-04 ( -22.38%)
   displ. norm   :     0.1909125 α      lambda       -0.9224752E-04
   maximum displ.:     0.0433615 α      in ANC's #96, #34, #32, ...

........................................................................
.............................. CYCLE   47 ..............................
........................................................................
   1   -419.6803612 -0.419680E+03  0.130E-02    8.35       0.0  T
   2   -419.6803619 -0.763563E-06  0.804E-03    8.35       1.0  T
   3   -419.6803623 -0.324378E-06  0.754E-04    8.35       8.4  T
   4   -419.6803623 -0.185930E-07  0.233E-04    8.35      27.2  T
     SCC iter.                  ...        0 min,  0.153 sec
     gradient                   ...        0 min,  0.150 sec
 * total energy  :  -417.0800832 Eh     change       -0.5998040E-04 Eh
   gradient norm :     0.0033889 Eh/α   predicted    -0.4781452E-04 ( -20.28%)
   displ. norm   :     0.1652652 α      lambda       -0.6027027E-04
   maximum displ.:     0.0393731 α      in ANC's #34, #32, #96, ...

........................................................................
.............................. CYCLE   48 ..............................
........................................................................
   1   -419.6797380 -0.419680E+03  0.111E-02    8.35       0.0  T
   2   -419.6797385 -0.513331E-06  0.688E-03    8.35       1.0  T
   3   -419.6797387 -0.241218E-06  0.627E-04    8.35      10.1  T
   4   -419.6797388 -0.109355E-07  0.208E-04    8.35      30.5  T
     SCC iter.                  ...        0 min,  0.148 sec
     gradient                   ...        0 min,  0.148 sec
 * total energy  :  -417.0801196 Eh     change       -0.3641368E-04 Eh
   gradient norm :     0.0038089 Eh/α   predicted    -0.3097674E-04 ( -14.93%)
   displ. norm   :     0.1159265 α      lambda       -0.4820302E-04
   maximum displ.:     0.0307825 α      in ANC's #34, #32, #33, ...

........................................................................
.............................. CYCLE   49 ..............................
........................................................................
   1   -419.6798991 -0.419680E+03  0.637E-03    8.35       0.0  T
   2   -419.6798993 -0.195284E-06  0.389E-03    8.35       1.6  T
   3   -419.6798994 -0.776539E-07  0.414E-04    8.35      15.3  T
   4   -419.6798994 -0.534129E-08  0.138E-04    8.35      46.1  T
     SCC iter.                  ...        0 min,  0.153 sec
     gradient                   ...        0 min,  0.148 sec
 * total energy  :  -417.0801484 Eh     change       -0.2871311E-04 Eh
   gradient norm :     0.0023476 Eh/α   predicted    -0.2443371E-04 ( -14.90%)
   displ. norm   :     0.1023187 α      lambda       -0.2884987E-04
   maximum displ.:     0.0251572 α      in ANC's #34, #32, #33, ...

........................................................................
.............................. CYCLE   50 ..............................
........................................................................
   1   -419.6799106 -0.419680E+03  0.610E-03    8.35       0.0  T
   2   -419.6799108 -0.196214E-06  0.374E-03    8.35       1.7  T
   3   -419.6799109 -0.700629E-07  0.407E-04    8.35      15.6  T
   4   -419.6799109 -0.604331E-08  0.119E-04    8.35      53.2  T
     SCC iter.                  ...        0 min,  0.161 sec
     gradient                   ...        0 min,  0.149 sec
 * total energy  :  -417.0801684 Eh     change       -0.2007998E-04 Eh
   gradient norm :     0.0018089 Eh/α   predicted    -0.1457903E-04 ( -27.40%)
   displ. norm   :     0.2321376 α      lambda       -0.3518980E-04
   maximum displ.:     0.0543358 α      in ANC's #33, #34, #32, ...

........................................................................
.............................. CYCLE   51 ..............................
........................................................................
   1   -419.6797949 -0.419680E+03  0.130E-02    8.35       0.0  T
   2   -419.6797958 -0.936052E-06  0.795E-03    8.35       1.0  T
   3   -419.6797961 -0.300497E-06  0.892E-04    8.35       7.1  T
   4   -419.6797962 -0.313310E-07  0.258E-04    8.35      24.6  T
     SCC iter.                  ...        0 min,  0.151 sec
     gradient                   ...        0 min,  0.267 sec
 * total energy  :  -417.0801938 Eh     change       -0.2534963E-04 Eh
   gradient norm :     0.0024468 Eh/α   predicted    -0.1801726E-04 ( -28.92%)
   displ. norm   :     0.0598463 α      lambda       -0.2485758E-04
   maximum displ.:     0.0148433 α      in ANC's #95, #14, #3, ...

........................................................................
.............................. CYCLE   52 ..............................
........................................................................
   1   -419.6804408 -0.419680E+03  0.372E-03    8.35       0.0  T
   2   -419.6804409 -0.915741E-07  0.225E-03    8.35       2.8  T
   3   -419.6804409 -0.292529E-07  0.295E-04    8.35      21.5  T
   4   -419.6804409 -0.288844E-08  0.864E-05    8.35      73.3  T
     SCC iter.                  ...        0 min,  0.153 sec
     gradient                   ...        0 min,  0.120 sec
 * total energy  :  -417.0802071 Eh     change       -0.1335428E-04 Eh
   gradient norm :     0.0019552 Eh/α   predicted    -0.1247616E-04 (  -6.58%)
   displ. norm   :     0.1183861 α      lambda       -0.2276258E-04
   maximum displ.:     0.0314418 α      in ANC's #3, #33, #123, ...

........................................................................
.............................. CYCLE   53 ..............................
........................................................................
   1   -419.6802446 -0.419680E+03  0.790E-03    8.35       0.0  T
   2   -419.6802451 -0.404504E-06  0.482E-03    8.35       1.3  T
   3   -419.6802452 -0.129970E-06  0.596E-04    8.35      10.6  T
   4   -419.6802452 -0.132158E-07  0.166E-04    8.35      38.2  T
     SCC iter.                  ...        0 min,  0.147 sec
     gradient                   ...        0 min,  0.134 sec
 * total energy  :  -417.0802216 Eh     change       -0.1447144E-04 Eh
   gradient norm :     0.0022312 Eh/α   predicted    -0.1145324E-04 ( -20.86%)
   displ. norm   :     0.0487758 α      lambda       -0.1704010E-04
   maximum displ.:     0.0147432 α      in ANC's #3, #14, #16, ...

........................................................................
.............................. CYCLE   54 ..............................
........................................................................
   1   -419.6807180 -0.419681E+03  0.394E-03    8.35       0.0  T
   2   -419.6807181 -0.110074E-06  0.240E-03    8.35       2.6  T
   3   -419.6807182 -0.342817E-07  0.325E-04    8.35      19.5  T
   4   -419.6807182 -0.336678E-08  0.752E-05    8.35      84.3  T
     SCC iter.                  ...        0 min,  0.217 sec
     gradient                   ...        0 min,  0.111 sec
 * total energy  :  -417.0802304 Eh     change       -0.8841068E-05 Eh
   gradient norm :     0.0015104 Eh/α   predicted    -0.8540833E-05 (  -3.40%)
   displ. norm   :     0.1104516 α      lambda       -0.1505524E-04
   maximum displ.:     0.0355952 α      in ANC's #3, #33, #14, ...

........................................................................
.............................. CYCLE   55 ..............................
........................................................................
   1   -419.6801242 -0.419680E+03  0.597E-03    8.35       0.0  T
   2   -419.6801244 -0.163314E-06  0.364E-03    8.35       1.7  T
   3   -419.6801244 -0.584317E-07  0.378E-04    8.35      16.8  T
   4   -419.6801244 -0.475990E-08  0.109E-04    8.35      58.0  T
     SCC iter.                  ...        0 min,  0.157 sec
     gradient                   ...        0 min,  0.227 sec
 * total energy  :  -417.0802382 Eh     change       -0.7799555E-05 Eh
   gradient norm :     0.0014471 Eh/α   predicted    -0.7571977E-05 (  -2.92%)
   displ. norm   :     0.0706550 α      lambda       -0.1065497E-04
   maximum displ.:     0.0251683 α      in ANC's #3, #33, #14, ...

........................................................................
.............................. CYCLE   56 ..............................
........................................................................
   1   -419.6803383 -0.419680E+03  0.394E-03    8.35       0.0  T
   2   -419.6803384 -0.745428E-07  0.240E-03    8.35       2.6  T
   3   -419.6803384 -0.279743E-07  0.245E-04    8.35      25.9  T
   4   -419.6803384 -0.202959E-08  0.777E-05    8.35      81.5  T
     SCC iter.                  ...        0 min,  0.189 sec
     gradient                   ...        0 min,  0.122 sec
 * total energy  :  -417.0802461 Eh     change       -0.7841789E-05 Eh
   gradient norm :     0.0013794 Eh/α   predicted    -0.5344314E-05 ( -31.85%)
   displ. norm   :     0.0475530 α      lambda       -0.6013309E-05
   maximum displ.:     0.0194438 α      in ANC's #3, #5, #8, ...

........................................................................
.............................. CYCLE   57 ..............................
........................................................................
   1   -419.6806793 -0.419681E+03  0.258E-03    8.35       0.0  T
   2   -419.6806794 -0.371655E-07  0.157E-03    8.35       4.0  T
   3   -419.6806794 -0.121191E-07  0.171E-04    8.35      37.0  T
   4   -419.6806794 -0.104842E-08  0.574E-05    8.35     110.3  T
     SCC iter.                  ...        0 min,  0.218 sec
     gradient                   ...        0 min,  0.116 sec
 * total energy  :  -417.0802510 Eh     change       -0.4914723E-05 Eh
   gradient norm :     0.0007801 Eh/α   predicted    -0.3012518E-05 ( -38.70%)
   displ. norm   :     0.0663239 α      lambda       -0.5202087E-05
   maximum displ.:     0.0285066 α      in ANC's #3, #5, #8, ...

   *** GEOMETRY OPTIMIZATION CONVERGED AFTER 57 ITERATIONS ***

------------------------------------------------------------------------
 total energy gain   :        -0.0092118 Eh       -5.7805 kcal/mol
 total RMSD          :         0.3797924 a0        0.2010 Å
 total power (kW/mol):        -0.4243076 (step)   -0.9134 (real)
------------------------------------------------------------------------

 ANCopt (total)                0 d,  0 h,  0 min, 26.482 sec
 optimizer setup                ...        0 min,  0.002 sec (  0.009%)
 model hessian                  ...        0 min,  3.089 sec ( 11.665%)
 ANC generation                 ...        0 min,  0.284 sec (  1.073%)
 coordinate transformation      ...        0 min,  0.134 sec (  0.505%)
 single point calculation       ...        0 min, 22.672 sec ( 85.615%)
 optimization log               ...        0 min,  0.131 sec (  0.496%)
 hessian update                 ...        0 min,  0.094 sec (  0.357%)
 rational function              ...        0 min,  0.054 sec (  0.204%)

================
 final structure:
================
$coord
       -1.02518666939699       -2.19170375896300        1.73493370539005      h
       -1.15509701664103       -1.02290059742899        0.01903883681607      c
       -1.01880965274302       -2.26184054602001       -1.64641193954597      h
        0.96445172757396        0.95202104999697       -0.01792818005789      c
        0.73909050853802        2.17676121986003        1.62534710259502      h
        0.74538344070199        2.10754922103001       -1.71141380092596      h
       -3.38106501420702        0.39689126702103       -0.01460891384500      o
       -4.84650165447398       -0.68422215497300        0.00505210749201      h
        3.52196224380508       -0.22162348472803        0.01123918627902      n
        3.75512628679496       -1.36760195685692       -1.54260354025793      h
        3.74917664054600       -1.30216555186093        1.61213325058613      h
        4.90021657903402        1.14751737574701       -0.01456060092206      h
        6.86017194554666       -0.14627212935566       -5.59706529202472      o
        7.47928153385502       -0.53453212807154       -3.90376456387059      h
        5.00734778570946       -0.30352779140501       -5.50600768481094      h
        1.92404959700483       -0.83115479179747       -5.23046112371264      o
        1.53048463231821       -2.52148080108808       -4.64524195602342      h
        0.93167589870364       -0.60378565492617       -6.75605878598389      h
       -1.21325842736684       -1.31973203843970       -9.25569863797386      o
       -2.37190695580511       -1.70711888991312       -7.89035752069379      h
       -2.02691203365061        0.09007686422319      -10.17160963597513      h
       -4.14452736742023       -2.24483532435645       -5.01339124352418      o
       -4.81462880407388       -3.07571254061047       -3.54017609679193      h
       -4.28863494788237       -0.40600521857320       -4.71843667183242      h
        4.08280595746267       -3.76282720834388        3.63949193322778      o
        3.39936609951304       -5.15366628337798        2.64820482081283      h
        2.97281920761921       -3.43870238927222        5.09429295759070      h
       -1.11545516755836        3.08136625085398        5.81616111213652      o
       -0.97074193549449        4.78011046146949        5.11540420190788      h
        0.62512797720397        2.43693038032790        5.78661432391700      h
        2.20033953984678       -7.55657646604893        0.64002077342459      o
        3.86083717207387       -8.22908838172583        0.23658032717243      h
        1.61611329918723       -6.74158768246713       -0.93322353782952      h
        2.48461191333474        6.12362459555811       -2.07652816970647      o
        4.03483935922869        5.41680106562606       -1.37444106327912      h
        2.58911004454823        5.84042877684852       -3.89562294247067      h
       -2.07510829729712        6.12748629143297       -7.33886249765673      o
       -2.79788242583567        7.62299563499238       -6.58395811786609      h
       -2.88595425739879        4.72911524183595       -6.41419175493030      h
        0.17398126933935       -5.67453324015225       -3.59153779443171      o
       -1.55669283699096       -6.01311732286332       -3.01753045282589      h
        0.18238103858835       -6.19091090683497       -5.36282610560713      h
       -4.93762635043697        2.61229439399125       -5.20199802892188      o
       -5.81479637804812        3.44972790989394       -3.80190766123507      h
       -6.18019156082591        2.45948258359490       -6.57553103829033      h
       -2.38398377472014        5.87373113284656       -0.47840852979787      o
       -3.41612965034446        6.81432851237454       -1.67774265865182      h
       -0.71639350100656        5.78868661873462       -1.23600218105836      h
        8.65610388244642       -1.46435458265941        3.82773963883235      o
        9.88143361617709       -2.10855889655025        5.03199620220378      h
        7.10276908325189       -2.42413380670238        4.00881702868028      h
       -7.70084824313501        4.66815337712999       -1.53058458554578      o
       -9.23200287141263        3.65056490004300       -1.52174317987326      h
       -6.74306891996857        4.08593526395761       -0.05722008741634      h
        3.68343206270718        1.87552496279429        4.82447148683331      o
        4.91975260830290        1.38964712071241        6.09538179745480      h
        4.13984766088644        3.58232852802092        4.33518352944970      h
       -7.46115183747796       -2.58613481149613       -0.44575981693611      o
       -8.48378423286841       -2.23155796178315        1.03823290053050      h
       -8.56257471891192       -2.23532763898420       -1.90792036296684      h
       -5.83606450109928        3.50270626861352        3.02223832797516      o
       -4.31544734714855        2.76309227324443        2.29400502061020      h
       -5.47761681050439        5.22886173324733        3.57210510405989      h
        5.10013009458879       -4.21505702132326       -2.84549047251063      o
        5.91153097064705       -5.40436613474674       -1.72029871690651      h
        4.93826339343615       -5.08196325308187       -4.44776117091276      h
        9.32960661908971       -0.97684949178959       -1.14705979179057      o
        9.17114522969267       -1.19704756653202        0.67987601497231      h
       10.54889109661838        0.38778250198140       -1.36482192063159      h
       -3.23531159440342       -1.49697952415012        5.74235733576906      o
       -2.76640921514129        0.27950586423333        5.58757840235141      h
       -4.56965604802453       -1.62668335859003        7.02759445174143      h
        6.74021843127403        3.73758813040089       -0.57592261896981      o
        7.60725981598809        3.89748176067561        1.06881002347466      h
        8.04005203508621        3.85606561938597       -1.83497343342361      h
        2.89886160867948        5.42826302706514       -7.07361956836396      o
        1.12169632818784        5.84243339794055       -7.40119733773036      h
        3.26289874651937        3.96862693310818       -8.14171723816807      h
       10.00416252609808        3.61577384502389       -6.67616793718072      o
        9.13219619491345        5.22325641220735       -6.49743172282875      h
        8.68602869915754        2.32205847986453       -6.51471586662029      h
       -4.40364438514844       -6.84889587384296       -1.87994998360721      o
       -3.90601671685101       -8.57356754803798       -1.44950729550003      h
       -4.74697493913154       -6.07209319066718       -0.24275933355034      h
       -9.93838239211952       -7.29947847172154        0.33567759276427      o
       -8.73970286716038       -5.94210857165167        0.04524387294997      h
       -9.68936128722488       -8.44002314526596       -1.08292660615143      h
       -4.63305366552589       -5.56347462466082        3.10607655952999      o
       -3.34971194070561       -6.67296383714617        3.84177920138384      h
       -4.23000026451724       -3.89183784485264        3.76901443394678      h
      -10.67762244802044       -1.95976733747212       -4.20770485314480      o
      -12.08914548412531       -2.98016322152959       -3.54582034244337      h
      -11.32087073600660       -0.28258872733734       -4.61000908565001      h
      -10.78279932149497       -1.87857567979403        3.43765532605488      o
      -10.30516313763145       -0.52277341163990        4.61052529710183      h
      -10.30285371913755       -3.49086301592976        4.25410159789090      h
      -11.59981879183404        1.72963792901495       -0.20979740993701      o
      -13.19837883453870        1.57339222896453       -1.16192019936960      h
      -11.40856934347922        0.18757057215310        0.74659094671333      h
       12.10835352179596        3.24447346029684       -2.19446818715219      o
       11.55181392065048        3.48351700696012       -3.96189612579374      h
       13.77708562718042        2.49910333319942       -2.29928548928517      h
        7.08634188690377        7.72503259317662       -5.41754200026113      o
        5.52488598371178        7.00029428882110       -6.11153549916103      h
        7.37844331837633        9.26844215736581       -6.31318424432249      h
        9.29248461403874       -4.32678214442570       -7.21436289824345      o
        8.03812241254743       -5.52509413447956       -7.76559121827980      h
        8.32694067615992       -2.82892867335143       -6.69618465528294      h
       10.94051231712514       -5.59361259558516       -2.43583832487885      o
       10.73089997373325       -5.58246231507217       -4.25966916518381      h
       10.41678831321709       -3.87546166155486       -1.94215178731367      h
        7.22180975825692       -8.14930960905974       -0.19005797738831      o
        8.72325005366604       -7.55600257509392       -1.11209581336770      h
        7.61694116962849       -7.89417098181378        1.58705780621749      h
       12.81520672688455       -5.59868753273396        2.51256517734120      o
       12.61510109670774       -6.02342159766875        0.74432520560822      h
       13.18413273045806       -3.78342109803990        2.49068587426327      h
       13.30848154914087       -0.82778504560988       -6.94242567954768      o
       12.38721466087454        0.68936372994091       -7.35511035309743      h
       12.17654247983921       -2.22918091037146       -7.24603223389004      h
        5.12486580847016        6.86563699010396        4.07244434919123      o
        6.76108240689440        6.18577627943457        4.52729386267682      h
        5.45048603892717        7.83490550014214        2.53910370406205      h
        9.00184915393001        3.57019247943352        3.84078029229822      o
       10.78295295164683        3.92908841346926        3.78032166092591      h
        8.83885260866509        1.74378436070299        4.08942940954342      h
       -9.05941417910882       -6.06707543809166        5.44530807291929      o
       -7.39009012283320       -6.04537483642380        4.60966279675657      h
       -9.99418805474689       -7.33193012427914        4.53064749828231      h
       16.02378137040296       -0.03782409282715       -2.80298197014697      o
[...]
   159   1 h    0.897 --   157 o    0.851
   160   8 o    1.844 --   162 h    0.846   161 h    0.809
   161   1 h    0.888 --   160 o    0.809
   162   1 h    0.890 --   160 o    0.846
   163   8 o    1.857 --   165 h    0.908   164 h    0.856
   164   1 h    0.895 --   163 o    0.856
   165   1 h    0.912 --   163 o    0.908
   166   8 o    1.856 --   167 h    0.911   168 h    0.846
   167   1 h    0.914 --   166 o    0.911
   168   1 h    0.887 --   166 o    0.846
   169   8 o    1.846 --   171 h    0.912   170 h    0.813
   170   1 h    0.878 --   169 o    0.813
   171   1 h    0.918 --   169 o    0.912
   172   8 o    1.833 --   174 h    0.862   173 h    0.853
   173   1 h    0.894 --   172 o    0.853
   174   1 h    0.899 --   172 o    0.862
   175   8 o    1.863 --   176 h    0.855   177 h    0.846
   176   1 h    0.889 --   175 o    0.855
   177   1 h    0.893 --   175 o    0.846
   178   8 o    1.856 --   180 h    0.844   179 h    0.799
   179   1 h    0.877 --   178 o    0.799
   180   1 h    0.896 --   178 o    0.844
   181   8 o    1.858 --   183 h    0.885   182 h    0.855
   182   1 h    0.893 --   181 o    0.855
   183   1 h    0.900 --   181 o    0.885
   184   8 o    1.858 --   186 h    0.807   185 h    0.789
   185   1 h    0.881 --   184 o    0.789
   186   1 h    0.889 --   184 o    0.807
   187   8 o    1.851 --   188 h    0.905   189 h    0.831
   188   1 h    0.913 --   187 o    0.905
   189   1 h    0.888 --   187 o    0.831
   190   8 o    1.873 --   192 h    0.914   191 h    0.772
   191   1 h    0.876 --   190 o    0.772
   192   1 h    0.918 --   190 o    0.914
   193   8 o    1.827 --   195 h    0.895   194 h    0.839
   194   1 h    0.893 --   193 o    0.839
   195   1 h    0.913 --   193 o    0.895
   196   8 o    1.874 --   198 h    0.868   197 h    0.837
   197   1 h    0.890 --   196 o    0.837
   198   1 h    0.899 --   196 o    0.868
   199   8 o    1.834 --   201 h    0.860   200 h    0.848
   200   1 h    0.899 --   199 o    0.848
   201   1 h    0.898 --   199 o    0.860
   202   8 o    1.878 --   204 h    0.877   203 h    0.869
   203   1 h    0.898 --   202 o    0.869
   204   1 h    0.895 --   202 o    0.877
   205   8 o    1.852 --   206 h    0.863   207 h    0.821
   206   1 h    0.896 --   205 o    0.863
   207   1 h    0.888 --   205 o    0.821
   208   8 o    1.839 --   209 h    0.880   210 h    0.880
   209   1 h    0.899 --   208 o    0.880
   210   1 h    0.900 --   208 o    0.880
   211   8 o    1.853 --   212 h    0.841   213 h    0.833
   212   1 h    0.893 --   211 o    0.841
   213   1 h    0.895 --   211 o    0.833
   214   8 o    1.829 --   216 h    0.859   215 h    0.849
   215   1 h    0.897 --   214 o    0.849
   216   1 h    0.900 --   214 o    0.859
   217   8 o    1.842 --   218 h    0.910   219 h    0.788
   218   1 h    0.920 --   217 o    0.910
   219   1 h    0.880 --   217 o    0.788
   220   8 o    1.844 --   222 h    0.911   221 h    0.859
   221   1 h    0.896 --   220 o    0.859
   222   1 h    0.913 --   220 o    0.911
   223   8 o    1.864 --   225 h    0.896   224 h    0.876
   224   1 h    0.895 --   223 o    0.876
   225   1 h    0.904 --   223 o    0.896
   226   8 o    1.843 --   228 h    0.889   227 h    0.836
   227   1 h    0.889 --   226 o    0.836
   228   1 h    0.903 --   226 o    0.889
   229   8 o    1.883 --   230 h    0.884   231 h    0.879
   230   1 h    0.898 --   229 o    0.884
   231   1 h    0.894 --   229 o    0.879
   232   8 o    1.852 --   233 h    0.884   234 h    0.820
   233   1 h    0.905 --   232 o    0.884
   234   1 h    0.883 --   232 o    0.820
   235   8 o    1.880 --   236 h    0.869   237 h    0.849
   236   1 h    0.898 --   235 o    0.869
   237   1 h    0.889 --   235 o    0.849
   238   8 o    1.845 --   240 h    0.894   239 h    0.849
   239   1 h    0.891 --   238 o    0.849
   240   1 h    0.907 --   238 o    0.894
   241   8 o    1.857 --   243 h    0.903   242 h    0.844
   242   1 h    0.888 --   241 o    0.844
   243   1 h    0.910 --   241 o    0.903
   244   8 o    1.853 --   245 h    0.902   246 h    0.843
   245   1 h    0.910 --   244 o    0.902
   246   1 h    0.886 --   244 o    0.843
   247   8 o    1.842 --   248 h    0.915   249 h    0.853
   248   1 h    0.918 --   247 o    0.915
   249   1 h    0.892 --   247 o    0.853
 ---------------------------------------------------------------------------

Topologies differ in total number of bonds
Writing topology from bond orders to xtbtopo.mol

molecular dipole:
                 x           y           z       tot (Debye)
 q only:        2.071      -0.054       1.982
   full:        1.665      -0.306       3.085       8.945
molecular quadrupole (traceless):
                xx          xy          yy          xz          yz          zz
 q only:       78.410     -26.447     -37.350       0.623     -12.688     -41.060
  q+dip:      107.064     -33.031     -48.118     -10.983     -12.738     -58.945
   full:      110.065     -33.075     -48.999     -11.407     -12.276     -61.066

           -------------------------------------------------
          |                Geometry Summary                 |
           -------------------------------------------------

      molecular mass/u    :     1485.2987331
   center of mass at/Å    :       -0.1542175       0.1627282      -0.0396013
  moments of inertia/u·Å² :        0.2275599E+05   0.4020753E+05   0.4149243E+05
rotational constants/cm⁻¹ :        0.7407998E-03   0.4192655E-03   0.4062821E-03

 * 169 selected distances

     #   Z          #   Z                                           value/Å
     1   1 h        2   6 c                                       1.1007997
     2   6 c        3   1 h                                       1.1007997
     2   6 c        4   6 c                                       1.5331690 (max)
     4   6 c        5   1 h                                       1.0910719
     4   6 c        6   1 h                                       1.0910719
     2   6 c        7   8 o                                       1.3972559
     7   8 o        8   1 h                                       0.9637272
     4   6 c        9   7 n                                       1.4891571
     9   7 n       10   1 h                                       1.0291184
     9   7 n       11   1 h                                       1.0291184
     9   7 n       12   1 h                                       1.0281299
    13   8 o       14   1 h                                       0.9759426
    13   8 o       15   1 h                                       0.9851766
    16   8 o       17   1 h                                       0.9692148
    16   8 o       18   1 h                                       0.9705680
    19   8 o       20   1 h                                       0.9695202
    19   8 o       21   1 h                                       0.9883703
    22   8 o       23   1 h                                       0.9627181
    22   8 o       24   1 h                                       0.9884518
    25   8 o       26   1 h                                       0.9734810
    25   8 o       27   1 h                                       0.9834120
    28   8 o       29   1 h                                       0.9754295
    28   8 o       30   1 h                                       0.9823047
    31   8 o       32   1 h                                       0.9717702
    31   8 o       33   1 h                                       0.9872560
    34   8 o       35   1 h                                       0.9751419
    34   8 o       36   1 h                                       0.9757870
    37   8 o       38   1 h                                       0.9654884
    37   8 o       39   1 h                                       0.9854538
    40   8 o       41   1 h                                       0.9813858
    40   8 o       42   1 h                                       0.9763541
    43   8 o       44   1 h                                       0.9801893
    43   8 o       45   1 h                                       0.9834603
    46   8 o       47   1 h                                       0.9740960
    46   8 o       48   1 h                                       0.9702921
    49   8 o       50   1 h                                       0.9709597
    49   8 o       51   1 h                                       0.9709810
    52   8 o       53   1 h                                       0.9728804
    52   8 o       54   1 h                                       0.9796388
    55   8 o       56   1 h                                       0.9728487
    55   8 o       57   1 h                                       0.9701273
    58   8 o       59   1 h                                       0.9719787
    58   8 o       60   1 h                                       0.9863318
    61   8 o       62   1 h                                       0.9742654
    61   8 o       63   1 h                                       0.9772531
    64   8 o       65   1 h                                       0.9669452
    64   8 o       66   1 h                                       0.9678301
    67   8 o       68   1 h                                       0.9773736
    67   8 o       69   1 h                                       0.9752229
    70   8 o       71   1 h                                       0.9757154
    70   8 o       72   1 h                                       0.9827796
    73   8 o       74   1 h                                       0.9875180
    73   8 o       75   1 h                                       0.9596675
    76   8 o       77   1 h                                       0.9810725
    76   8 o       78   1 h                                       0.9763131
    79   8 o       80   1 h                                       0.9723439
    79   8 o       81   1 h                                       0.9810842
    82   8 o       83   1 h                                       0.9768169
    82   8 o       84   1 h                                       0.9759973
    85   8 o       86   1 h                                       0.9705228
    85   8 o       87   1 h                                       0.9722027
    88   8 o       89   1 h                                       0.9785045
    88   8 o       90   1 h                                       0.9752248
    91   8 o       92   1 h                                       0.9859889
    91   8 o       93   1 h                                       0.9741096
    94   8 o       95   1 h                                       0.9817572
    94   8 o       96   1 h                                       0.9894911
    97   8 o       98   1 h                                       0.9880669
    97   8 o       99   1 h                                       0.9655458
   100   8 o      101   1 h                                       0.9886810
   100   8 o      102   1 h                                       0.9687312
   103   8 o      104   1 h                                       0.9821931
   103   8 o      105   1 h                                       0.9568619
   106   8 o      107   1 h                                       0.9632231
   106   8 o      108   1 h                                       0.9820978
   109   8 o      110   1 h                                       0.9715009
   109   8 o      111   1 h                                       0.9857559
   112   8 o      113   1 h                                       0.9838272
   112   8 o      114   1 h                                       0.9727892
   115   8 o      116   1 h                                       0.9681361
   115   8 o      117   1 h                                       0.9803039
   118   8 o      119   1 h                                       0.9643204
   118   8 o      120   1 h                                       0.9667264
   121   8 o      122   1 h                                       0.9680189
   121   8 o      123   1 h                                       0.9752729
   124   8 o      125   1 h                                       0.9619960
   124   8 o      126   1 h                                       0.9792154
   127   8 o      128   1 h                                       0.9879354
   127   8 o      129   1 h                                       0.9627920
   130   8 o      131   1 h                                       0.9567654
   130   8 o      132   1 h                                       0.9873464
   133   8 o      134   1 h                                       0.9838357
   133   8 o      135   1 h                                       0.9752279
   136   8 o      137   1 h                                       0.9624205
   136   8 o      138   1 h                                       0.9807231
   139   8 o      140   1 h                                       0.9583628
   139   8 o      141   1 h                                       0.9799089
   142   8 o      143   1 h                                       0.9750104
   142   8 o      144   1 h                                       0.9623737
   145   8 o      146   1 h                                       0.9777234
   145   8 o      147   1 h                                       0.9685024
   148   8 o      149   1 h                                       0.9694493
   148   8 o      150   1 h                                       0.9959712
   151   8 o      152   1 h                                       0.9660710
   151   8 o      153   1 h                                       0.9692448
   154   8 o      155   1 h                                       0.9709449
   154   8 o      156   1 h                                       0.9791590
   157   8 o      158   1 h                                       0.9722299
   157   8 o      159   1 h                                       0.9733966
   160   8 o      161   1 h                                       0.9857549
   160   8 o      162   1 h                                       0.9735334
   163   8 o      164   1 h                                       0.9701295
   163   8 o      165   1 h                                       0.9580960
   166   8 o      167   1 h                                       0.9582990
   166   8 o      168   1 h                                       0.9720272
   169   8 o      170   1 h                                       0.9835170
   169   8 o      171   1 h                                       0.9569039
   172   8 o      173   1 h                                       0.9715921
   172   8 o      174   1 h                                       0.9691818
   175   8 o      176   1 h                                       0.9699400
   175   8 o      177   1 h                                       0.9750397
   178   8 o      179   1 h                                       0.9879083
   178   8 o      180   1 h                                       0.9740153
   181   8 o      182   1 h                                       0.9688697
   181   8 o      183   1 h                                       0.9624116
   184   8 o      185   1 h                                       0.9934984
   184   8 o      186   1 h                                       0.9860392
   187   8 o      188   1 h                                       0.9578734
   187   8 o      189   1 h                                       0.9772975
   190   8 o      191   1 h                                       1.0003297
   190   8 o      192   1 h                                       0.9573480
   193   8 o      194   1 h                                       0.9752281
   193   8 o      195   1 h                                       0.9595523
   196   8 o      197   1 h                                       0.9749891
   196   8 o      198   1 h                                       0.9656985
   199   8 o      200   1 h                                       0.9691226
   199   8 o      201   1 h                                       0.9680716
   202   8 o      203   1 h                                       0.9664046
   202   8 o      204   1 h                                       0.9652853
   205   8 o      206   1 h                                       0.9678601
   205   8 o      207   1 h                                       0.9817454
   208   8 o      209   1 h                                       0.9634748
   208   8 o      210   1 h                                       0.9619342
   211   8 o      212   1 h                                       0.9763030
   211   8 o      213   1 h                                       0.9757372
   214   8 o      215   1 h                                       0.9724851
   214   8 o      216   1 h                                       0.9701445
   217   8 o      218   1 h                                       0.9570609
   217   8 o      219   1 h                                       0.9964015
   220   8 o      221   1 h                                       0.9687216
   220   8 o      222   1 h                                       0.9586779
   223   8 o      224   1 h                                       0.9636167
   223   8 o      225   1 h                                       0.9591612
   226   8 o      227   1 h                                       0.9755302
   226   8 o      228   1 h                                       0.9611675
   229   8 o      230   1 h                                       0.9608353
   229   8 o      231   1 h                                       0.9631787
   232   8 o      233   1 h                                       0.9608980
   232   8 o      234   1 h                                       0.9810664
   235   8 o      236   1 h                                       0.9666307
   235   8 o      237   1 h                                       0.9723525
   238   8 o      239   1 h                                       0.9730635
   238   8 o      240   1 h                                       0.9614024
   241   8 o      242   1 h                                       0.9734136
   241   8 o      243   1 h                                       0.9588751
   244   8 o      245   1 h                                       0.9586953
   244   8 o      246   1 h                                       0.9719996
   247   8 o      248   1 h                                       0.9563584 (min)
   247   8 o      249   1 h                                       0.9698545

 * 6 distinct bonds (by element types)

   Z      Z             #   av. dist./Å        max./Å        min./Å
   1 H    6 C           4     1.0959358     1.1007997     1.0910719
   6 C    6 C           1     1.5331690     1.5331690     1.5331690
   1 H    7 N           3     1.0287889     1.0291184     1.0281299
   6 C    7 N           1     1.4891571     1.4891571     1.4891571
   1 H    8 O         159     0.9731321     1.0003297     0.9563584
   6 C    8 O           1     1.3972559     1.3972559     1.3972559


optimized geometry written to: xtbopt.coord


           -------------------------------------------------
          | TOTAL ENERGY             -417.080251002670 Eh   |
          | GRADIENT NORM               0.000797839136 Eh/α |
          | HOMO-LUMO GAP               8.349551444754 eV   |
           -------------------------------------------------

------------------------------------------------------------------------
 * finished run on 2022/10/27 at 18:51:16.913     
------------------------------------------------------------------------
 total:
 * wall-time:     0 d,  0 h,  0 min, 27.517 sec
 *  cpu-time:     0 d,  0 h, 10 min,  4.169 sec
 * ratio c/w:    21.956 speedup
 SCF:
 * wall-time:     0 d,  0 h,  0 min,  0.548 sec
 *  cpu-time:     0 d,  0 h,  0 min, 13.267 sec
 * ratio c/w:    24.218 speedup
 ANC optimizer:
 * wall-time:     0 d,  0 h,  0 min, 26.841 sec
 *  cpu-time:     0 d,  0 h,  9 min, 48.975 sec
 * ratio c/w:    21.943 speedup

