249
 energy: -417.071039220309 gnorm: 0.038924736600 xtb: 6.5.1 (579679a)
h           -0.54250542236797       -1.15979968229693        0.91808737932248
c           -0.61125101759018       -0.54129568518002        0.01007491856516
h           -0.53913085048112       -1.19691447165356       -0.87124367816881
c            0.51036587524963        0.50378784395978       -0.00948718431969
h            0.39110985391412        1.15189243113058        0.86009664650292
h            0.39443993020508        1.11526701862859       -0.90564118187748
o           -1.78918255410482        0.21002581371452       -0.00773070428284
h           -2.56465822815856       -0.36207477160767        0.00267346015181
n            1.86374215708766       -0.11727809751930        0.00594752124796
h            1.98712725504032       -0.72370378915711       -0.81631063896512
h            1.98397883783241       -0.68907633486971        0.85310417715149
h            2.59308294212117        0.60724004436224       -0.00770513818500
o            3.62541497384446       -0.09821995558763       -2.97446299593809
h            3.96012389029130       -0.29610558242845       -2.07922822999507
h            2.64511873819386       -0.18438341529357       -2.91488418686563
o            1.01840455281558       -0.45042154821136       -2.77083880152988
h            0.80600864282062       -1.34279900291883       -2.45790286916308
h            0.49603935917872       -0.33069318641902       -3.58068546399446
o           -0.61510791833207       -0.68050949976431       -4.91913716661673
h           -1.23949186940381       -0.89554030101421       -4.21035271557569
h           -1.03274294428511        0.07891017397876       -5.39387275857251
o           -2.17015674955899       -1.20612111399941       -2.67253581115009
h           -2.54471878780840       -1.62841548592026       -1.89334746564063
h           -2.22086782725457       -0.22766743667758       -2.52942452882746
o            2.14837682888013       -1.98775050528259        1.93339183742556
h            1.78424424076332       -2.72441894163636        1.41136437735796
h            1.55801978505132       -1.80840292742177        2.69941641625587
o           -0.60757842223069        1.64559868332593        3.08917560499542
h           -0.52694580081175        2.53418302038602        2.69464924159832
h            0.31108724843822        1.29960790712637        3.07460134434771
o            1.14848028994726       -4.00052949564236        0.35570971409839
h            2.02644318259248       -4.36029498396440        0.14605469714953
h            0.84367675562628       -3.57173316202510       -0.47938606652377
o            1.31828333979368        3.23137315850280       -1.12503791622239
h            2.13746888149218        2.85507729511422       -0.75399756404658
h            1.38440922175877        3.11089012168087       -2.09187616812198
o           -1.08768122928810        3.32116802917173       -3.89047008645375
h           -1.49961611107017        4.08940049099769       -3.47438118355734
h           -1.48553709347636        2.55447047670391       -3.41593169217976
o            0.08727534410264       -3.01175628087808       -1.89216768795012
h           -0.83159613704692       -3.17663143198156       -1.59112207838050
h            0.09238623532871       -3.28229631267802       -2.82989692465045
o           -2.50772631744075        1.36439464291571       -2.80460305589706
h           -2.98100113183145        1.76411802933009       -2.04260714429309
h           -3.17366012205689        1.29812032136441       -3.52527307583529
o           -1.27614487070309        3.10653445588477       -0.30774323334859
h           -1.83276448106132        3.61448726095847       -0.92399800967440
h           -0.40097754359839        3.06206538341064       -0.72268585665148
o            4.57081481983316       -0.77431523616148        2.02023824766819
h            5.21957599894331       -1.11227843650634        2.65873282363080
h            3.74814224105815       -1.28007674893835        2.12153329137059
o           -4.02914543108796        2.32261728211413       -0.87198412589971
h           -4.85256348929337        1.80616103032949       -0.87500766311950
h           -3.55874712122994        2.04633900544647       -0.05910621911651
o            1.93406384456324        1.00044579338169        2.55675378449215
h            2.59018487339012        0.74219936824110        3.22667069353910
h            2.17334476016355        1.90521036614030        2.30115547490535
o           -3.98534063015172       -1.33445163239329       -0.19348199374946
h           -4.54058839053750       -1.11257062307920        0.56888240532100
h           -4.53494956926062       -1.14386559107562       -0.99179747258373
o           -3.09808391336861        1.85884991094122        1.59142911435171
h           -2.28146369373231        1.46980558933580        1.23250977255120
h           -2.92858697629455        2.78974973057531        1.83790350528471
o            2.69326736072681       -2.23788150527601       -1.49735365068011
h            3.11504626429523       -2.86619348568295       -0.89543205892434
h            2.61131374912973       -2.70174942623946       -2.34291802263107
o            4.92793425860080       -0.52483799530697       -0.61440552989720
h            4.84317836496401       -0.63649986764754        0.35290343955844
h            5.57317186143751        0.19638660238004       -0.73277522331504
o           -1.73138873496664       -0.76460444736203        3.05514150395291
h           -1.47706312836239        0.17463427699783        2.97287204148558
h           -2.44677841189484       -0.82341550650602        3.72605491710777
o            3.56875404550146        1.97596445057561       -0.29774938867558
h            4.00890817596524        2.06528983688835        0.58150169404983
h            4.27415927295618        2.02842432260860       -0.94685593045362
o            1.54496416466296        2.96227338416902       -3.77501185346572
h            0.60465010890216        3.18843443218641       -3.94069961989372
h            1.72784445239588        2.18478292960217       -4.33745578718362
o            5.27942860128997        1.89944102077541       -3.56381535885983
h            4.82247075368523        2.75134506933818       -3.45872462030962
h            4.58212307108428        1.21643034704339       -3.46899370085688
o           -2.35109720227230       -3.58690532931720       -0.98164000832639
h           -2.09865891589267       -4.50181005553527       -0.75088733383469
h           -2.52411583712008       -3.17161307154698       -0.11521307121090
o           -5.27980100795558       -3.82993455406967        0.15093535409650
h           -4.64587746666909       -3.10517990881065        0.02019213072670
h           -5.12207271118937       -4.43115468909067       -0.59724985768914
o           -2.46990116844973       -2.90112959394164        1.65479621367308
h           -1.79897054089667       -3.49509868063479        2.04756932883233
h           -2.25086372107140       -2.01862619461759        2.00921622959074
o           -5.58053215905461       -1.01504210352718       -2.27153100495405
h           -6.33564742079742       -1.55495106023641       -1.93559822092086
h           -5.91721708661774       -0.12116127575893       -2.46578573323153
o           -5.84592200993246       -0.93955414173078        1.85875801234981
h           -5.57301485045209       -0.21508708224460        2.46665543255070
h           -5.53807392879380       -1.78902125681997        2.26651898181927
o           -6.15943975674511        0.86328708440683       -0.17119592841686
h           -7.01923542057621        0.81485012650036       -0.64853828823061
h           -6.12104754880726        0.09091498226523        0.40633545840153
o            6.38275949332639        1.71667764613170       -1.18770984790762
h            6.09103080349218        1.83800253987526       -2.12473067097353
h            7.26696274409248        1.32339962371865       -1.23935379681614
o            3.78467185776908        4.09551659453006       -2.85374011083863
h            2.94897132560323        3.74982752160199       -3.23599930437341
h            3.97241617995082        4.91648988486260       -3.30788407700430
o            4.91943955488906       -2.31490264353023       -3.81590533237157
h            4.25793923656114       -2.95273828175379       -4.10476128417233
h            4.40542320547752       -1.52221384287354       -3.54901418293302
o            5.77621180189982       -2.97417702826481       -1.28191130486782
h            5.67020654563485       -2.97255611011477       -2.24772818946245
h            5.49749022245889       -2.06395047121254       -1.02643877526993
o            3.80713480848503       -4.31903514899247       -0.08402872590381
h            4.60089270874281       -4.01042430912479       -0.57629388863306
h            4.02019069001859       -4.17818353176065        0.85471067580251
o            6.78080998529653       -2.94765507782500        1.32770490791936
h            6.67100349858371       -3.17926429503731        0.39394967195076
h            6.97102005764931       -1.98611381203445        1.30894555565972
o            7.03548985616812       -0.44931213681429       -3.68180928431281
h            6.54406584576104        0.34866510175189       -3.90914787652087
h            6.44162624286468       -1.19592424624543       -3.83794778942622
o            2.70590645135419        3.63988803690194        2.16671157147885
h            3.56688186267512        3.27726508524505        2.41988301499059
h            2.89056589082195        4.14614168353295        1.35413567726751
o            4.74966444174009        1.88981628766830        2.04869063412858
h            5.69118167158913        2.08179414375729        2.01560340189827
h            4.66510842428486        0.92228406363333        2.17267317652586
o           -4.84653321305305       -3.15790843441857        2.82700793341840
h           -3.94317597346370       -3.12300036545738        2.42848134769251
h           -5.30597994212676       -3.80888723582244        2.28405792439205
o            8.47161743802821        0.00225913959032       -1.49793462482589
h            9.39679469949310       -0.04697577064181       -1.73682671896237
h            7.96663587827882       -0.29039785715786       -2.29433661843821
o           -4.11930693062283       -1.73138128526755       -4.38236379991697
h           -3.33507917828138       -1.47541822071492       -3.84670423271417
h           -4.84950130777743       -1.66305372060686       -3.73932503977649
o           -7.33401557087152       -2.57448847544676       -1.09230603305894
h           -7.87216750984323       -2.12086953813214       -0.42895144630326
h           -6.69819657456096       -3.12991868521529       -0.59293647848894
o           -2.56204761560062        4.79174248693617       -2.03187167358879
h           -3.51612323798433        4.87513651549925       -2.05782069818137
h           -2.22675655810822        5.49042239491447       -1.43006361702270
o           -6.51303650103958        1.44276711304429       -3.04009713094848
h           -6.45785910095895        2.29533145564584       -2.56225363948150
h           -7.44987754232200        1.22675558958504       -3.05061610607298
o           -4.32367845736169        0.98611300731120       -4.73125977404784
h           -4.34986680073232        0.01565054854811       -4.83989021326941
h           -5.16348853754660        1.23979866127510       -4.31933013606532
o           -0.38039463290819        4.07968344769879        1.93457062691626
h            0.36508252412850        4.63802590829738        1.66411065400846
h           -0.73190968459559        3.72334215505923        1.07390645486610
o           -1.78543731845252        1.47393373255262       -5.89994825322023
h           -2.73566516949293        1.41169637802717       -5.73762328848037
h           -1.47878891930241        2.25532146745763       -5.41600734541874
o           -0.17633413644050       -3.42141556067106       -4.55168537230792
h           -0.30111445996350       -2.53664593505729       -4.92995848171291
h           -1.07426543623286       -3.79736934179143       -4.44742263488105
o           -8.60601446645899        0.71288233616106       -1.15958738061693
h           -8.89039527737514        0.00268171355096       -0.57193283183778
h           -8.86370627415140        1.54475105848279       -0.72456752327696
o            0.60234926011600       -1.58224890840336        4.04603858652042
h           -0.28748889602779       -1.34045968773585        3.69708543999531
h            0.87296298860891       -0.78922204947850        4.54203302210365
o           -1.09864332677096       -5.70086957079022        0.10497786716043
h           -0.23702403390966       -5.26496737963199        0.19731454619377
h           -1.36674951269712       -5.96991562832891        0.98465445584647
o            2.47260904089872       -3.76836219808218       -3.84708085007937
h            2.55944879814183       -4.69978306656783       -3.63924477136141
h            1.60242140113198       -3.66330127982987       -4.26697621132246
o            1.10836159626924        0.79271051395444        5.45107459986510
h            1.13977315245542        1.69930391904382        5.07000187391989
h            0.52827520508799        0.84861057976859        6.20999950125475
o            3.78250239327071        4.86094136121604       -0.07253525907016
h            4.70026634972305        4.68563472318058        0.19428869557420
h            3.73472398930324        4.57526956331970       -0.99746995815788
o           -2.73169715966108       -4.03802571296392       -3.76776459953798
h           -2.61115123334504       -3.78597915404805       -2.83926767738085
h           -3.27143064538609       -3.33540808135041       -4.17594606286825
o           -4.96037984989055        1.12376068434072        3.29670149714171
h           -4.20138283820820        1.31709661080381        2.69641967093430
h           -5.62328629368786        1.78985127364282        3.03670055166360
o           -0.33436921747796       -4.11786710705657        2.73253699748325
h            0.28114276291635       -4.12717839539235        1.98452313778180
h            0.00549582119001       -3.49523005602288        3.38318882811768
o           -6.44780068389186        2.74419872160130        1.69108430140630
h           -6.27244272556097        2.04819876007398        1.01455885597236
h           -5.92149727932113        3.51286958368602        1.38174190790607
o           -8.72678148745461        2.98826995245685        0.34197679987242
h           -9.47733919452017        3.29736500888008        0.84495203560765
h           -7.96398397682511        2.93991603344314        0.96848716694680
o            4.63736106995936       -3.88298836314750        2.48021900389264
h            5.45002661886236       -3.46767405477933        2.07071566268523
h            4.90616922342024       -4.74531449054351        2.79737119736796
o            6.29820598237088        3.89430944359735        0.45367204150982
h            6.36908390439511        3.15664064083632       -0.17995441350439
h            6.85186416970432        3.65401651249115        1.20021895064744
o            3.67013824749554        0.30624762778746        4.56418878354787
h            3.70375027807683       -0.66778905664463        4.58756787027869
h            2.99626080231560        0.56699879199543        5.20493143550184
o            7.31563280727715       -0.34765792024543        1.01416029890942
h            7.46448572706705        0.48285328850247        1.49078915438915
h            7.80313297144831       -0.29061997223714        0.17996291850350
o           -3.85031695887912       -1.05629739129998        4.62231871015460
h           -4.42432264912424       -0.31457404661451        4.38653595032981
h           -4.29095468159793       -1.86491701547855        4.33645417307650
o           -4.82690880317332        4.51288671270759        0.46228130481102
h           -4.19682092573121        4.71084205824166        1.16899225484418
h           -4.40710207942209        3.81687402358145       -0.08849706788945
o           -6.76302553644644        3.70676019819747       -1.56657506575754
h           -7.57871163526914        3.56682973267982       -1.06745667416444
h           -6.18310104665027        4.21217564910670       -0.98744212058813
o           -2.93340441804730        4.41752750145459        2.52470586426500
h           -3.03650657828183        4.03714047964614        3.41669839760872
h           -1.96881745383886        4.51699713342613        2.40814287977949
o           -8.43619426991466       -1.12744269999915        1.03755614733845
h           -7.55139331050376       -1.06420291096623        1.45187008539985
h           -9.01117203816996       -1.55989808757715        1.66825763922389
o            7.54087154138021        2.04248024830489        2.44514707714647
h            8.41479030640057        2.34985123408764        2.68492485340070
h            7.13634638661074        1.68517179455495        3.28286960102488
o           -5.00320879701709       -4.91274337481029       -2.31847082979921
h           -4.23921184979862       -4.88120076113659       -2.91391669105543
h           -5.74991675713984       -4.54175698982934       -2.79169384669464
o            1.94499444144915        0.78302885635304       -5.34197966988661
h            1.15479677946153        0.26130999865665       -5.51919396514554
h            2.64236616934898        0.17997874210228       -5.07571481829016
o            3.51220830744778       -2.43650201974839        4.53161229927009
h            3.73578006050530       -2.94413314695190        3.72937799929951
h            2.55811560926532       -2.48959979012247        4.63493545748447
o            6.27832027171609       -1.77615506421342        3.95988868961316
h            6.83992273121226       -2.42135036765396        3.52207819853199
h            5.62866425598917       -2.24026753945433        4.49840493455125
o            1.11046971327366        5.55225935587752        0.21429430011840
h            2.00128541312652        5.91280378792734        0.22573059325762
h            1.16920490372476        4.75639569511552       -0.35762412342092
o            6.36947491175876        0.94403816211480        4.51229709956234
h            6.57549261664507        0.00288494543255        4.43365067795887
h            5.39797728669166        0.97808593355624        4.54136232916593
o           -2.71257418893523        2.68364754341881        4.59808188670369
h           -1.95616128321318        2.20704479793690        4.21818501464917
h           -3.46148399215354        2.08034644799157        4.58020214566249
o           -1.52192538780013        6.29267624718394       -0.09292403237864
h           -0.56278280258660        6.14898746621493       -0.00965298230433
h           -1.90594683787177        6.13111477947320        0.77097131207128
o            1.24303533397508        3.33108484275167        4.51070870570945
h            0.42310876314503        3.82192910651254        4.43280185663757
h            1.76480330636687        3.54638061947737        3.71960731690568
o           -8.00500035421978        0.22556285707307        3.80623097296900
h           -7.73634908674420        0.03058398266236        4.70617459967500
h           -8.54344630766416        1.01883069117580        3.83607883269964
249
 energy: -417.072539197541 gnorm: 0.038469921808 xtb: 6.5.1 (579679a)
h           -0.54250542236797       -1.15979968229693        0.91808737932248
c           -0.61125101759018       -0.54129568518002        0.01007491856516
h           -0.53913085048111       -1.19691447165356       -0.87124367816881
c            0.51036587524963        0.50378784395978       -0.00948718431969
h            0.39110985391412        1.15189243113058        0.86009664650292
h            0.39443993020508        1.11526701862859       -0.90564118187748
o           -1.78918255410482        0.21002581371452       -0.00773070428284
h           -2.56465822815856       -0.36207477160767        0.00267346015181
n            1.86374215708766       -0.11727809751930        0.00594752124796
h            1.98712725504032       -0.72370378915711       -0.81631063896512
h            1.98397883783241       -0.68907633486971        0.85310417715149
h            2.59308294212117        0.60724004436224       -0.00770513818500
o            3.62541393289210       -0.09823838413018       -2.97473667672609
h            3.95968551566750       -0.29581801620896       -2.07928647153763
h            2.64505136138577       -0.18465483498140       -2.91559137869257
o            1.01892900909006       -0.45068874283251       -2.77144970658697
h            0.80513100719543       -1.34233121186833       -2.45729954174080
h            0.49491886499778       -0.33040026926242       -3.58016345573020
o           -0.61565439729439       -0.68018534036324       -4.91880550987037
h           -1.23981968567551       -0.89553220935798       -4.20978835269738
h           -1.03393322602808        0.07890052081552       -5.39347290677500
o           -2.16982888915549       -1.20584206143764       -2.67178084863633
h           -2.54716852935935       -1.62811715139719       -1.89378211171816
h           -2.22253411773860       -0.22746606953977       -2.52905689069328
o            2.14882592438649       -1.98784823837227        1.93379818380025
h            1.78421573176071       -2.72376397513534        1.41101647832741
h            1.55777836287447       -1.80830677525798        2.69926400779358
o           -0.60748822244336        1.64623378958938        3.09152515541936
h           -0.52726092563212        2.53378269568761        2.69460499287158
h            0.31053086517674        1.29876307770572        3.07391044663504
o            1.14888969056336       -4.00009042122047        0.35566422549478
h            2.02636450303123       -4.36035079314511        0.14511432758305
h            0.84315253655490       -3.57151791893362       -0.47925330703698
o            1.31853417343649        3.23224940567729       -1.12561586447120
h            2.13701590696870        2.85468789499590       -0.75442246266991
h            1.38410820058968        3.11076606411316       -2.09235669587895
o           -1.08795602580931        3.32087977038671       -3.88991666671401
h           -1.50010375520062        4.08902555271112       -3.47392792937151
h           -1.48652792934526        2.55410586125152       -3.41585317946719
o            0.08798110490692       -3.01198077622277       -1.89233122190656
h           -0.83088537697485       -3.17546783626711       -1.59014852590570
h            0.09154810119680       -3.28274167336282       -2.82997871857408
o           -2.50868308649276        1.36521322611572       -2.80440741125760
h           -2.98267416190550        1.76237478566248       -2.04127667217764
h           -3.17526479555020        1.29767951305461       -3.52436080017113
o           -1.27553562431707        3.10781105366632       -0.30694469460227
h           -1.83308018043553        3.61396593567326       -0.92379753909609
h           -0.40103456324204        3.06183759232685       -0.72300581469176
o            4.57101246667523       -0.77416110970631        2.02004740602165
h            5.21972371243012       -1.11245297255778        2.65839265599629
h            3.74827836765288       -1.27995282016162        2.12101540684772
o           -4.03070533546089        2.32135234804650       -0.87124964082050
h           -4.85442652490592        1.80464535678244       -0.87286182656348
h           -3.56022130841913        2.04495662117445       -0.05856000029461
o            1.93451429301866        1.00080401846948        2.55677163419109
h            2.59114131279427        0.74289122253393        3.22626788807071
h            2.17344305595882        1.90548872331446        2.30054401933557
o           -3.98167608906935       -1.33431207998992       -0.19560383906516
h           -4.53393501313304       -1.11560123568719        0.57075592951481
h           -4.53655698777660       -1.14240010045332       -0.98981857116893
o           -3.09567932864113        1.86111058566074        1.59106792143343
h           -2.27977017147675        1.47208722701316        1.23089359356432
h           -2.92719378798799        2.79208564295939        1.83670816635862
o            2.69487985093741       -2.23744951735834       -1.49812022983774
h            3.11451723816034       -2.86675503612907       -0.89575936512934
h            2.61023150427852       -2.70201169334845       -2.34304429442360
o            4.92818338577260       -0.52502917785496       -0.61477097192472
h            4.84302057505980       -0.63662666920765        0.35249204138994
h            5.57310098950429        0.19648988275035       -0.73294905624118
o           -1.73153422843565       -0.76563442993752        3.05946644615028
h           -1.47927094945867        0.17386190920919        2.97434162682205
h           -2.45103797179166       -0.82346952583680        3.72648262300873
o            3.56887685025304        1.97627897431876       -0.29830904975218
h            4.00936223849134        2.06554702020583        0.58078178923782
h            4.27395412340606        2.02856110854310       -0.94771136813962
o            1.54487609345521        2.96244552830051       -3.77569828130405
h            0.60417502859894        3.18789501459340       -3.94037134239589
h            1.72734778893208        2.18431646678856       -4.33741777258124
o            5.27931416926867        1.89943140070107       -3.56368854329828
h            4.82213893191321        2.75125377831918       -3.45873900234603
h            4.58205753886153        1.21630647974598       -3.46904091138557
o           -2.34902251230967       -3.58655473306645       -0.98208736372125
h           -2.09980545786181       -4.50195966317450       -0.75013792862084
h           -2.52712365827123       -3.17136326340711       -0.11648991088213
o           -5.27508747249410       -3.83464344795703        0.15254566700926
h           -4.64819745939516       -3.10372496529533        0.02169144947343
h           -5.11797575467444       -4.43084088764131       -0.59947989024263
o           -2.46767633909356       -2.90092053135165        1.65305314574636
h           -1.79807010684887       -3.49420994997138        2.04866240212122
h           -2.25335905962809       -2.01844947853259        2.01041904551061
o           -5.58139208922105       -1.01594484668134       -2.27251232058080
h           -6.33513579094720       -1.55448702279118       -1.93025663025723
h           -5.91822013483536       -0.12141324557138       -2.46328162066010
o           -5.82394954509162       -0.93574149131796        1.84331474274295
h           -5.60351296723214       -0.21004866323212        2.47299124062885
h           -5.54297063214027       -1.78287863484002        2.27289823612638
o           -6.16124260973674        0.86894731451666       -0.16888928823370
h           -7.02221839804555        0.82083453117889       -0.64348723068643
h           -6.12999082495168        0.10230733288715        0.41754148518369
o            6.38329591862473        1.71670906376987       -1.18788285568789
h            6.09107596752264        1.83777299806732       -2.12482344199063
h            7.26734166916145        1.32313717392041       -1.23982068970788
o            3.78446090157640        4.09612683909448       -2.85451198262770
h            2.94865676978923        3.74990791208647       -3.23623718096619
h            3.97173769286361        4.91696613538697       -3.30918174804022
o            4.91917231515153       -2.31496764437260       -3.81618401166516
h            4.25754610195119       -2.95268885312903       -4.10505141768669
h            4.40520862954875       -1.52217883752798       -3.54942089526775
o            5.77669004816558       -2.97412152543623       -1.28232968421948
h            5.66978041903366       -2.97274470666197       -2.24804447408625
h            5.49744647303757       -2.06408633617346       -1.02675116403803
o            3.80749992934824       -4.31955209536830       -0.08429677324164
h            4.60093084341378       -4.01026678070066       -0.57659864582588
h            4.02009208908792       -4.17784497263310        0.85440998169862
o            6.78103243614751       -2.94799321656893        1.32736763178770
h            6.67078432320106       -3.17951534975764        0.39363574646432
h            6.97079323584778       -1.98637083560227        1.30860526392908
o            7.03527407063764       -0.44953801269685       -3.68235353765566
h            6.54376116139605        0.34851348199486       -3.90926937520141
h            6.44117694764099       -1.19604553790268       -3.83825046096439
o            2.70666040408293        3.64072496573460        2.16691429543108
h            3.56749171502173        3.27719780599526        2.41902207008420
h            2.89059787722769        4.14572668991402        1.35329471390825
o            4.75022329982830        1.88989442372242        2.04847019283924
h            5.69197669617718        2.08133185419970        2.01446096378344
h            4.66509744174257        0.92225331249031        2.17205925459176
o           -4.84360921285413       -3.16283461515815        2.83446665721805
h           -3.94549778700222       -3.12506353557515        2.42517324904897
h           -5.31304894156868       -3.80194574131012        2.28597655116014
o            8.47170257298561        0.00168019472952       -1.49854473773001
h            9.39676685300638       -0.04803671996414       -1.73774231384675
h            7.96627766020899       -0.29079515888563       -2.29476326783954
o           -4.11972928900956       -1.73131584346650       -4.38147048952216