612
 energy: -1033.453354032832 gnorm: 0.000506253565 xtb: 6.5.1 (579679a)
H           -1.21243721280000        0.09144254870000       -1.33032290720000
C           -0.55807251960000        0.67725108460000       -0.68743928720000
H            0.44262208740000        0.25178752030000       -0.72690354220000
C           -1.03398565090000        0.62079840610000        0.75097381990000
H           -0.45875608750000        1.32552340590000        1.34053834980000
H           -0.83863003160000       -0.38510460890000        1.09620921730000
O           -0.51255639970000        2.01738656030000       -1.15451423720000
H           -0.04148339270000        1.99772179930000       -2.02214467640000
N           -2.47656921780000        0.89924443770000        0.90831566800000
H           -2.98296270190000       -0.00933917930000        1.00279602190000
H           -2.84604127220000        1.38040479250000        0.05994246020000
H           -2.65640474480000        1.42304444290000        1.78901489630000
O            3.74482987680000        4.63931308750000        3.62877560490000
H            2.88379307360000        4.37908882860000        3.22009168800000
H            4.35554951310000        4.38343705990000        2.89877969740000
O            3.47236280510000        3.58225327140000       -3.52278246300000
H            3.04027255020000        3.75933029300000       -4.37430196930000
H            3.93271210530000        2.73649590430000       -3.56433665320000
O            7.58547986110000        2.31193372030000       -0.49101454870000
H            7.45402606650000        1.87072586380000        0.36906589690000
H            6.74083399700000        2.77093618710000       -0.70005544790000
O           -0.63680686660000        2.94112791660000        3.13832184220000
H           -0.84540674920000        2.00993482260000        3.32025476610000
H            0.06937387180000        3.14320923690000        3.78301254470000
O           -6.21464125390000        2.58651069520000       -0.16878262440000
H           -6.93462238760000        2.52644433030000       -0.81672152620000
H           -5.88415994290000        1.67159596610000       -0.13265637140000
O           -3.55021754900000       -4.24909985210000       -5.29600492360000
H           -3.60609311010000       -3.47834835440000       -5.88055787720000
H           -2.62027698460000       -4.51848098730000       -5.19565404490000
O            3.27272478020000        1.92421086710000        3.69858909390000
H            2.78095609900000        1.71420490700000        2.87875614470000
H            3.21588451360000        1.15392978580000        4.28647146490000
O            8.35268664800000        5.59407619270000       -2.28732615760000
H            8.46927775740000        5.46155074120000       -1.33276316280000
H            8.76653979350000        4.81702004580000       -2.69378921820000
O            1.45482880480000       -1.16674923730000        1.57579304030000
H            1.42993879380000       -0.20030289940000        1.60324323850000
H            2.17478359290000       -1.42232700000000        2.19951006520000
O           -4.41105668200000       -3.36413575080000       -2.92582647400000
H           -4.04578813230000       -3.70180851040000       -3.76710888610000
H           -4.84877027530000       -4.12146008670000       -2.48955404660000
O            0.08278508240000        4.88181817980000       -2.31010067390000
H            0.75188798730000        4.24685875330000       -1.96744422480000
H            0.13271295850000        5.65684648480000       -1.71668875070000
O            5.28032071330000        3.52207668990000       -1.07811516250000
H            5.45849754050000        4.17612503080000       -1.78878875820000
H            4.99498264110000        2.72702897100000       -1.56123625730000
O           -5.28543240830000        0.48535074420000        2.29170163490000
H           -4.75042559070000       -0.25730914480000        2.60613746110000
H           -5.58813323980000        0.22222939290000        1.41040994220000
O            1.66905333540000        0.05904313990000        4.92202768710000
H            1.53343542090000       -0.24784431900000        5.83271205280000
H            0.78959668030000        0.20068472600000        4.51926184620000
O            1.23559846490000        3.06021252790000        4.99264367870000
H            1.52816265430000        3.86147254560000        5.46201180910000
H            2.02245036230000        2.65606944930000        4.56005132230000
O            4.52805204880000        1.12049946400000        1.11579896620000
H            5.33459292550000        0.79780919680000        0.64908281630000
H            4.56868833230000        0.64692085540000        1.96256106490000
O           -3.18093175410000       -6.38927655430000        3.93577397480000
H           -2.48348154220000       -6.10555168930000        4.55082885700000
H           -3.54178405380000       -5.55864549210000        3.56463001080000
O           -0.77629028130000       -2.17254374650000        2.65196195520000
H            0.04355025760000       -1.87260033270000        2.19775587880000
H           -0.91227964250000       -3.09061089480000        2.36421347940000
O           -0.80569354280000        0.28766334460000        3.88464534060000
H           -1.28570463380000        0.24518248890000        4.73730897570000
H           -0.98387401810000       -0.54121415580000        3.42659649260000
O           -1.78935346530000        0.17543668690000        6.34632114730000
H           -1.14353723170000        0.84641485970000        6.65310470330000
H           -2.67996960150000        0.54963817010000        6.50813320420000
O            6.77942529840000        3.20572069260000        6.76449416910000
H            7.00216039500000        4.13925500860000        6.74003811500000
H            5.81870608080000        3.18148853900000        6.61251716440000
O           -3.36014888070000        4.31838960270000       -0.09913614110000
H           -2.48570021860000        4.20052094300000        0.32558323120000
H           -3.22734408580000        3.99512827280000       -1.00801197790000
O           -5.55841629620000        1.96227799130000        4.64897696480000
H           -6.46801886240000        2.27844904930000        4.79606065550000
H           -5.57735084440000        1.39503917390000        3.85763121810000
O           -1.25910613890000       -2.18978876390000       -0.28118010090000
H           -1.48235558230000       -2.88190456320000        0.35377180350000
H           -0.58310806700000       -2.59435456550000       -0.83675798090000
O            2.11630525000000       -1.78531677870000       -0.99211843850000
H            1.89706276510000       -1.63679877660000       -0.05439563890000
H            2.26286772120000       -2.73433555800000       -1.12943793370000
O           10.40909759750000        1.99405775730000       -0.86922278710000
H           11.22475087310000        1.49043370820000       -1.11371950400000
H            9.83497044040000        1.32645278160000       -0.43450111250000
O           -3.08360565820000        1.83095060070000        3.39384331060000
H           -3.91074140620000        2.25356473200000        3.11768248160000
H           -3.32048722310000        0.95671391610000        3.75887692340000
O            2.68081771640000        1.00571823150000       -0.88259068730000
H            3.52452989070000        0.94770171110000       -0.40904269790000
H            2.81325082980000        0.70106286560000       -1.79943174870000
O           -1.06128632020000       -2.14043819010000        7.36394367940000
H           -1.40458473770000       -1.29973642710000        6.97531425610000
H           -1.83440206270000       -2.58547194320000        7.71773575400000
O           -2.40525017240000       -2.91749690470000        4.87267363080000
H           -2.90042269660000       -2.83250561430000        5.71369210320000
H           -1.82243307320000       -3.68795077800000        4.99225547240000
O           -1.37939807130000       -0.94779200210000       -7.40567841950000
H           -2.20040828170000       -0.53374518820000       -7.70825953000000
H           -0.65211238260000       -0.46094464850000       -7.81225314780000
O            3.88196579950000        6.77916450160000       -2.33650123780000
H            3.10168708500000        6.66857749650000       -2.90419428940000
H            3.63571668900000        6.45847106950000       -1.45810466340000
O            0.58527029500000        0.93961641060000       -7.38211778400000
H            1.36965496890000        1.53565484390000       -7.48468823140000
H            0.76345383290000        0.41082908560000       -6.57601540650000
O            4.68083604080000       -1.38141896190000       -1.65654259960000
H            3.72366054060000       -1.38687556330000       -1.44258533060000
H            5.02099129150000       -2.24166294890000       -1.35663428950000
O           -1.83924629420000       -4.35031650560000        1.37089593870000
H           -1.69717597120000       -5.31545243010000        1.45978974470000
H           -2.69417103920000       -4.19317252910000        1.82669003880000
O          -10.59032739900000       -1.47774288590000       -0.79050271640000
H          -11.08446160870000       -0.89085183350000       -1.38526522120000
H          -10.81177345290000       -1.19176370180000        0.10822381460000
O           -7.67180482410000       -1.90685455280000        1.17515334390000
H           -7.00217633630000       -2.05932697940000        1.86660604880000
H           -7.28134199540000       -2.19147122250000        0.31957530600000
O           -3.43067556950000       -1.49235017640000        1.63388170840000
H           -2.62301250210000       -1.84706578860000        2.02173172170000
H           -3.86181113620000       -2.20007231720000        1.12013537380000
O            0.50728600950000        1.77766552240000       -3.58713287630000
H            1.34551819860000        1.27983736480000       -3.55028404220000
H           -0.12794422070000        1.17101820270000       -4.01159480240000
O           -1.41117473550000        7.52612803900000       -2.81318650490000
H           -2.04997946340000        7.38614941420000       -2.09757342060000
H           -1.68184488160000        6.91328585710000       -3.51671489000000
O           -7.51453478840000       -0.07448807170000        3.99018085840000
H           -7.52316551770000        0.71545984520000        3.43047809360000
H           -8.41632809990000       -0.44782946580000        3.95013676850000
O            7.23995430620000        0.72152136900000        5.54110998700000
H            7.36711244260000        1.23788189830000        6.34201279510000
H            6.76233099230000        1.33746673640000        4.93665868480000
O           -2.61064518390000       -4.51549678560000       -1.27630243670000
H           -2.11518648580000       -4.58782783760000       -0.44583341590000
H           -2.62126198670000       -5.39804853880000       -1.68826656580000
O            1.66774897330000        1.64557556710000        1.60294506270000
H            1.54281012870000        2.60721995800000        1.71513140850000
H            2.05376928840000        1.51995272670000        0.72615805680000
O            5.07299644770000        3.68687176850000        1.55621621030000
H            5.03351693560000        3.97203776300000        0.62871585320000
H            4.85245666420000        2.72826121880000        1.50267673330000
O            0.80665142740000       -6.68464509580000        4.39011619320000
H            0.68765780460000       -6.85159568470000        3.43605423290000
H            1.73881702950000       -6.45517232190000        4.49003007160000
O           -5.95046781510000       -6.21341236530000        3.98848701240000
H           -5.91999533460000       -5.99186775520000        3.03136842000000
H           -5.14609906110000       -6.72017760900000        4.15158285000000
O            3.01533736890000       -5.62594472030000       -4.47703739530000
H            2.26208606270000       -5.06728732700000       -4.15490994470000
H            3.25387262590000       -5.20769643720000       -5.31111929530000
O            2.70758185860000        2.45094257810000       -7.43164838110000
H            2.49976719550000        3.31636742470000       -7.05112419460000
H            3.29707405280000        2.03742342470000       -6.76320127300000
O            2.09063903870000        3.52944427670000       -1.36478844240000
H            2.64359943060000        3.63084686060000       -2.18159153540000
H            2.21779323870000        2.59230074560000       -1.11404145160000
O            3.18359533890000       -2.39234487870000       -4.02638942920000
H            2.56897460740000       -2.78518039890000       -4.67211220780000
H            3.12571391750000       -2.96608297430000       -3.24320997140000
O           -3.31286332000000        2.28347777200000       -4.58453656180000
H           -2.58145681250000        1.69356841910000       -4.85900849060000
H           -2.97043066420000        2.80301846150000       -3.83300907850000
O           -0.58309170410000       -3.04298339840000       -5.87925077790000
H           -1.12988053280000       -2.47161812470000       -6.43649031680000
H           -0.94419594560000       -3.04045127750000       -4.97448565480000
O            6.22469852490000        5.16600538010000        4.85450956580000
H            5.32922515820000        5.36510469450000        4.56918401250000
H            6.78470451720000        5.25093685400000        4.06432398620000
O           -2.46391224770000        5.53513895790000       -4.49523695760000
H           -2.70112141990000        4.98194698370000       -3.73648466190000
H           -1.65153022060000        5.10495462580000       -4.82432801820000
O            5.41854097550000       -0.29459704660000        3.25665643470000
H            6.25156283260000        0.06830424970000        2.90840982800000
H            5.28438442830000        0.07310726680000        4.14379391920000
O           -2.08623891640000        2.92619857990000        5.70751034120000
H           -2.86916710460000        2.87682222150000        6.26030533750000
H           -2.34448543070000        2.56681312050000        4.83462999730000
O            4.02681621800000        3.35365906860000        6.15879581040000
H            3.45449601670000        3.90417160550000        6.69845404620000
H            3.94347388260000        3.69668750560000        5.24982250330000
O            0.37451599640000       -1.08015508020000       -2.97301415930000
H            1.04262715590000       -1.30126392320000       -2.30551524230000
H           -0.23463588620000       -1.83420315320000       -3.03534559590000
O           -1.40379007300000        0.45563094080000       -4.97311693220000
H           -1.98173743800000       -0.15234179670000       -4.46720467560000
H           -1.27330979660000        0.02145120130000       -5.83130727800000
O           -2.21865820430000        3.65983991510000       -2.48757911040000
H           -2.01146101540000        2.81008297700000       -2.06046937960000
H           -1.36391745610000        4.15196509550000       -2.46058771650000
O            0.34116699790000       -4.32664569410000       -0.99272610270000
H           -0.08061732310000       -5.19689160700000       -1.07246528460000
H            1.10432354880000       -4.51019785540000       -0.41417743340000
O            7.79667859620000       -4.63685349260000        2.99018690150000
H            8.11882058090000       -4.00906742870000        3.69089574790000
H            8.32091905380000       -5.42935411810000        3.10231046030000
O            3.27242266480000       -8.02170384360000        1.99432321120000
H            3.80042393970000       -7.83465088610000        1.20978554850000
H            3.51864844890000       -7.36261148200000        2.65543031520000
O           -6.64525857840000        5.01715525570000        3.49856658650000
H           -6.01679165580000        4.43671676930000        3.00651917450000
H           -7.14895058230000        4.42366389990000        4.08307009270000
O            8.76841323820000        3.22032467180000        4.50732929860000
H            8.17861157940000        3.17636794380000        5.26750283390000
H            8.31858248950000        3.75274104700000        3.82480976520000
O            9.32220177200000        3.10436126740000       -3.04725728590000
H            9.96136833230000        2.70194236680000       -3.64320619650000
H            9.58280333630000        2.76181338830000       -2.16381010580000
O            8.82095103860000        4.57066063660000        0.26529111440000
H            9.71525264760000        4.38312085060000        0.57731759330000
H            8.46469022660000        3.71275312890000       -0.06725523630000
O           -3.59647601800000       -1.30095874270000       -1.30134059540000
H           -3.84632584940000       -2.02752739650000       -1.89377203370000
H           -2.74547319630000       -1.57583682620000       -0.90358348470000
O            4.29677523410000        1.56100647120000       -5.48612728260000
H            4.81046725330000        2.38894438760000       -5.42922346940000
H            4.90264689820000        0.87585155330000       -5.84647003650000
O           -3.76463242530000       -0.57524205800000        4.35682526800000
H           -4.49951596440000       -0.73225595130000        4.96640077430000
H           -3.16724725410000       -1.32788619560000        4.42131208990000
O           -8.24937301500000       -0.58258121690000       -1.85454839650000
H           -9.02668646000000       -0.84440690990000       -1.32951308080000
H           -8.35792960410000       -1.02100306600000       -2.71703905780000
O           -7.30226971340000        1.15840611020000       -5.70292223360000
H           -6.98996105680000        1.96152509930000       -5.23586764280000
H           -8.22965901930000        1.05629862140000       -5.46475269980000
O            8.81100472300000       -4.07615182400000        0.39638596930000
H            8.41508572020000       -3.34936606090000       -0.14085306630000
H            8.46816734920000       -3.98317955250000        1.30005210620000
O            7.68509819410000       -2.35719388950000       -1.30306884340000
H            7.37823074980000       -2.90801992600000       -2.04311604820000
H            7.88357599550000       -1.48365037470000       -1.67837215740000
O           -4.20362609950000        1.24504732810000        6.82973627080000
H           -4.66604679030000        1.47547441370000        5.99496947080000
H           -4.79080391860000        0.62471667970000        7.26558686110000
O            1.64759282950000        4.30023300720000        2.10281341460000
H            1.01591168960000        4.88738970420000        2.55436964200000
H            2.04424806260000        4.82102833030000        1.36546510250000
O           -8.33322122730000        4.54514410280000        1.43475979460000
H           -7.75047453490000        4.60920733970000        0.66743364970000
H           -7.86807836860000        5.00088643380000        2.15957136750000
O           -2.73227397600000        4.67925670920000        3.17666995550000
H           -1.96530734290000        4.07301769910000        3.19126477510000
H           -3.18063340690000        4.60109022750000        4.04026021170000
O            2.75114902370000        6.92862520400000        4.46092295940000
H            3.20954798300000        6.14116484780000        4.07394139700000
H            3.25925993630000        7.70196186700000        4.21962607030000
O            0.42135378720000       -2.74089226660000        5.10286006050000
H           -0.07969299310000       -2.62361829740000        5.92444408490000
H           -0.13348486790000       -2.37838894370000        4.39171947070000
O            6.55359597230000       -2.30747233110000        1.53061734870000
H            7.49850249940000       -2.20821171990000        1.80999254630000
H            6.04670460460000       -2.44973274860000        2.34902085470000
O           -4.23090410770000       -1.79009690980000       -6.39135377410000
H           -5.21322884920000       -1.81899639340000       -6.37249648560000
H           -4.01001536270000       -0.96579166520000       -6.86345732970000
O          -10.00817399710000        1.89747979710000        4.25000723030000
H          -10.11080131530000        0.93706178900000        4.25864028400000
H          -10.30223149180000        2.21781034080000        3.37966434570000
O            2.81249306340000        0.30061613540000       -3.53443969720000
H            3.36888087910000        0.74354099790000       -4.19808763980000
H            2.90778231350000       -0.65648470880000       -3.69160433040000
O           -1.52742524340000        2.44717447020000       -7.12715175470000
H           -1.59106288280000        2.99532657060000       -7.90845709900000
H           -0.72327492470000        1.86760944980000       -7.24035191040000
O            6.25699325500000       -1.78997366280000        5.85275440370000
H            5.59922010460000       -1.79039451470000        6.55725121900000
H            6.55381419580000       -0.86289478900000        5.74741634250000
O            3.81450267250000       -1.63352416670000        7.24326049700000
H            2.97780343520000       -1.30673420170000        7.60237871420000
H            3.57087114570000       -2.40328127140000        6.68549817180000
O            2.13790461190000       -3.67790963030000       -6.25015227780000
H            1.17321867720000       -3.62004300230000       -6.20993144000000
H            2.45394132660000       -2.99955440350000       -6.85792372920000
O            5.64793140840000        3.92435478640000       -5.39269957800000
H            5.64563662930000        4.38600370220000       -4.51283574890000
H            5.33710772290000        4.56219406220000       -6.03371098500000
O            3.16661771170000       -4.10544130680000       -1.85760164820000
H            4.03147392600000       -4.16021655720000       -1.43038205140000
H            2.81120348740000       -5.00188928900000       -1.93404049500000
O            5.36572403680000       -3.22875189820000        3.76717520210000
H            5.60021133240000       -2.62454959470000        4.50106390520000
H            6.03120990920000       -3.92272375230000        3.78498617540000
O           -0.11451756150000       -7.01593686480000       -0.94263953770000
H            0.73376910650000       -7.06252834870000       -1.41763267190000
H            0.08845862390000       -7.21737560790000       -0.01437739250000
O            3.09136437760000       -1.62925015760000        3.56534305010000
H            2.58223553660000       -1.00157458430000        4.13691351730000
H            3.96687560540000       -1.24064120750000        3.41848997850000
O            9.21802292010000       -0.17206354870000        0.16232710200000
H            9.59582915210000       -0.67370284120000       -0.58667614550000
H            8.25333425530000       -0.12065589840000        0.02396122150000
O           -7.90990868130000        3.18674411140000        5.12608188420000
H           -8.18994356190000        3.45195159440000        6.00113064640000
H           -8.67083203590000        2.68128029760000        4.73729104240000
O           -3.95878952720000       -2.67327462470000        7.02494833470000
H           -4.46274096470000       -1.85280566380000        6.97386496510000
H           -4.55004780620000       -3.33462334080000        6.61597111650000
O           -9.10277666240000        3.49089734930000       -4.03164669640000
H           -9.23493766650000        4.09554871140000       -3.28713745770000
H           -8.24410622380000        3.72417469150000       -4.42752454950000
O           -1.58508813680000       -2.91703429330000       -3.29440677620000
H           -2.28714862510000       -2.26175046340000       -3.43547911230000
H           -1.90533310890000       -3.50555457990000       -2.58837017750000
O            1.75932891600000        5.26480775360000        6.45214168380000
H            0.80764248510000        5.43881998020000        6.47519733920000
H            2.15319854660000        5.97776062670000        5.92749839050000
O           -9.10863086200000        4.69923885270000       -1.56211400220000
H           -9.67539116580000        5.34480211880000       -1.13997556570000
H           -8.18419450600000        4.95012831440000       -1.33150801010000
O           -4.63989525180000       -3.53276794390000        0.25844923870000
H           -3.97475105340000       -3.88737726900000       -0.36260726970000
H           -5.40801795490000       -3.28907540000000       -0.29026561640000
O           -7.58987703600000        1.90299340550000       -2.35777845970000
H           -7.93082425250000        0.99725362000000       -2.18746125300000
H           -8.19367396930000        2.33378109230000       -2.98218850560000
O           -0.99424197510000        5.32620546620000        5.81769781480000
H           -1.33209898970000        4.39860091610000        5.73547451270000
H           -1.76691499320000        5.86969142080000        5.97435826380000
O            5.37294667130000       -5.52739917050000        1.82085986370000
H            4.75367438100000       -5.51883439390000        2.57191498510000
H            6.23532165730000       -5.23361994990000        2.13484375340000
O            5.47853192690000       -3.72063406050000       -0.44741703520000
H            6.02886803050000       -3.20129688450000        0.18024573970000
H            6.02747614680000       -4.50405878790000       -0.65361815590000
O           -8.36401730600000       -4.79866982630000        4.18405692880000
H           -7.69131201900000       -5.48828412930000        4.20469744000000
H           -8.53055689760000       -4.60925383350000        3.23703675940000
O            0.57069211760000        7.16903657200000       -0.98730778190000
H            0.01766645580000        7.59397082030000       -1.66240209730000
H            0.04120309470000        7.16588585400000       -0.16496741450000
O           -9.27430678450000       -3.57779195390000       -2.02175767770000
H           -9.26340935390000       -3.15822922420000       -2.89420847550000
H           -9.85249642110000       -3.01461388480000       -1.48257789650000
O          -11.55869473270000        0.66690847310000       -2.22232316050000
H          -12.45563466660000        0.99848109540000       -2.23397151630000
H          -11.02312300280000        1.29559065250000       -1.68050215520000
O          -10.05301281220000       -0.92968315060000        3.85690684920000
H          -10.40547038130000       -0.64228452630000        2.98867905100000
H          -10.37293309560000       -1.85335838830000        3.92357939250000
O           -8.10458126380000       -2.59835462140000        5.71835985620000
H           -8.83008057290000       -1.98936909700000        5.56659005400000
H           -8.27028778200000       -3.36165244400000        5.12606836340000
O           -3.90490202800000       -3.96653602680000        2.98921360560000
H           -3.39086820590000       -3.51771917710000        3.69839483560000
H           -4.68989798760000       -3.41727190510000        2.85564295820000
O           -6.85355525610000       -1.55691108850000       -5.95222689660000
H           -6.97701578390000       -0.60369471260000       -6.08518692150000
H           -6.64130203470000       -1.64125764690000       -4.99205590190000
O            8.31474541320000       -0.11908704650000       -5.55697883340000
H            7.66722311500000       -0.37727271960000       -6.21912647070000
H            7.89302696780000        0.62510669230000       -5.07783933090000
O           -1.32085713450000       -5.65016016070000       -4.52747284710000
H           -1.76437220580000       -6.12802698390000       -3.80649480410000
H           -1.04427593990000       -6.30337548930000       -5.16903670880000
O           -6.07208632310000       -2.27750738540000        3.31841304910000
H           -6.11839666220000       -2.84484932330000        4.10441199360000
H           -6.47156261820000       -1.42583120610000        3.58490563300000
O           10.29440435120000        0.65368899710000       -3.80147318090000
H           10.81419486620000       -0.05074518720000       -3.40555502790000
H            9.92565919710000        0.30957859260000       -4.62447451680000
O           -2.37154608420000       -6.98068230300000       -2.35240086530000
H           -1.55075792500000       -7.15699017010000       -1.85121182770000
H           -3.08149447080000       -7.40897138370000       -1.86144550750000
O           -5.69411438320000        2.17124792330000       -7.77032629750000
H           -5.35145063220000        2.98269919710000       -7.37419563410000
H           -6.36426064240000        1.82017492230000       -7.16395301460000
O            1.56347092590000        6.48909843360000       -3.90760646570000
H            1.05907394790000        7.30316352480000       -3.90833586740000
H            1.00520944330000        5.82947274200000       -3.43990810100000
O            2.30323424710000       -5.31364288250000        0.54304140160000
H            2.75610996250000       -4.55666587220000        0.97287226710000
H            3.00894169180000       -5.87551872750000        0.18610851840000
O           -0.84371297190000        3.98192549300000        0.66170670180000
H           -0.65299113110000        3.59907555810000        1.53774422820000
H           -0.55527884920000        3.33347581940000       -0.00830831360000
O            3.09549504140000       -1.16911306290000       -7.15279498560000
H            2.92023175040000       -0.51151381120000       -7.82756310720000