      -----------------------------------------------------------      
     |                   =====================                   |     
     |                           x T B                           |     
     |                   =====================                   |     
     |                         S. Grimme                         |     
     |          Mulliken Center for Theoretical Chemistry        |     
     |                    University of Bonn                     |     
      -----------------------------------------------------------      

   * xtb version 6.5.1 (579679a) compiled by 'ehlert@majestix' on 2022-07-11

   xtb is free software: you can redistribute it and/or modify it under
   the terms of the GNU Lesser General Public License as published by
   the Free Software Foundation, either version 3 of the License, or
   (at your option) any later version.
   
   xtb is distributed in the hope that it will be useful,
   but WITHOUT ANY WARRANTY; without even the implied warranty of
   MERCHANTABILITY or FITNESS FOR A PARTICULAR PURPOSE.  See the
   GNU Lesser General Public License for more details.
   
   Cite this work as:
   * C. Bannwarth, E. Caldeweyher, S. Ehlert, A. Hansen, P. Pracht,
     J. Seibert, S. Spicher, S. Grimme, WIREs Comput. Mol. Sci., 2020, 11,
     e01493. DOI: 10.1002/wcms.1493
   
   for GFN2-xTB:
   * C. Bannwarth, S. Ehlert and S. Grimme., J. Chem. Theory Comput., 2019,
     15, 1652-1671. DOI: 10.1021/acs.jctc.8b01176
   for GFN1-xTB:
   * S. Grimme, C. Bannwarth, P. Shushkov, J. Chem. Theory Comput., 2017,
     13, 1989-2009. DOI: 10.1021/acs.jctc.7b00118
   for GFN0-xTB:
   * P. Pracht, E. Caldeweyher, S. Ehlert, S. Grimme, ChemRxiv, 2019, preprint.
     DOI: 10.26434/chemrxiv.8326202.v1
   for GFN-FF:
   * S. Spicher and S. Grimme, Angew. Chem. Int. Ed., 2020, 59, 15665-15673.
     DOI: 10.1002/anie.202004239
   
   for ALPB and GBSA implicit solvation:
   * S. Ehlert, M. Stahn, S. Spicher, S. Grimme, J. Chem. Theory Comput.,
     2021, 17, 4250-4261. DOI: 10.1021/acs.jctc.1c00471
   
   for DFT-D4:
   * E. Caldeweyher, C. Bannwarth and S. Grimme, J. Chem. Phys., 2017,
     147, 034112. DOI: 10.1063/1.4993215
   * E. Caldeweyher, S. Ehlert, A. Hansen, H. Neugebauer, S. Spicher,
     C. Bannwarth and S. Grimme, J. Chem. Phys., 2019, 150, 154122.
     DOI: 10.1063/1.5090222
   * E. Caldeweyher, J.-M. Mewes, S. Ehlert and S. Grimme, Phys. Chem. Chem. Phys.
     2020, 22, 8499-8512. DOI: 10.1039/D0CP00502A
   
   for sTDA-xTB:
   * S. Grimme and C. Bannwarth, J. Chem. Phys., 2016, 145, 054103.
     DOI: 10.1063/1.4959605
   
   in the mass-spec context:
   * V. Asgeirsson, C. Bauer and S. Grimme, Chem. Sci., 2017, 8, 4879.
     DOI: 10.1039/c7sc00601b
   * J. Koopman and S. Grimme, ACS Omega 2019, 4, 12, 15120-15133.
     DOI: 10.1021/acsomega.9b02011
   
   for metadynamics refer to:
   * S. Grimme, J. Chem. Theory Comput., 2019, 155, 2847-2862
     DOI: 10.1021/acs.jctc.9b00143
   
   for SPH calculations refer to:
   * S. Spicher and S. Grimme, J. Chem. Theory Comput., 2021, 17, 1701-1714
     DOI: 10.1021/acs.jctc.0c01306
   
   with help from (in alphabetical order)
   P. Atkinson, C. Bannwarth, F. Bohle, G. Brandenburg, E. Caldeweyher
   M. Checinski, S. Dohm, S. Ehlert, S. Ehrlich, I. Gerasimov, C. Hölzer
   A. Katbashev, J. Koopman, C. Lavigne, S. Lehtola, F. März, M. Müller,
   F. Musil, H. Neugebauer, J. Pisarek, C. Plett, P. Pracht, F. Pultar,
   J. Seibert, P. Shushkov, S. Spicher, M. Stahn, M. Steiner, T. Strunk,
   J. Stückrath, T. Rose, and J. Unsleber
   
 * started run on 2022/11/17 at 06:48:47.983     

           -------------------------------------------------
          |                Calculation Setup                |
           -------------------------------------------------

          program call               : xtb solvent_cluster.coord --gfn2 --input xcontrol --opt 1
          hostname                   : cn0363
          coordinate file            : solvent_cluster.coord
          omp threads                :                     2

   ID    Z sym.   atoms
    1    8 o      1, 4, 7, 10, 13, 16, 19, 22, 25, 28, 31, 34, 37, 40, 43,
                  46, 49, 52, 55, 58, 61, 64, 67, 70, 73, 76, 79, 82, 85, 88,
                  91, 94, 97, 100, 103, 106, 109, 112, 115, 118, 121, 124,
                  127, 130, 133, 136, 139, 142, 145, 148, 151, 154, 157, 160,
                  163, 166, 169, 172, 175, 178, 181, 184, 187, 190, 193, 196,
                  199, 202, 205, 208, 211, 214, 217, 220, 223, 226, 229, 232,
                  235, 238, 241, 244, 247, 250, 253, 256, 259, 262, 265, 268,
                  271, 274, 277, 280, 283, 286, 289, 292, 295, 298, 301, 304,
                  307, 310, 313, 316, 319, 322, 325, 328, 331, 334, 337, 340,
                  343, 346, 349, 352, 355, 358, 361, 364, 367, 370, 373, 376,
                  379, 382, 385, 388, 391, 394, 397, 400, 403, 406, 409, 412,
                  415, 418, 421, 424, 427, 430, 433, 436, 439, 442, 445, 448,
                  451, 454, 457, 460, 463, 466, 469, 472, 475, 478, 481, 484,
                  487, 490, 493, 496, 499, 502, 505, 508, 511, 514, 517, 520,
                  523, 526, 529
    2    1 h      2, 3, 5, 6, 8, 9, 11, 12, 14, 15, 17, 18, 20, 21, 23, 24,
                  26, 27, 29, 30, 32, 33, 35, 36, 38, 39, 41, 42, 44, 45, 47,
                  48, 50, 51, 53, 54, 56, 57, 59, 60, 62, 63, 65, 66, 68, 69,
                  71, 72, 74, 75, 77, 78, 80, 81, 83, 84, 86, 87, 89, 90, 92,
                  93, 95, 96, 98, 99, 101, 102, 104, 105, 107, 108, 110, 111,
                  113, 114, 116, 117, 119, 120, 122, 123, 125, 126, 128, 129,
                  131, 132, 134, 135, 137, 138, 140, 141, 143, 144, 146, 147,
                  149, 150, 152, 153, 155, 156, 158, 159, 161, 162, 164, 165,
                  167, 168, 170, 171, 173, 174, 176, 177, 179, 180, 182, 183,
                  185, 186, 188, 189, 191, 192, 194, 195, 197, 198, 200, 201,
                  203, 204, 206, 207, 209, 210, 212, 213, 215, 216, 218, 219,
                  221, 222, 224, 225, 227, 228, 230, 231, 233, 234, 236, 237,
                  239, 240, 242, 243, 245, 246, 248, 249, 251, 252, 254, 255,
                  257, 258, 260, 261, 263, 264, 266, 267, 269, 270, 272, 273,
                  275, 276, 278, 279, 281, 282, 284, 285, 287, 288, 290, 291,
                  293, 294, 296, 297, 299, 300, 302, 303, 305, 306, 308, 309,
                  311, 312, 314, 315, 317, 318, 320, 321, 323, 324, 326, 327,
                  329, 330, 332, 333, 335, 336, 338, 339, 341, 342, 344, 345,
                  347, 348, 350, 351, 353, 354, 356, 357, 359, 360, 362, 363,
                  365, 366, 368, 369, 371, 372, 374, 375, 377, 378, 380, 381,
                  383, 384, 386, 387, 389, 390, 392, 393, 395, 396, 398, 399,
                  401, 402, 404, 405, 407, 408, 410, 411, 413, 414, 416, 417,
                  419, 420, 422, 423, 425, 426, 428, 429, 431, 432, 434, 435,
                  437, 438, 440, 441, 443, 444, 446, 447, 449, 450, 452, 453,
                  455, 456, 458, 459, 461, 462, 464, 465, 467, 468, 470, 471,
                  473, 474, 476, 477, 479, 480, 482, 483, 485, 486, 488, 489,
                  491, 492, 494, 495, 497, 498, 500, 501, 503, 504, 506, 507,
                  509, 510, 512, 513, 515, 516, 518, 519, 521, 522, 524, 525,
                  527, 528, 530, 531

molecular fragmentation (1/2 indicates fragments):
111222222222222222222222222222222222222222222222222222222222222222222222
222222222222222222222222222222222222222222222222222222222222222222222222
222222222222222222222222222222222222222222222222222222222222222222222222
222222222222222222222222222222222222222222222222222222222222222222222222
222222222222222222222222222222222222222222222222222222222222222222222222
222222222222222222222222222222222222222222222222222222222222222222222222
222222222222222222222222222222222222222222222222222222222222222222222222
222222222222222222222222222
# atoms in fragment 1/2:     3   528
 fragment masses (1/2) :       18.02     3170.69
CMA distance (Bohr)    :   6.880
constraining FC (au)   :  0.0500

           -------------------------------------------------
          |                 G F N 2 - x T B                 |
           -------------------------------------------------

        Reference                      10.1021/acs.jctc.8b01176
      * Hamiltonian:
        H0-scaling (s, p, d)           1.850000    2.230000    2.230000
        zeta-weighting                 0.500000
      * Dispersion:
        s8                             2.700000
        a1                             0.520000
        a2                             5.000000
        s9                             5.000000
      * Repulsion:
        kExp                           1.500000    1.000000
        rExp                           1.000000
      * Coulomb:
        alpha                          2.000000
        third order                    shell-resolved
        anisotropic                    true
        a3                             3.000000
        a5                             4.000000
        cn-shift                       1.200000
        cn-exp                         4.000000
        max-rad                        5.000000


          ...................................................
          :                      SETUP                      :
          :.................................................:
          :  # basis functions                1062          :
          :  # atomic orbitals                1062          :
          :  # shells                          708          :
          :  # electrons                      1416          :
          :  max. iterations                   250          :
          :  Hamiltonian                  GFN2-xTB          :
          :  restarted?                      false          :
          :  GBSA solvation                  false          :
          :  PC potential                    false          :
          :  electronic temp.          300.0000000     K    :
          :  accuracy                    1.0000000          :
          :  -> integral cutoff          0.2500000E+02      :
          :  -> integral neglect         0.1000000E-07      :
          :  -> SCF convergence          0.1000000E-05 Eh   :
          :  -> wf. convergence          0.1000000E-03 e    :
          :  Broyden damping             0.4000000          :
          ...................................................

 iter      E             dE          RMSdq      gap      omega  full diag
   1   -906.5517512 -0.906552E+03  0.406E+00    8.66       0.0  T
   2   -906.6098158 -0.580646E-01  0.241E+00    7.16       1.0  T
   3   -906.6325367 -0.227209E-01  0.214E-01    5.18       1.0  T
   4   -906.6365303 -0.399353E-02  0.462E-02    5.70       1.0  T
   5   -906.6365993 -0.690362E-04  0.310E-02    5.62       1.0  T
   6   -906.6366282 -0.289317E-04  0.395E-03    5.67       1.1  T
   7   -906.6366297 -0.145403E-05  0.758E-04    5.66       5.7  T
   8   -906.6366297 -0.203402E-07  0.394E-04    5.66      11.0  T
   9   -906.6366297 -0.108648E-07  0.557E-05    5.66      77.9  T

   *** convergence criteria satisfied after 9 iterations ***

         #    Occupation            Energy/Eh            Energy/eV
      -------------------------------------------------------------
         1        2.0000           -0.6962047             -18.9447
       ...           ...                  ...                  ...
       702        2.0000           -0.3559658              -9.6863
       703        2.0000           -0.3533117              -9.6141
       704        2.0000           -0.3509339              -9.5494
       705        2.0000           -0.3365953              -9.1592
       706        2.0000           -0.3165017              -8.6125
       707        2.0000           -0.2975985              -8.0981
       708        2.0000           -0.2921556              -7.9500 (HOMO)
       709                         -0.0841396              -2.2896 (LUMO)
       710                         -0.0735008              -2.0001
       711                         -0.0567884              -1.5453
       712                         -0.0489789              -1.3328
       713                         -0.0431910              -1.1753
       ...                                ...                  ...
      1062                          0.5086751              13.8418
      -------------------------------------------------------------
                  HL-Gap            0.2080159 Eh            5.6604 eV
             Fermi-level           -0.1881476 Eh           -5.1198 eV

 SCC (total)                   0 d,  0 h,  0 min,  8.238 sec
 SCC setup                      ...        0 min,  0.024 sec (  0.287%)
 Dispersion                     ...        0 min,  0.070 sec (  0.851%)
 classical contributions        ...        0 min,  0.012 sec (  0.140%)
 integral evaluation            ...        0 min,  0.325 sec (  3.941%)
 iterations                     ...        0 min,  2.987 sec ( 36.259%)
 molecular gradient             ...        0 min,  4.793 sec ( 58.180%)
 printout                       ...        0 min,  0.028 sec (  0.342%)

         :::::::::::::::::::::::::::::::::::::::::::::::::::::
         ::                     SUMMARY                     ::
         :::::::::::::::::::::::::::::::::::::::::::::::::::::
         :: total energy            -901.191740910788 Eh    ::
         :: gradient norm              0.108871138210 Eh/a0 ::
         :: HOMO-LUMO gap              5.660401590125 eV    ::
         ::.................................................::
         :: SCC energy              -906.636629706178 Eh    ::
         :: -> isotropic ES            5.096875948040 Eh    ::
         :: -> anisotropic ES         -1.110037659585 Eh    ::
         :: -> anisotropic XC         -0.093880771048 Eh    ::
         :: -> dispersion             -0.529490653589 Eh    ::
         :: repulsion energy           5.349916781218 Eh    ::
         :: add. restraining           0.000000000000 Eh    ::
         :: total charge               0.000000000000 e     ::
         :::::::::::::::::::::::::::::::::::::::::::::::::::::

      ----------------------------------------------------------- 
     |                       L-ANC optimizer                     |
      ----------------------------------------------------------- 
          low memory version by Sebastian Ehlert

          ...................................................
          :                      SETUP                      :
          :.................................................:
          :   energy convergence        0.1000000E-05 Eh    :
          :   grad. convergence         0.8000000E-03 Eh/a0 :
          :   optimization log               true           :
          :   writing optlog all                1     steps :
          :   Hessian reset                    20     steps :
          :   maximium step len.        1.0000000     a0    :
          :   LBFGS images                     20           :
          ...................................................
 * calculating model hessian...
Using Lindh-Hessian (1995)
 Shifting diagonal of input Hessian by   1.000006087807236E-002
 Lowest  eigenvalues of input Hessian
    0.010000    0.010000   -0.000000   -0.000000   -0.000000   -0.000000
   -0.000000   -0.000000   -0.000000   -0.000000   -0.000000   -0.000000
   -0.000000   -0.000000   -0.000000   -0.000000   -0.000000   -0.000000
 Highest eigenvalues
    0.318823    0.343305    1.233628    1.252973    1.437485    1.465245
 

........................................................................
.............................. CYCLE    1 ..............................
........................................................................
   1   -906.6333010 -0.906633E+03  0.390E-02    5.81       0.0  T
   2   -906.6333266 -0.255674E-04  0.237E-02    5.80       1.0  T
   3   -906.6333345 -0.793527E-05  0.331E-03    5.79       1.3  T
   4   -906.6333352 -0.712400E-06  0.774E-04    5.79       5.6  T
   5   -906.6333353 -0.799366E-08  0.106E-04    5.79      40.8  T
     SCC iter.                  ...        0 min,  1.420 sec
     gradient                   ...        0 min,  4.825 sec
 * total energy  :  -901.1946432 Eh     change       -0.2902332E-02 Eh
   gradient norm :     0.0207106 Eh/a0  converged?    E=F G=F D=F
   step length   :     0.4128892 a0

........................................................................
.............................. CYCLE    2 ..............................
........................................................................
   1   -906.6360130 -0.906636E+03  0.256E-02    5.78       0.0  T
   2   -906.6360178 -0.487489E-05  0.157E-02    5.78       1.0  T
   3   -906.6360202 -0.238345E-05  0.140E-03    5.77       3.1  T
   4   -906.6360203 -0.927870E-07  0.447E-04    5.77       9.7  T
   5   -906.6360203 -0.377588E-08  0.542E-05    5.77      80.1  T
     SCC iter.                  ...        0 min,  1.410 sec
     gradient                   ...        0 min,  4.841 sec
 * total energy  :  -901.1960039 Eh     change       -0.1360655E-02 Eh
   gradient norm :     0.0167563 Eh/a0  converged?    E=F G=F D=F
   step length   :     0.3573731 a0

........................................................................
.............................. CYCLE    3 ..............................
........................................................................
   1   -906.6325602 -0.906633E+03  0.292E-02    5.78       0.0  T
   2   -906.6325691 -0.890053E-05  0.177E-02    5.79       1.0  T
   3   -906.6325713 -0.222447E-05  0.193E-03    5.81       2.3  T
   4   -906.6325716 -0.306479E-06  0.441E-04    5.80       9.8  T
   5   -906.6325716 -0.330340E-08  0.770E-05    5.80      56.4  T
     SCC iter.                  ...        0 min,  1.398 sec
     gradient                   ...        0 min,  4.856 sec
 * total energy  :  -901.1970038 Eh     change       -0.9998900E-03 Eh
   gradient norm :     0.0251679 Eh/a0  converged?    E=F G=F D=F
   step length   :     0.5605189 a0

........................................................................
.............................. CYCLE    4 ..............................
........................................................................
   1   -906.6380033 -0.906638E+03  0.892E-03    5.83       0.0  T
   2   -906.6380050 -0.174372E-05  0.539E-03    5.85       1.0  T
   3   -906.6380055 -0.499041E-06  0.864E-04    5.86       5.0  T
   4   -906.6380056 -0.512504E-07  0.249E-04    5.86      17.4  T
     SCC iter.                  ...        0 min,  1.113 sec
     gradient                   ...        0 min,  4.875 sec
 * total energy  :  -901.1977131 Eh     change       -0.7093170E-03 Eh
   gradient norm :     0.0113147 Eh/a0  converged?    E=F G=F D=F
   step length   :     0.2482567 a0

........................................................................
.............................. CYCLE    5 ..............................
........................................................................
   1   -906.6399421 -0.906640E+03  0.136E-02    5.89       0.0  T
   2   -906.6399452 -0.310510E-05  0.822E-03    5.90       1.0  T
   3   -906.6399460 -0.724445E-06  0.113E-03    5.91       3.8  T
   4   -906.6399461 -0.992784E-07  0.236E-04    5.90      18.4  T
   5   -906.6399461 -0.949399E-09  0.411E-05    5.90     105.7  T
     SCC iter.                  ...        0 min,  1.383 sec
     gradient                   ...        0 min,  4.892 sec
 * total energy  :  -901.1980534 Eh     change       -0.3402611E-03 Eh
   gradient norm :     0.0085360 Eh/a0  converged?    E=F G=F D=F
   step length   :     0.3857890 a0

........................................................................
.............................. CYCLE    6 ..............................
........................................................................
   1   -906.6380723 -0.906638E+03  0.215E-02    5.92       0.0  T
   2   -906.6380751 -0.274955E-05  0.130E-02    5.93       1.0  T
   3   -906.6380758 -0.793385E-06  0.106E-03    5.93       4.1  T
   4   -906.6380759 -0.935055E-07  0.285E-04    5.93      15.2  T
   5   -906.6380759 -0.139562E-08  0.437E-05    5.93      99.2  T
     SCC iter.                  ...        0 min,  1.362 sec
     gradient                   ...        0 min,  4.907 sec
 * total energy  :  -901.1979920 Eh     change        0.6133356E-04 Eh
   gradient norm :     0.0212432 Eh/a0  converged?    E=F G=F D=F
   step length   :     0.3712890 a0

........................................................................
.............................. CYCLE    7 ..............................
........................................................................
   1   -906.6412119 -0.906641E+03  0.139E-02    5.93       0.0  T
   2   -906.6412138 -0.187663E-05  0.835E-03    5.93       1.0  T
   3   -906.6412143 -0.444854E-06  0.901E-04    5.92       4.8  T
   4   -906.6412143 -0.660428E-07  0.214E-04    5.93      20.3  T
     SCC iter.                  ...        0 min,  1.084 sec
     gradient                   ...        0 min,  4.899 sec
 * total energy  :  -901.1982334 Eh     change       -0.2414050E-03 Eh
   gradient norm :     0.0040318 Eh/a0  converged?    E=F G=F D=F
   step length   :     0.2373452 a0

........................................................................
.............................. CYCLE    8 ..............................
........................................................................
   1   -906.6403621 -0.906640E+03  0.561E-03    5.92       0.0  T
   2   -906.6403623 -0.287183E-06  0.345E-03    5.92       1.3  T
   3   -906.6403625 -0.120067E-06  0.330E-04    5.92      13.2  T
   4   -906.6403625 -0.647799E-08  0.902E-05    5.92      48.1  T
     SCC iter.                  ...        0 min,  1.096 sec
     gradient                   ...        0 min,  4.919 sec
 * total energy  :  -901.1982968 Eh     change       -0.6334063E-04 Eh
   gradient norm :     0.0052138 Eh/a0  converged?    E=F G=F D=F
   step length   :     0.0602837 a0

........................................................................
.............................. CYCLE    9 ..............................
........................................................................
   1   -906.6391172 -0.906639E+03  0.108E-02    5.93       0.0  T
   2   -906.6391177 -0.484954E-06  0.662E-03    5.93       1.0  T
   3   -906.6391179 -0.200216E-06  0.406E-04    5.93      10.7  T
   4   -906.6391179 -0.105271E-07  0.119E-04    5.93      36.5  T
     SCC iter.                  ...        0 min,  1.267 sec
     gradient                   ...        0 min,  4.945 sec
 * total energy  :  -901.1983982 Eh     change       -0.1014593E-03 Eh
   gradient norm :     0.0088392 Eh/a0  converged?    E=F G=F D=F
   step length   :     0.1715573 a0

........................................................................
.............................. CYCLE   10 ..............................
........................................................................
   1   -906.6396912 -0.906640E+03  0.699E-03    5.94       0.0  T
   2   -906.6396915 -0.315477E-06  0.428E-03    5.93       1.0  T
   3   -906.6396916 -0.124071E-06  0.336E-04    5.93      12.9  T
   4   -906.6396916 -0.783427E-08  0.965E-05    5.93      45.0  T
     SCC iter.                  ...        0 min,  1.075 sec
     gradient                   ...        0 min,  4.959 sec
 * total energy  :  -901.1984722 Eh     change       -0.7395657E-04 Eh
   gradient norm :     0.0086600 Eh/a0  converged?    E=F G=F D=F
   step length   :     0.1098470 a0

........................................................................
.............................. CYCLE   11 ..............................
........................................................................
   1   -906.6404466 -0.906640E+03  0.562E-03    5.94       0.0  T
   2   -906.6404469 -0.373152E-06  0.344E-03    5.94       1.3  T
   3   -906.6404471 -0.167106E-06  0.413E-04    5.94      10.5  T
   4   -906.6404471 -0.100194E-07  0.135E-04    5.94      32.2  T
     SCC iter.                  ...        0 min,  1.098 sec
     gradient                   ...        0 min,  4.977 sec
 * total energy  :  -901.1985336 Eh     change       -0.6136703E-04 Eh
   gradient norm :     0.0036439 Eh/a0  converged?    E=F G=F D=F
   step length   :     0.0952017 a0

........................................................................
.............................. CYCLE   12 ..............................
........................................................................
   1   -906.6404520 -0.906640E+03  0.610E-03    5.94       0.0  T
   2   -906.6404521 -0.150761E-06  0.375E-03    5.94       1.2  T
   3   -906.6404522 -0.776517E-07  0.217E-04    5.94      20.0  T
   4   -906.6404522 -0.206410E-08  0.640E-05    5.94      67.8  T
     SCC iter.                  ...        0 min,  0.989 sec
     gradient                   ...        0 min,  4.841 sec
 * total energy  :  -901.1985714 Eh     change       -0.3788500E-04 Eh
   gradient norm :     0.0042987 Eh/a0  converged?    E=F G=F D=F
   step length   :     0.0722623 a0

........................................................................
.............................. CYCLE   13 ..............................
........................................................................
   1   -906.6408666 -0.906641E+03  0.110E-02    5.94       0.0  T
   2   -906.6408671 -0.468310E-06  0.680E-03    5.95       1.0  T
   3   -906.6408674 -0.273824E-06  0.396E-04    5.95      11.0  T
   4   -906.6408674 -0.473631E-08  0.113E-04    5.95      38.3  T
     SCC iter.                  ...        0 min,  0.993 sec
     gradient                   ...        0 min,  4.847 sec
 * total energy  :  -901.1986326 Eh     change       -0.6113979E-04 Eh
   gradient norm :     0.0068213 Eh/a0  converged?    E=F G=F D=F
   step length   :     0.1126978 a0

........................................................................
.............................. CYCLE   14 ..............................
........................................................................
   1   -906.6411690 -0.906641E+03  0.550E-03    5.94       0.0  T
   2   -906.6411692 -0.206190E-06  0.336E-03    5.94       1.3  T
   3   -906.6411693 -0.739532E-07  0.287E-04    5.95      15.1  T
   4   -906.6411693 -0.640671E-08  0.823E-05    5.95      52.7  T
     SCC iter.                  ...        0 min,  1.073 sec
     gradient                   ...        0 min,  4.955 sec
 * total energy  :  -901.1986741 Eh     change       -0.4151914E-04 Eh
   gradient norm :     0.0047251 Eh/a0  converged?    E=F G=F D=F
   step length   :     0.0638519 a0

........................................................................
.............................. CYCLE   15 ..............................
........................................................................
   1   -906.6413814 -0.906641E+03  0.865E-03    5.94       0.0  T
   2   -906.6413820 -0.529279E-06  0.528E-03    5.94       1.0  T
   3   -906.6413821 -0.164354E-06  0.467E-04    5.94       9.3  T
   4   -906.6413821 -0.187239E-07  0.128E-04    5.94      33.8  T
     SCC iter.                  ...        0 min,  1.063 sec
     gradient                   ...        0 min,  4.956 sec
 * total energy  :  -901.1987309 Eh     change       -0.5679023E-04 Eh
   gradient norm :     0.0046530 Eh/a0  converged?    E=F G=F D=F
   step length   :     0.1098357 a0

........................................................................
.............................. CYCLE   16 ..............................
........................................................................
   1   -906.6413566 -0.906641E+03  0.818E-03    5.94       0.0  T
   2   -906.6413570 -0.428186E-06  0.500E-03    5.94       1.0  T
   3   -906.6413571 -0.129258E-06  0.413E-04    5.94      10.5  T
   4   -906.6413571 -0.150652E-07  0.106E-04    5.94      40.8  T
     SCC iter.                  ...        0 min,  1.055 sec
     gradient                   ...        0 min,  4.902 sec
 * total energy  :  -901.1987824 Eh     change       -0.5148339E-04 Eh
   gradient norm :     0.0031739 Eh/a0  converged?    E=F G=F D=F
   step length   :     0.0988907 a0

........................................................................
.............................. CYCLE   17 ..............................
........................................................................
   1   -906.6406815 -0.906641E+03  0.971E-03    5.94       0.0  T
   2   -906.6406818 -0.290134E-06  0.596E-03    5.95       1.0  T
   3   -906.6406820 -0.136973E-06  0.315E-04    5.95      13.8  T
   4   -906.6406820 -0.537659E-08  0.100E-04    5.95      43.3  T
     SCC iter.                  ...        0 min,  1.044 sec
     gradient                   ...        0 min,  4.889 sec
 * total energy  :  -901.1988146 Eh     change       -0.3225489E-04 Eh
   gradient norm :     0.0051497 Eh/a0  converged?    E=F G=F D=F
   step length   :     0.1025753 a0

........................................................................
.............................. CYCLE   18 ..............................
........................................................................
   1   -906.6425558 -0.906643E+03  0.118E-02    5.95       0.0  T
   2   -906.6425572 -0.142622E-05  0.710E-03    5.95       1.0  T
   3   -906.6425576 -0.452331E-06  0.814E-04    5.95       5.3  T
   4   -906.6425577 -0.466777E-07  0.216E-04    5.95      20.1  T
     SCC iter.                  ...        0 min,  1.030 sec
     gradient                   ...        0 min,  4.872 sec
 * total energy  :  -901.1987006 Eh     change        0.1140798E-03 Eh
   gradient norm :     0.0123045 Eh/a0  converged?    E=F G=F D=F
   step length   :     0.1582838 a0

........................................................................
.............................. CYCLE   19 ..............................
........................................................................
   1   -906.6410826 -0.906641E+03  0.696E-03    5.95       0.0  T
   2   -906.6410833 -0.746471E-06  0.413E-03    5.96       1.1  T
   3   -906.6410835 -0.212252E-06  0.602E-04    5.96       7.2  T
   4   -906.6410836 -0.231975E-07  0.154E-04    5.96      28.2  T
     SCC iter.                  ...        0 min,  1.027 sec
     gradient                   ...        0 min,  4.865 sec
 * total energy  :  -901.1988534 Eh     change       -0.1528109E-03 Eh
   gradient norm :     0.0029807 Eh/a0  converged?    E=F G=F D=F
   step length   :     0.1117005 a0

........................................................................
.............................. CYCLE   20 ..............................
........................................................................
   1   -906.6411505 -0.906641E+03  0.153E-03    5.96       0.0  T
   2   -906.6411505 -0.235026E-07  0.913E-04    5.96       4.8  T
   3   -906.6411505 -0.414980E-08  0.972E-05    5.96      44.7  T
     SCC iter.                  ...        0 min,  0.774 sec
     gradient                   ...        0 min,  4.786 sec
 * total energy  :  -901.1988683 Eh     change       -0.1491140E-04 Eh
   gradient norm :     0.0020613 Eh/a0  converged?    E=F G=F D=F
   step length   :     0.0363381 a0
 * RMSD in coord.:     0.1023281 a0     energy gain  -0.7127365E-02 Eh
 * calculating model hessian...
Using Lindh-Hessian (1995)
 Shifting diagonal of input Hessian by   1.000007095513865E-002
 Lowest  eigenvalues of input Hessian
    0.010000   -0.000000   -0.000000   -0.000000   -0.000000   -0.000000
   -0.000000   -0.000000   -0.000000   -0.000000   -0.000000   -0.000000
   -0.000000   -0.000000   -0.000000   -0.000000   -0.000000   -0.000000
 Highest eigenvalues
    0.303360    0.335980    1.224946    1.254276    1.397807    1.451875
 

........................................................................
.............................. CYCLE   21 ..............................
........................................................................
   1   -906.6408369 -0.906641E+03  0.119E-02    5.95       0.0  T
   2   -906.6408378 -0.900002E-06  0.737E-03    5.96       1.0  T
   3   -906.6408383 -0.483479E-06  0.485E-04    5.95       8.9  T
   4   -906.6408383 -0.940270E-08  0.136E-04    5.95      32.0  T
     SCC iter.                  ...        0 min,  0.941 sec
     gradient                   ...        0 min,  4.816 sec
 * total energy  :  -901.1989366 Eh     change       -0.6833504E-04 Eh
   gradient norm :     0.0024474 Eh/a0  converged?    E=F G=F D=F
   step length   :     0.0987565 a0

........................................................................
.............................. CYCLE   22 ..............................
........................................................................
   1   -906.6408860 -0.906641E+03  0.641E-03    5.96       0.0  T
   2   -906.6408862 -0.212254E-06  0.390E-03    5.96       1.1  T
   3   -906.6408863 -0.967581E-07  0.286E-04    5.96      15.2  T
   4   -906.6408863 -0.511648E-08  0.969E-05    5.96      44.8  T
     SCC iter.                  ...        0 min,  0.948 sec
     gradient                   ...        0 min,  4.820 sec
 * total energy  :  -901.1989866 Eh     change       -0.4995284E-04 Eh
   gradient norm :     0.0022517 Eh/a0  converged?    E=F G=F D=F
   step length   :     0.0987413 a0

........................................................................
.............................. CYCLE   23 ..............................
........................................................................
   1   -906.6413555 -0.906641E+03  0.507E-03    5.97       0.0  T
   2   -906.6413557 -0.180872E-06  0.314E-03    5.97       1.4  T
   3   -906.6413558 -0.838254E-07  0.236E-04    5.97      18.4  T
   4   -906.6413558 -0.329578E-08  0.642E-05    5.97      67.6  T
     SCC iter.                  ...        0 min,  0.959 sec
     gradient                   ...        0 min,  4.824 sec
 * total energy  :  -901.1990068 Eh     change       -0.2023243E-04 Eh
   gradient norm :     0.0016304 Eh/a0  converged?    E=F G=F D=F
   step length   :     0.0550680 a0

........................................................................
.............................. CYCLE   24 ..............................
........................................................................
   1   -906.6415695 -0.906642E+03  0.218E-03    5.97       0.0  T
   2   -906.6415696 -0.425337E-07  0.133E-03    5.97       3.3  T
   3   -906.6415696 -0.129787E-07  0.121E-04    5.96      35.9  T
   4   -906.6415696 -0.131911E-08  0.317E-05    5.96     137.0  T
     SCC iter.                  ...        0 min,  0.962 sec
     gradient                   ...        0 min,  4.817 sec
 * total energy  :  -901.1990129 Eh     change       -0.6124791E-05 Eh
   gradient norm :     0.0003888 Eh/a0  converged?    E=F G=T D=F
   step length   :     0.0435916 a0

........................................................................
.............................. CYCLE   25 ..............................
........................................................................
   1   -906.6414447 -0.906641E+03  0.927E-04    5.96       0.0  T
   2   -906.6414447 -0.238458E-08  0.564E-04    5.96       7.7  T
   3   -906.6414447 -0.108787E-08  0.300E-05    5.96     144.7  T
     SCC iter.                  ...        0 min,  0.729 sec
     gradient                   ...        0 min,  4.808 sec
 * total energy  :  -901.1990139 Eh     change       -0.9605648E-06 Eh
   gradient norm :     0.0002497 Eh/a0  converged?    E=T G=T D=F
   step length   :     0.0132982 a0

   *** GEOMETRY OPTIMIZATION CONVERGED AFTER 25 CYCLES ***

------------------------------------------------------------------------
 total energy gain   :        -0.0072730 Eh       -4.5639 kcal/mol
 total RMSD          :         0.1067346 a0        0.0565 Å
 total power (kW/mol):        -0.7638073 (step)   -0.1125 (real)
------------------------------------------------------------------------

 L-ANCopt (total)              0 d,  0 h,  2 min, 49.799 sec
 setup                          ...        0 min,  0.017 sec (  0.010%)
 model hessian                  ...        0 min,  7.836 sec (  4.615%)
 ANC generation                 ...        0 min,  1.880 sec (  1.107%)
 coordinate transformation      ...        0 min,  0.002 sec (  0.001%)
 Rational function              ...        0 min,  0.000 sec (  0.000%)
 singlepoint calculation        ...        2 min, 39.936 sec ( 94.191%)
 optimization log               ...        0 min,  0.123 sec (  0.072%)
 hessian update                 ...        0 min,  0.000 sec (  0.000%)

================
 final structure:
================
$coord
       -3.50296960096100       -5.84655853069000       -0.00340620343400      o
       -4.29186109868000       -5.40630482232000        1.62743677553300      h
       -2.35101928246100       -7.24741657700900        0.26823943360700      h
        4.82556796393700       -8.53135309329100        3.68472781748000      o
        6.18914797415900       -9.72133049783700        3.34148565681000      h
        3.25271085061400       -9.53950528713200        3.76046755731700      h
        4.97033776205700       -0.58137622202400        6.06789270574500      o
        4.83859537822900       -2.29690523682000        6.72098068367500      h
        3.92171544408400        0.49689855512700        7.12121394861100      h
        1.67653486659600       -4.83091911791500       -5.62643592356900      o
        2.83803676975800       -5.75684011459600       -4.52855351475200      h
        0.87755894253700       -6.01916292529300       -6.76589873665400      h
       -7.28935805178000       -1.64234196703800        8.64748530256200      o
       -7.70913629300700       -0.44712810713000        9.99459262157300      h
       -7.99340938384200       -0.97256776207700        7.09716720971700      h
        5.77802978476400       -7.52060943794100       -9.24896160919700      o
        6.06757124616400       -6.49646279226000       -7.74899316516400      h
        7.45068889184700       -7.95377499913700       -9.83893463600500      h
       -0.57979852856900       -5.60817927229100        7.36830552582700      o
       -1.11176609365300       -3.96274325147700        8.01729266049700      h
        1.23639729700400       -5.55163974638700        7.22083607863300      h
        8.45858147154700      -11.67786520324000        1.87487605797700      o
        7.97092486060300      -11.74956619753500        0.09618949234500      h
       10.19238061042200      -11.12783660601700        1.92673221578000      h
       -9.40522659458200       -5.38199030604600       -0.86064672809300      o
       -9.27093235506800       -5.25642860012500       -2.69925042036000      h
      -11.06170196334600       -4.67074378309500       -0.44566223556200      h
       -1.49414724888200        5.49359664491300        8.79663193747200      o
       -2.62704034391000        4.71365234855300        7.55870993266000      h
       -0.07265895855000        4.31122841710900        8.89916094920600      h
       -6.25275581154000       -1.54690387924100       -0.14211278712200      o
       -7.28221862594800       -3.08432301059200       -0.16643160403400      h
       -6.60057763120800       -0.73139373543800       -1.74390177310300      h
        2.55673993436500       13.10040115234700        2.55005018110600      o
        3.62699528075000       11.61671934466700        2.89335442928900      h
        3.64174344131900       14.54854468463000        2.62437846271000      h
        5.04945065213100        5.56395900421000        6.06822857561900      o
        3.49505067489100        4.67428673068800        5.50449496015800      h
        4.65832390076600        6.47583903510900        7.62882287761200      h
       -3.81701145850400        2.28628534302500        5.97559155074000      o
       -5.54942694646400        1.70102865323400        5.86885015051500      h
       -3.31364759759300        2.47148420909100        4.19519411813000      h
       -1.08930365318400        7.10099352304000       -6.93789052708000      o
       -1.11115619499600        6.94384767875300       -8.78985091895300      h
       -0.94030674371800        8.91722315581000       -6.62662933494200      h
       -3.81268451973900       11.50949426171500      -10.31239032777000      o
       -2.98640943906000       10.17487193006000      -11.25019660047400      h
       -2.60013185695100       12.07049609633600       -9.06818865629300      h
       -6.80552696028500        4.68915240537700       -1.75990796826800      o
       -7.51556584423100        6.28140847170900       -1.21518674819900      h
       -6.41656572034100        4.86336131488300       -3.54235681896100      h
       -2.56354285480800       -1.92526379157000       -7.54615699813000      o
       -3.13015047453100       -3.25469920343900       -6.41228332373900      h
       -3.95646961379300       -1.61399917241300       -8.69995565569100      h
        8.50186165992800        2.45115002466300        8.00029784197500      o
        7.74648945440300        1.70836805912600        9.51302501698600      h
        7.19184643818600        3.55643484850400        7.27153862204900      h
       10.70096204247300       -5.51301329444900       -1.07832951665400      o
        9.15852005507600       -5.15405483977100       -0.09407134955100      h
       11.60783928357000       -3.91071500049000       -1.13252465100300      h
       -8.27540416173600        9.69078989165200       -8.67604496194700      o
       -7.42707387653100        8.50523874778700       -7.55272619311000      h
       -6.89181970990200       10.60249788586900       -9.48487682407200      h
        0.51434970882900        2.29532917325300       -8.39766004608700      o
        1.77266111491600        1.62581252886800       -7.21368968273500      h
       -0.35270221003100        0.84646258325600       -9.10053455320400      h
        9.49837413459500        9.42012743215800        9.57481536262500      o
        9.90709927199100        9.45622218101400        7.78736755241500      h
       10.54149845913600        8.06526291454800       10.25824639535700      h
       19.30956673062600        1.57287533009300        2.74384541920800      o
       18.83462903281200       -0.04353789635600        1.98206882000200      h
       20.53999706128700        2.34028606992700        1.60648734187900      h
      -10.64692092532500        1.43706265703900       -1.16210838217000      o
       -9.03057018171900        2.28280669638000       -1.44550989870600      h
      -11.84568192518300        2.84063283728400       -1.05192177022100      h
        4.28450706309600       -7.06529680621600       -1.97371827315500      o
        5.12129706310500       -6.08419036279100       -0.68673222069300      h
        2.75511136533000       -7.82018973132000       -1.19943802460400      h
       -5.45923508636800       -2.83019598952500       14.28031134444400      o
       -6.30566812961700       -1.23295299612800       14.01565772592000      h
       -6.63956038908400       -4.09163954985500       13.65263214428400      h
       -5.86772665533700        5.40498556098200       -6.85173044926400      o
       -4.18488591365400        6.15549301835100       -6.62846165082800      h
       -5.76355699902900        4.55787657391000       -8.48511714127700      h
       -9.89587505271900        5.88949537438600      -11.65263403552100      o
      -11.71298648358400        5.77902180528300      -11.52496184548800      h
       -9.40870244462100        7.41730758536400      -10.71098776126500      h
       11.76410442183400        0.61200855664100       12.96395420298300      o
        9.94655041923000        0.63096058284900       13.19075773645300      h
       12.20278551009500        2.28091706926300       12.32137352481900      h
        8.91835905666100       -2.55397065701600      -11.10687441104300      o
        9.61786333297800       -4.19271052369100      -10.69101996427400      h
        7.12305377748100       -2.64233298687100      -10.77105055610300      h
      -18.34333597838300       -6.76408647283900       -6.22656968007300      o
      -18.22055301299200       -8.09435802456800       -4.94006342052600      h
      -19.45166175885900       -5.49284874996300       -5.52293798301200      h
       -2.23484235377000        2.39595129768000       -4.13522461414900      o
       -2.18323905906300        4.01973508177600       -3.30664633472700      h
       -1.37113308723800        2.57455753673200       -5.75758924448100      h
        0.13441367454100       -9.29990887155700       -0.56737916175800      o
        0.82545462743400      -10.90119676816800        0.06196777956800      h
       -0.57319469869100       -9.70287354449100       -2.21882325310000      h
        2.19668553425700        2.15055635554000        9.36983380824000      o
        2.71928072381600        3.03245006578700       10.90919893402100      h
        1.63648249756600        0.50169059588800        9.96587092858100      h
        2.88214779410600      -10.96080941384400       -6.69672463060900      o
        3.73573913134500       -9.85644254025600       -7.88842309456000      h
        4.15330538542000      -11.47602075531400       -5.48496000054900      h
        9.76046282260900       -2.02991470551900        5.38140255630000      o
        8.55317929062200       -0.76196524298900        5.96345096367100      h
       11.25286841275100       -1.16229018042100        4.70512913196600      h
      -10.45241814774900       -3.98547065986900        4.66454663603600      o
      -11.16079530590600       -2.36723777945400        4.10233547450600      h
      -11.46466247434700       -5.27511396767100        3.81646339602700      h
        6.81574436059500       -4.39980332091400        1.78968974989600      o
        7.68140077296600       -3.35481456497200        3.02798136847400      h
        6.19601187908200       -5.87467685157100        2.71757958817100      h
        4.55379996222800       10.83162212261400       -8.64320049315800      o
        5.04147692570900       10.48548534285100      -10.35631573926700      h
        4.41645367641100        9.15605690237000       -7.83507479440800      h
        6.74750365898200      -11.26975069185700       -3.00467178786200      o
        5.88517538206400       -9.66596828159200       -2.59688300268200      h
        8.24415752294400      -10.74111596424200       -3.94195209446500      h
        2.67773754639400       -2.46980753651400       11.49775660295800      o
        1.43555843083700       -3.31831609241900       12.60086085142800      h
        3.19661154619500       -3.73626360947600       10.29562088949200      h
        8.07143242984400       -5.72421962085100       11.53056621650700      o
        9.71035540907400       -5.04883609208800       10.99380830253400      h
        7.61622227644500       -4.85504734802900       13.05130078170800      h
       -1.35141186660200        0.81813436427700       13.95181268163300      o
       -1.62048909206700        0.02646507807200       12.28946957263400      h
       -1.95101653933500       -0.40296869729400       15.14992265295000      h
        5.82487540810000        6.82083452867900       -1.67489623401400      o
        5.24127127722800        6.91173595516900       -3.43262936865400      h
        7.39032667371200        5.83490008867700       -1.67440898235100      h
       -0.01966652610900       12.06161499702400       -6.61728724907800      o
        0.57594616405100       12.02138524414300       -4.87257912896700      h
        1.52236345605600       11.96327761740900       -7.62052500441900      h
       -7.20345944230500       -9.46067115771400        1.27236341693900      o
       -7.17983123556700      -10.72139826322100       -0.06156055288500      h
       -7.97648562695200       -7.95304532095700        0.53392276795900      h
       -8.10923918064800        0.67565177007000        4.01742860700400      o
       -7.50178639044300       -0.14692831131900        2.47482687672600      h
       -8.20938222137500        2.46986297748300        3.62077392497900      h
       18.44816499597900        7.18249498098200       -1.75747844909300      o
       19.89808383659600        6.06698822337900       -1.71931404327500      h
       17.14590809363200        6.31560976751000       -0.78046904831100      h
       -5.27594573168200        3.64062468576200      -11.70702675508000      o
       -6.86372777998800        4.39401020803500      -12.22973357679800      h
       -5.45184860400100        1.83661192036100      -11.88411592535200      h
      -12.77960046677000       10.26124139083400       -5.77887799317000      o
      -11.70392372605000       11.09822928294400       -6.98057142383600      h
      -12.04655873213400        8.55717863103200       -5.64871312969900      h
        2.76242894243000        4.07329132302500       13.98527488331600      o
        1.53193656469700        2.78046250211100       14.42565141782500      h
        1.82768490410900        5.66307335976600       14.24618661807200      h
      -17.09878745621100        6.75454032888700       -5.38483412836000      o
      -16.00113499378300        8.10871387557400       -5.92360014222800      h
      -17.64143270196500        7.25550859725200       -3.70412761387400      h
       -2.26970224363000       -1.16201609494700        9.30486630680200      o
       -4.02161453763100       -1.70813606276300        9.45205861831600      h
       -2.35726028892500        0.14081507584100        7.99069605031800      h
       12.15081096247400       -3.17851852099600        9.80276618859200      o
       11.17877220026400       -2.64341210126800        8.32608003431600      h
       12.13094313160800       -1.75527027824300       11.01980324834800      h
       16.77607785281600        8.52516162618200        3.51712884204400      o
       15.49701718267300        9.64903493793400        2.85545780047300      h
       18.05727056487700        8.46688509971100        2.22881862818500      h
      -17.72357345514100       -0.96256945602700        4.44660105519300      o
      -16.06531696127700       -0.71371932592100        3.66077322861500      h
      -17.59293607590000       -2.62274423281200        5.27223778587900      h
       -0.63428458225900       -1.20008694931400      -12.27095092540400      o
       -2.43553028620300       -1.32289152901200      -12.49505313588100      h
        0.11613406970700       -0.85743804750800      -13.88320763613300      h
       -3.65550187077200       -9.27092488611500        5.05164790055400      o
       -3.35069621283400       -7.58482849036300        5.69174979760100      h
       -4.71680723827800       -9.08692661812400        3.57025655864400      h
        6.68718004001200       11.67275292876300       -3.96595855347200      o
        5.09434322329000       11.11830709486600       -3.21914866863300      h
        6.31105776087200       11.85882970727000       -5.74833932867800      h
       -7.59908240728300        5.67494798793900        3.76891572230400      o
       -8.47247014903900        6.74917222085500        2.58161262485100      h
       -8.43687182797700        5.83953270781100        5.40010471406100      h
      -12.96383006008200        0.11048306308600        3.17648303519300      o
      -12.18676958851200        0.18880054180700        1.50533625575700      h
      -12.61576658566200        1.72813079685200        3.94374247827700      h
       -8.65832809671400        9.23886914018200       -0.00958636846900      o
      -10.43945260006100        9.71715188007100       -0.25145997335600      h
       -8.00787432948300       10.24673735016500        1.40082909628400      h
      -13.88641848763500        5.23670199282600       -1.24894167296600      o
      -15.28498097348300        4.07532480685200       -1.50331438089400      h
      -13.19933969214800        5.63820582142900       -2.90258235472900      h
       15.33880225843400        4.03320548449100        0.77920795538300      o
       13.84257583687600        4.13906831502900        1.83648599809400      h
       16.65917695613000        3.22538972460800        1.78840412719200      h
        6.10555084944500        2.08969311247400        1.88304093736000      o
        5.49802967270400        1.10692139076400        3.30786349832900      h
        7.62264389044200        2.94209785412900        2.45207624341200      h
        7.17492486374000       -4.09636388343700       -5.63214571578500      o
        6.35332712671700       -2.90005119815600       -6.73328317018000      h
        7.14251528892200       -3.30168605374300       -3.97136194060900      h
       -0.24324100264600        8.10671776958100       14.28225349706100      o
       -1.87102584661300        7.25780193918400       14.21486769423900      h
       -0.18615177209200        9.20642278222600       12.81507062378300      h
       -7.99950741307400        1.53470447653000       12.49309445987900      o
       -6.90899013423200        3.02437848085200       12.62789344897400      h
       -9.72161169302700        2.07816867640900       12.27734625255800      h
       -3.17908658206500        2.37214297454900        1.03418419000100      o
       -4.42127737348400        3.42495425880500        0.19263474360200      h
       -3.79479464272500        0.66547539495600        0.85042635581100      h
       11.97338221525200       -2.79000513325200       -6.10746909249300      o
       11.46127640764500       -1.03148396928500       -5.79806541498000      h
       10.36781651029400       -3.70765311759600       -6.14759102365800      h
       -8.51954651811800       -5.79669437023800       11.33496203994100      o
       -7.88747738839000       -4.57237914437200       10.10950535176100      h
       -7.65541430502900       -7.38311067259400       11.01040911943200      h
        9.39608451769100        2.30062906482400      -12.70059512402300      o
       10.94316362536100        2.95744490211100      -11.99778431805600      h
        9.41623353940000        0.49513946725500      -12.34237870973500      h
        4.32856792523500       -0.51161455955200      -14.34058490211800      o
        5.99330292348500       -0.23985647229100      -14.99405060281700      h
        3.69984920572700        1.17051957448100      -13.85938570149400      h
      -14.82553392241400       -0.52069770741800      -10.60205501347500      o
      -16.09926148035900       -1.13253144626800       -9.46293835793300      h
      -13.40035053943900       -1.68715595413200      -10.51549278289100      h
        7.51643273862500       -0.66988386311200       -1.96595548493500      o
        6.81239820036900        0.24452448202300       -0.50528611509100      h
        9.32433734095100       -0.66187805783600       -1.69409779267500      h
       10.70135127575200       -8.73935898719500       -5.02604485498900      o
       12.36130010140600       -9.42384000722200       -4.52129800022000      h
       10.41696151493700       -7.36814794252500       -3.81915240348800      h
      -20.13591629145200       -2.57824904513100       -3.51379697400500      o
      -21.52284519349900       -1.78584201067100       -2.64700154821500      h
      -19.26412160378900       -1.22996743246300       -4.45056323319700      h
       -4.21953914761900        4.92385588167600       12.95374976128000      o
       -3.27788512983300        3.49844152864800       13.65783861271700      h
       -3.39939168228800        5.20035929794100       11.30356972860100      h
        6.23134983426900        2.49670441866700       -8.71354009089500      o
        7.14141088526700        2.71049344618500      -10.30428453482700      h
        5.28490111933400        0.91656337065600       -8.83977368793200      h
       -1.68590718561900        7.30322739378500       -1.49764352251300      o
       -2.18282771164400        7.27530854122500        0.30357418211800      h
       -3.01384359996900        8.18033214635900       -2.42875554667600      h
       14.57942117108400       -1.42274619302400      -10.13569883161600      o
       13.55746578585000       -2.10513886027500       -8.71949818497500      h
       13.82810304018000       -2.08795706640900      -11.64155157271900      h
        0.79476836438500      -11.30863913502300        4.27695105095800      o
        1.36433872801000      -11.91643053671700        5.94402828042900      h
       -0.74377018846200      -10.32766208151100        4.61651512368500      h
      -14.01420316152700       -3.32882604611500       -0.62426897539000      o
      -14.10873636822600       -3.82043638647700       -2.41301510253900      h
      -15.35696329543700       -4.27718497843200        0.20007641541500      h
      -14.26456463133000        4.33836823392600       -9.41868152516600      o
      -14.50953396334500        2.56312252854600       -9.92763579372300      h
      -15.84818886435100        4.90371434762700       -8.73234467444800      h
        3.93105457800700        6.42501075178500       -6.30682027833200      o
        4.69190949777400        4.98086265460500       -7.16182458463900      h
        2.09093092945800        6.27188987618300       -6.43724194422100      h
       14.18199095460000       -0.11852990187100        4.11300692115900      o
       14.51162366500800        1.52123800123200        4.89176419769100      h
       15.18964040537200       -1.33813290351900        5.06839975512200      h
       22.19976382734200        3.51655093777100       -0.99812445871200      o
       22.15731081641700        1.81422659167200       -1.80800574801700      h
       23.93522773408700        4.02227143868600       -0.97442222025900      h
        1.90116756245300       10.87366239263600       -2.06087966516200      o
        1.86920299806500       11.84333100915900       -0.50485228976000      h
        0.73956285782200        9.44923770930700       -1.82789128164700      h
       10.75605809951100        3.91501410585900        3.42455471008000      o
       10.68285445977000        5.74622916676400        3.80289887626700      h
       10.56837927087000        3.12343256095300        5.05523165678000      h
       -1.86168051174400      -10.70167387729400       -5.15771690510700      o
       -0.20745151596300      -10.88394469577200       -5.97571211166600      h
       -2.14105449485900      -12.28553752631000       -4.20743691329400      h
       13.09627537377600       -8.81064324948500        1.77774316946300      o
       14.59827266028000       -8.04009429789200        2.49325172816400      h
       12.28500155826800       -7.52501367122200        0.68834001634900      h
        4.88337439216500      -15.02000081333800        3.96631640445000      o
        4.32818655302800      -14.66549290458900        5.65952621792600      h
        6.42084037398000      -14.07245424775100        3.69005575768700      h
      -17.46746284921600       -9.76215909372200       -2.20986660859200      o
      -17.88517465678700       -8.48363986067700       -0.96311965824100      h
      -15.73900663966600      -10.24675824845500       -1.86848336510200      h
      -12.55105947239700        1.59691288756400        9.71504766418000      o
      -12.62092253076000       -0.24671785802000        9.58401599739900      h
      -14.20194949590200        2.19139469560700        9.15551641693700      h
       -6.22792710140300      -10.29464456806000       10.03891925439100      o
       -6.99406890065500      -10.15491784945600        8.35573635666100      h
       -6.89084592505000      -11.79818187879000       10.79201211253900      h
       -3.98132949174700       -6.01302264311200       -4.88086899520200      o
       -3.11990733199700       -7.57572007591600       -5.26825355326100      h
       -4.08779965545000       -5.94898205357500       -3.03279852615000      h
       15.15124424148500       -9.76620182526400       -3.06365469993900      o
       14.68425841144400       -9.91882654254600       -1.29908298308200      h
       15.76955464016000       -8.04632204036900       -3.27878096670300      h
      -12.74033222081400        0.10073688332700       -5.56418808548200      o
      -11.87847533338800        0.44462387102600       -3.95695931227300      h
      -13.00051081333300       -1.71878991606700       -5.64757750852700      h
       -7.41725205349900      -12.74431524986500       -2.71428157513800      o
       -7.25198418692400      -12.01086268427300       -4.37511160211200      h
       -6.04912741280700      -13.93566882465800       -2.55457786734800      h
       16.53445632433300       -3.12229087092700        7.43119681541100      o
       17.59819722960100       -1.78963863999000        8.09886686098300      h
       15.05116547506200       -3.29134032044400        8.55425970590600      h
        2.56830747734700      -13.73833217323100       -0.40564369829500      o
        3.14087526228900      -14.33792249840800        1.24877701264000      h
        4.08254204649700      -13.40904899069200       -1.35808160671900      h
       -3.14264312548100      -14.26931433429300        2.71638127477400      o
       -4.32377490710800      -13.19252124552700        3.57338431190300      h
       -1.47859017902600      -13.65466752539600        3.22317139440200      h
       -5.25378225719700       -4.46122080075800        4.40599396523600      o
       -6.99046931041600       -3.89011884637700        4.49056122252900      h
       -4.12267056883700       -3.04288606071200        4.61021110034100      h
       -1.08711259739300       -9.18265014883700       10.83635483259400      o
       -2.79788361106100       -9.80661811545000       10.67216220761300      h
       -0.91904402864900       -7.94229036561400        9.45825588801800      h
       12.53733121015100       -0.81894778339500       -0.75771913139300      o
       13.57065502474500       -0.02150041216800       -2.04254283507900      h
       13.32931711256800       -0.51806761197600        0.87239197164300      h
       10.40298719128600        8.71447735395900        4.44543368322400      o
       11.48861435240100        9.63997771635200        3.26866769539600      h
        8.66866258293100        9.03929335512300        3.90467625026100      h
      -16.57659223092800        3.37154391082500        6.99038444395700      o
      -15.28642179333300        4.04844519528300        5.85379614630500      h
      -17.09102851490600        1.72974553233800        6.31743026712800      h
        1.02022482012900        3.60381007245100        4.07084507316100      o
       -0.30247256429700        4.88048928670900        4.09178280903500      h
        1.51761318636400        3.50669722164600        2.29010513754900      h
      -18.45807165901300       -5.41432100559300        0.51364313689500      o
      -19.45587311423800       -5.16614575747300        2.00440731920300      h
      -19.21288959204300       -4.41913713544700       -0.84767326396500      h
      -13.26373634517100       -7.91530044922900        3.06117131167000      o
      -12.34644723924800       -8.96350921031600        4.25137505644100      h
      -12.99543233509300       -8.67705726602800        1.40870223977500      h
      -18.10926870138000        8.53608094232900       -0.52140981152500      o
      -18.45839954933100        7.12585341838000        0.65189422519800      h
      -19.43904927887500        9.73956855572400       -0.29634865508000      h
       10.92785659912900       -7.26958663511000       -9.78292125478000      o
       10.91146998361200       -7.74585872624200       -7.96967692621600      h
       12.26367624886200       -8.21653257171300      -10.54543576343400      h
        2.49924437418200      -12.43804554866900        8.78113298651600      o
        4.17976145819300      -11.71671558524600        9.00998092359400      h
        1.34878332413600      -11.44466397819100        9.81991190286600      h
       -6.46342510485000      -10.30967085301400       -7.59819877501900      o
       -4.76074523875000      -10.55377920283300       -6.94376488078900      h
       -6.26534353630400       -9.12157911830900       -8.99770460828200      h
       -2.65540157734700        7.26166649734700        3.37835214744500      o
       -4.36839501039800        6.68469677362900        3.73704915135600      h
       -2.49631702144600        8.97101144633500        4.06781391721200      h
       10.31308148294200        1.89776486672900       -5.96296309444600      o
        8.65348650072400        2.13040182792400       -6.78856026409800      h
       11.52257684598900        2.65999246604100       -7.11612061051100      h
       -0.90185639193900       -6.13471961871500       -9.89875683603600      o
        0.33304397226000       -6.05726536926400      -11.27740240859900      h
       -1.21963317017800       -4.37774877892500       -9.39604762513800      h
       -2.29897669884800      -14.66658621593100       -2.18506930210900      o
       -0.50805242216900      -15.01073106391600       -2.04223939025600      h
       -2.81356010687200      -14.54681577209100       -0.39746901690400      h
       18.37476417694100       -1.13658905448800       -6.46376443462400      o
       17.57784515079100       -1.29102215862400       -8.09600870585400      h
       17.37969980493900        0.12090978663700       -5.53197025851000      h
       21.90126498954200       -1.11837876329000       -2.65096183271400      o
       20.74049203663800       -1.92386566894400       -1.47019707026000      h
       21.07658177148400       -1.20182505896000       -4.28141805810000      h
       -9.14223303945400       -9.24901966724700        5.95579102114100      o
       -8.98374931606100       -7.44974173436700        6.19706603681300      h
       -8.39309142743600       -9.57003329243600        4.29703237550300      h
      -12.17544107016200       10.29453566466600        4.58401896918200      o
      -10.50978230149200       11.03284352392600        4.73458389179500      h
      -12.88764404143100       10.96941327637500        3.04683059396800      h
      -16.71628348599100        1.10755814374900       -0.72239662962800      o
      -18.41485400752100        0.42860546256300       -0.74161350886500      h
      -15.58743378145200       -0.35362576256600       -0.67816292521700      h
      -12.24384122836300      -10.38670317107000       -1.38365576498900      o
      -11.10157503801300      -11.78770866911400       -1.19556343993300      h
      -11.81695802366900       -9.63416755512100       -3.01095291207300      h
      -19.05070744196400        4.63436961671400        2.44360300988700      o
      -18.60291240878300        4.58261141625800        4.21866496814300      h
      -18.05749501102900        3.32593396379100        1.61745423490000      h
        9.68250268312700        6.94712783576500       -8.25940033307600      o
       10.12810396992500        7.95487659560400       -6.79484156972300      h
       11.22558080027900        6.24765449634000       -8.91073894728600      h
        8.27616666672300       13.45180495719000        0.66510475487900      o
        7.82558521430000       13.31733780964100       -1.10488027452300      h
        7.39433618103700       12.08587763540700        1.49213479241300      h
        3.45151865936200        0.85219907030800       -4.65763396900300      o
        2.74631742433500        1.97245079446500       -3.37893251119700      h
        5.09485928930500        0.39116500300900       -4.00624422183200      h
       -9.97215744115700        5.71027802800900        8.35295998905900      o
      -11.32926019742400        6.90852193610900        8.27026754702200      h
      -10.75356964129600        4.07748459334800        8.75649576627700      h
       19.39937828772200        1.25499166574200        7.77308664850800      o
       21.02825853930300        1.57636921586500        8.48693219206000      h
       19.58356628382000        1.29674668786800        5.92468624350900      h
      -13.95232742691900       -4.77410561462900       -5.40863468093800      o
      -12.74690696232900       -6.11070631266400       -5.72496795818500      h
      -15.63948295019300       -5.46207106065000       -5.86902771540100      h
      -10.92555679395600       -3.95668372087600      -10.22600218346500      o
      -10.15382204802200       -4.14254634524500       -8.54870909589000      h
      -11.58235995118200       -5.57700808232000      -10.67717804748500      h
       -6.72360746378300        0.25839846746200       -4.89576958541300      o
       -7.55356862008800        1.01840542241000       -6.34958506380300      h
       -5.01760821676300        0.97090055702700       -4.82664647664600      h
       -6.03609886184500       -1.68395199087000      -11.34630962751500      o
       -6.32670010083200       -3.49002690497300      -11.50133158102800      h
       -7.60921117396500       -0.99372401754400      -10.65941826128400      h
        2.87313550510500       -5.68607375135500      -13.23527302741600      o
        4.07001301492100       -6.33060746582300      -12.00032352032700      h
        3.46314062966300       -4.04143798941800      -13.76705095850100      h
       -1.89643990125400       12.02630953605200        4.97909719023100      o
       -1.33592076991400       11.65529267414100        6.70105475488500      h
       -0.41208704962100       12.63328439566700        4.09541924288300      h
      -13.38621260822900       10.76488511675700       -0.69927279244800      o
      -14.91508073759600        9.75614831540600       -0.50886236173500      h
      -13.22899878842100       10.98694661766100       -2.52318438683500      h
        9.77074400551500       -7.39741406216100        5.63325319137900      o
        9.94405804644700       -5.58578258483700        5.68742079941200      h
       11.02435708745300       -8.04037519771700        4.46923121243000      h
       17.33659040224100       -6.62328885655400        3.91203401162800      o
       17.01220280459500       -5.48386229389400        5.33799293000600      h
       18.53521979289100       -7.85195904090800        4.48246401498800      h
       -9.36884215716300        1.36944905663600       -9.03924139635200      o
      -10.86933873141100        0.86341859436700       -8.07507000924400      h
       -9.82122059288800        2.84303603465500      -10.03162634501700      h
       13.64577873565500        3.53056335036000       -9.60912377054900      o
       14.28679668283600        1.80525337785700       -9.85673361757800      h
       14.97145121069600        4.53250207841500       -8.85887385637100      h
        3.86343641429300       -1.98811935021500       -9.18632012928900      o
        2.89807899341700       -2.80922037466200       -7.82901982277200      h
        2.69744286630900       -1.77364358589400      -10.57512858961500      h
        6.48958422325300        7.19344867407900      -12.16687894203900      o
        7.50524791560400        7.10438884618700      -10.62108186621600      h
        7.54010898389700        6.52989729887500      -13.48467907181000      h
      -21.43069406270400       -0.27033477723500        1.04743425879600      o
      -20.25325749938700       -0.63698455617700        2.43754520441800      h
      -22.18930827772200        1.31772443358600        1.47848633216000      h
       18.07846920916400       -2.81517258016700        0.46663910066700      o
       18.02108047877900       -4.20250132951700        1.66278037136400      h
       17.06372133904600       -3.38869798751400       -0.97942914516000      h
       15.97035547615900       -4.66695478581200       -3.69634203896100      o
       14.32713428256500       -4.13140605758500       -4.36357680808100      h
       17.17941846745300       -3.82064638397300       -4.80000545715100      h
        2.56592367234400        3.95956107977900      -12.68918387895200      o
        3.95102102516700        5.14336070752500      -12.38853131255100      h
        1.94489099966200        3.39825264902700      -11.02514385406500      h
        7.20270721988300      -10.36482158001300        9.04390666617100      o
        8.13295152289800       -9.59078000876300        7.66509543210500      h
        7.55069354888800       -9.31899515806900       10.49054462071900      h
        5.62939123706900        9.14738740266400        2.74969940639600      o
        5.28153166691300        7.76697390908300        3.98124288296100      h
        5.57605956574900        8.34810187988800        1.07817146696700      h
      -12.74912933806000       -3.54657672761700        9.14907169026900      o
      -11.75598411466100       -4.43479030561500       10.40109276237600      h
      -11.77391915707000       -3.68315023211700        7.57150157378300      h
       -1.45722053683900        7.02959792471100      -11.96156952058000      o
       -2.84758104514900        5.83788380438000      -12.10529823541500      h
        0.00855525953600        6.14697115613000      -12.64399582230700      h
       12.12043731206400        5.04345396077700       10.29379318264700      o
       13.47238694100300        5.07148552566300        9.05133718047500      h
       10.71768861099600        4.19112588624800        9.42199169896300      h
       15.45942338754300        2.12403366558100       -3.86647673371300      o
       15.68026787791300        2.74978724558200       -2.14176995417400      h
       15.27355263225000        3.68101527340800       -4.84174344245300      h
       -8.55010229181000       -4.34741354834500       -5.75946900722800      o
       -6.96884484038500       -5.29473753369500       -5.82743924880700      h
       -8.01928561253700       -2.60084753641900       -5.43910509476500      h
      -17.69976950710200        1.21529574078800       -5.94092292646900      o
      -15.88022181565400        0.92337336037500       -5.73316108027800      h
      -17.94983979149100        2.98959070293400       -5.62214752614300      h
       -0.04386402752800       10.21135252920700        9.39878326536600      o
        1.77551218451800       10.02385575846600        9.50826978411700      h
       -0.66475768157500        8.50309995841500        8.99452554329300      h
       -7.02949825527300       11.50450705175800        4.23891469618300      o
       -6.64467129521000       10.35172779287600        5.64341120534900      h
       -5.49798069856600       12.48523087518900        4.10495137791800      h
       -5.35512050706800        9.87336924285100       -3.87055637065700      o
       -6.71557712438400        9.95555912568900       -2.63106585154500      h
       -5.21678497371600       11.47843077667400       -4.69086251589900      h
       11.13381958627600        9.10770500588000       -3.69758579932200      o
        9.54375617841200       10.05761390597200       -3.66294765273900      h
       10.80741895088200        7.49802742147300       -2.84290016997300      h
      -13.05652777634500        5.33300755686300        3.78676894335900      o
      -12.79411155592700        7.09450846980800        4.25798183561400      h
      -13.49041258707900        5.38478127026800        2.00269412805100      h
       10.22627135338400        4.54797349927700       -1.79226135000600      o
       10.30640877425500        3.37860535900600       -3.23977851315800      h
       10.66120090232100        3.64931616940600       -0.27237577518000      h
       15.40907945194000        4.40035179610700        6.36309484878500      o
       16.91444481023200        3.74637489335800        7.16735650148700      h
       15.88931482467700        5.92311282707000        5.43312476201300      h
        1.97507327828100        3.89264355104800       -0.86391194266400      o
        3.53829103843200        4.89088419011100       -0.90089096062100      h
        0.60075125166900        5.05128991049200       -1.20215176536500      h
      -11.17081916766400        5.50444346833800       -5.59056328459800      o
      -12.25854845368800        4.89068541928700       -6.96523184707500      h
       -9.44131521165500        5.26359334034900       -6.11725838956100      h
       15.47243878261100        6.79752114197000       -5.86800287525600      o
       14.07222409840500        7.84273087055900       -5.33049596159900      h
       16.82240184281500        7.19395100859000       -4.66278605547000      h
        6.55267581018100        0.65942397732700       12.46091079499500      o
        5.71862745519300        1.98640275321000       13.39513714308100      h
        5.24479740437100       -0.63132685784700       12.19820381454000      h
      -16.71719992956600       -5.47457594871000        6.31025115780700      o
      -15.76344970927100       -6.43776192159100        5.07961278646000      h
      -15.52532471028700       -4.97999914452100        7.61913528899600      h
        4.70657918652800       -5.43686015476200        7.64571237112500      o
        6.01767392971500       -5.77801934591800        8.89614659197600      h
        4.90799228617600       -6.74588961286800        6.34096876252800      h
      -11.20459265199700       -9.10971592713600       -6.26018779586300      o
       -9.43848958740200       -9.43171372122100       -6.70358174763600      h
      -12.21235373549500      -10.33187981925000       -7.13543710495000      h
       -0.71820662191700       -5.07247214383300       14.01683079182200      o
       -2.42334573711700       -4.41170952036000       14.13521724535200      h
       -0.84293553713900       -6.69373436606100       13.14989852606300      h
       12.88312372568700       11.18563450345500        0.80950102277600      o
       12.71275189187100       10.43800886323000       -0.86220486212900      h
       11.60166807791400       12.51191416955400        0.85267026270200      h
       -5.51253538351200       -6.95540167221100      -11.38421856732800      o
       -5.45895812718800       -7.73326514975300      -13.01465128868200      h
       -3.71521703105700       -6.74014111736400      -10.83582699642100      h
       -5.72674479587400        8.62562635193400        8.17948005948000      o
       -6.99683059037700        7.46056424438900        8.78804712753500      h
       -4.88059122173900        9.34126127056200        9.60788257662499      h
        4.71794851785600        8.28145755582900       10.25167663761700      o
        6.48217814272700        8.89867184958000       10.09536035127400      h
        4.58366344067800        7.49704103063701       11.88203049201300      h
        0.51587868959737       -2.88496862349464        3.20479459270443      o
        0.05945498013022       -2.83157639716019        1.42407531861277      h
        1.94080876659294       -1.77608612097308        3.32032427905905      h
       -0.08147295472150       -1.75555192486461       -1.68062572309756      o
        0.42593829181818       -2.56842334497484       -3.22315900224933      h
       -0.86953728479739       -0.18618054390642       -2.15193662584224      h
$end
 
 Bond Distances (Angstroems)
 ---------------------------
O1-H2=0.9866         O1-H3=0.9705         H2-O1=0.9866         H3-O1=0.9705         O4-H5=0.9748         O4-H6=0.9894         
H5-O4=0.9748         H6-O4=0.9894         O7-H8=0.9739         O7-H9=0.9717         H8-O7=0.9739         H9-O7=0.9717         
O10-H11=0.9774       O10-H12=0.9684       H11-O10=0.9774       H12-O10=0.9684       O13-H14=0.9785       O13-H15=0.9682       
[...]
   160   8 o      161   1 h                                       0.9741907
   160   8 o      162   1 h                                       0.9803470
   163   8 o      164   1 h                                       0.9774464
   163   8 o      165   1 h                                       0.9910191
   166   8 o      167   1 h                                       0.9666572
   166   8 o      168   1 h                                       0.9619671
   169   8 o      170   1 h                                       0.9799452
   169   8 o      171   1 h                                       0.9836041
   172   8 o      173   1 h                                       0.9627229
   172   8 o      174   1 h                                       0.9583674
   175   8 o      176   1 h                                       0.9679111
   175   8 o      177   1 h                                       0.9692391
   178   8 o      179   1 h                                       0.9760795
   178   8 o      180   1 h                                       0.9689832
   181   8 o      182   1 h                                       0.9651434
   181   8 o      183   1 h                                       0.9742837
   184   8 o      185   1 h                                       0.9761403
   184   8 o      186   1 h                                       0.9651676
   187   8 o      188   1 h                                       0.9842785
   187   8 o      189   1 h                                       0.9797871
   190   8 o      191   1 h                                       0.9713653
   190   8 o      192   1 h                                       0.9711246
   193   8 o      194   1 h                                       0.9711141
   193   8 o      195   1 h                                       0.9778234
   196   8 o      197   1 h                                       0.9707254
   196   8 o      198   1 h                                       0.9688376
   199   8 o      200   1 h                                       0.9640167
   199   8 o      201   1 h                                       0.9744287
   202   8 o      203   1 h                                       0.9721438
   202   8 o      204   1 h                                       0.9707534
   205   8 o      206   1 h                                       0.9795538
   205   8 o      207   1 h                                       0.9623964
   208   8 o      209   1 h                                       0.9699481
   208   8 o      210   1 h                                       0.9650164
   211   8 o      212   1 h                                       0.9829572
   211   8 o      213   1 h                                       0.9788390
   214   8 o      215   1 h                                       0.9757838
   214   8 o      216   1 h                                       0.9712639
   217   8 o      218   1 h                                       0.9640331
   217   8 o      219   1 h                                       0.9741056
   220   8 o      221   1 h                                       0.9572424
   220   8 o      222   1 h                                       0.9838165
   223   8 o      224   1 h                                       0.9604690
   223   8 o      225   1 h                                       0.9756493
   226   8 o      227   1 h                                       0.9850891
   226   8 o      228   1 h                                       0.9674671
   229   8 o      230   1 h                                       0.9869849
   229   8 o      231   1 h                                       0.9782893
   232   8 o      233   1 h                                       0.9617082
   232   8 o      234   1 h                                       0.9836750
   235   8 o      236   1 h                                       0.9777987
   235   8 o      237   1 h                                       0.9860590
   238   8 o      239   1 h                                       0.9763836
   238   8 o      240   1 h                                       0.9769802
   241   8 o      242   1 h                                       0.9888813
   241   8 o      243   1 h                                       0.9757112
   244   8 o      245   1 h                                       0.9922147
   244   8 o      246   1 h                                       0.9575882
   247   8 o      248   1 h                                       0.9861694
   247   8 o      249   1 h                                       0.9821508
   250   8 o      251   1 h                                       0.9829359
   250   8 o      252   1 h                                       0.9731590
   253   8 o      254   1 h                                       0.9858250
   253   8 o      255   1 h                                       0.9610856
   256   8 o      257   1 h                                       0.9751082
   256   8 o      258   1 h                                       0.9795514
   259   8 o      260   1 h                                       0.9763226
   259   8 o      261   1 h                                       0.9779855
   262   8 o      263   1 h                                       0.9978350 (max)
   262   8 o      264   1 h                                       0.9566480
   265   8 o      266   1 h                                       0.9703588
   265   8 o      267   1 h                                       0.9804206
   268   8 o      269   1 h                                       0.9902618
   268   8 o      270   1 h                                       0.9643422
   271   8 o      272   1 h                                       0.9813082
   271   8 o      273   1 h                                       0.9885431
   274   8 o      275   1 h                                       0.9702424
   274   8 o      276   1 h                                       0.9896899
   277   8 o      278   1 h                                       0.9614248
   277   8 o      279   1 h                                       0.9668122
   280   8 o      281   1 h                                       0.9704991
   280   8 o      282   1 h                                       0.9669532
   283   8 o      284   1 h                                       0.9787669
   283   8 o      285   1 h                                       0.9745948
   286   8 o      287   1 h                                       0.9814208
   286   8 o      288   1 h                                       0.9565140
   289   8 o      290   1 h                                       0.9662577
   289   8 o      291   1 h                                       0.9801645
   292   8 o      293   1 h                                       0.9692880
   292   8 o      294   1 h                                       0.9738261
   295   8 o      296   1 h                                       0.9820823
   295   8 o      297   1 h                                       0.9736465
   298   8 o      299   1 h                                       0.9647327
   298   8 o      300   1 h                                       0.9637121
   301   8 o      302   1 h                                       0.9690289
   301   8 o      303   1 h                                       0.9885847
   304   8 o      305   1 h                                       0.9792568
   304   8 o      306   1 h                                       0.9625314
   307   8 o      308   1 h                                       0.9596962
   307   8 o      309   1 h                                       0.9762853
   310   8 o      311   1 h                                       0.9684654
   310   8 o      312   1 h                                       0.9660626
   313   8 o      314   1 h                                       0.9675457
   313   8 o      315   1 h                                       0.9851649
   316   8 o      317   1 h                                       0.9691968
   316   8 o      318   1 h                                       0.9721654
   319   8 o      320   1 h                                       0.9786082
   319   8 o      321   1 h                                       0.9765874
   322   8 o      323   1 h                                       0.9778428
   322   8 o      324   1 h                                       0.9776203
   325   8 o      326   1 h                                       0.9728628
   325   8 o      327   1 h                                       0.9797443
   328   8 o      329   1 h                                       0.9583189
   328   8 o      330   1 h                                       0.9776646
   331   8 o      332   1 h                                       0.9695281
   331   8 o      333   1 h                                       0.9732999
   334   8 o      335   1 h                                       0.9881989
   334   8 o      336   1 h                                       0.9565311
   337   8 o      338   1 h                                       0.9921133
   337   8 o      339   1 h                                       0.9558279
   340   8 o      341   1 h                                       0.9752991
   340   8 o      342   1 h                                       0.9742366
   343   8 o      344   1 h                                       0.9738862
   343   8 o      345   1 h                                       0.9771047
   346   8 o      347   1 h                                       0.9751667
   346   8 o      348   1 h                                       0.9789816
   349   8 o      350   1 h                                       0.9885827
   349   8 o      351   1 h                                       0.9719651
   352   8 o      353   1 h                                       0.9802845
   352   8 o      354   1 h                                       0.9815696
   355   8 o      356   1 h                                       0.9680106
   355   8 o      357   1 h                                       0.9864091
   358   8 o      359   1 h                                       0.9646643
   358   8 o      360   1 h                                       0.9814344
   361   8 o      362   1 h                                       0.9743774
   361   8 o      363   1 h                                       0.9678959
   364   8 o      365   1 h                                       0.9643131
   364   8 o      366   1 h                                       0.9780111
   367   8 o      368   1 h                                       0.9674234
   367   8 o      369   1 h                                       0.9650256
   370   8 o      371   1 h                                       0.9680456
   370   8 o      372   1 h                                       0.9773772
   373   8 o      374   1 h                                       0.9617303
   373   8 o      375   1 h                                       0.9752717
   376   8 o      377   1 h                                       0.9691379
   376   8 o      378   1 h                                       0.9730240
   379   8 o      380   1 h                                       0.9698609
   379   8 o      381   1 h                                       0.9605107
   382   8 o      383   1 h                                       0.9691246
   382   8 o      384   1 h                                       0.9652752
   385   8 o      386   1 h                                       0.9739378
   385   8 o      387   1 h                                       0.9667345
   388   8 o      389   1 h                                       0.9590167
   388   8 o      390   1 h                                       0.9814006
   391   8 o      392   1 h                                       0.9563494
   391   8 o      393   1 h                                       0.9832240
   394   8 o      395   1 h                                       0.9670498
   394   8 o      396   1 h                                       0.9944805
   397   8 o      398   1 h                                       0.9819670
   397   8 o      399   1 h                                       0.9555132 (min)
   400   8 o      401   1 h                                       0.9728842
   400   8 o      402   1 h                                       0.9790309
   403   8 o      404   1 h                                       0.9714962
   403   8 o      405   1 h                                       0.9790375
   406   8 o      407   1 h                                       0.9718783
   406   8 o      408   1 h                                       0.9664870
   409   8 o      410   1 h                                       0.9781871
   409   8 o      411   1 h                                       0.9689304
   412   8 o      413   1 h                                       0.9744974
   412   8 o      414   1 h                                       0.9758524
   415   8 o      416   1 h                                       0.9634777
   415   8 o      417   1 h                                       0.9670911
   418   8 o      419   1 h                                       0.9810323
   418   8 o      420   1 h                                       0.9571723
   421   8 o      422   1 h                                       0.9810757
   421   8 o      423   1 h                                       0.9701326
   424   8 o      425   1 h                                       0.9827477
   424   8 o      426   1 h                                       0.9648113
   427   8 o      428   1 h                                       0.9826732
   427   8 o      429   1 h                                       0.9662855
   430   8 o      431   1 h                                       0.9799061
   430   8 o      432   1 h                                       0.9584538
   433   8 o      434   1 h                                       0.9833585
   433   8 o      435   1 h                                       0.9588531
   436   8 o      437   1 h                                       0.9698144
   436   8 o      438   1 h                                       0.9828687
   439   8 o      440   1 h                                       0.9803629
   439   8 o      441   1 h                                       0.9752012
   442   8 o      443   1 h                                       0.9772270
   442   8 o      444   1 h                                       0.9857165
   445   8 o      446   1 h                                       0.9708081
   445   8 o      447   1 h                                       0.9624058
   448   8 o      449   1 h                                       0.9960976
   448   8 o      450   1 h                                       0.9808650
   451   8 o      452   1 h                                       0.9675146
   451   8 o      453   1 h                                       0.9841011
   454   8 o      455   1 h                                       0.9720084
   454   8 o      456   1 h                                       0.9747833
   457   8 o      458   1 h                                       0.9717646
   457   8 o      459   1 h                                       0.9835019
   460   8 o      461   1 h                                       0.9778980
   460   8 o      462   1 h                                       0.9771720
   463   8 o      464   1 h                                       0.9761015
   463   8 o      465   1 h                                       0.9807487
   466   8 o      467   1 h                                       0.9813546
   466   8 o      468   1 h                                       0.9630845
   469   8 o      470   1 h                                       0.9696041
   469   8 o      471   1 h                                       0.9853303
   472   8 o      473   1 h                                       0.9828465
   472   8 o      474   1 h                                       0.9649778
   475   8 o      476   1 h                                       0.9748839
   475   8 o      477   1 h                                       0.9566643
   478   8 o      479   1 h                                       0.9803112
   478   8 o      480   1 h                                       0.9797766
   481   8 o      482   1 h                                       0.9748631
   481   8 o      483   1 h                                       0.9719964
   484   8 o      485   1 h                                       0.9856272
   484   8 o      486   1 h                                       0.9622883
   487   8 o      488   1 h                                       0.9672005
   487   8 o      489   1 h                                       0.9778004
   490   8 o      491   1 h                                       0.9816918
   490   8 o      492   1 h                                       0.9679213
   493   8 o      494   1 h                                       0.9828415
   493   8 o      495   1 h                                       0.9651648
   496   8 o      497   1 h                                       0.9673931
   496   8 o      498   1 h                                       0.9803506
   499   8 o      500   1 h                                       0.9655547
   499   8 o      501   1 h                                       0.9822760
   502   8 o      503   1 h                                       0.9688190
   502   8 o      504   1 h                                       0.9726431
   505   8 o      506   1 h                                       0.9756032
   505   8 o      507   1 h                                       0.9838260
   508   8 o      509   1 h                                       0.9785346
   508   8 o      510   1 h                                       0.9576980
   511   8 o      512   1 h                                       0.9697268
   511   8 o      513   1 h                                       0.9751260
   514   8 o      515   1 h                                       0.9732505
   514   8 o      516   1 h                                       0.9761865
   517   8 o      518   1 h                                       0.9563703
   520   8 o      521   1 h                                       0.9672286
   520   8 o      522   1 h                                       0.9566909
   523   8 o      524   1 h                                       0.9925276
   523   8 o      525   1 h                                       0.9600442
   526   8 o      527   1 h                                       0.9731877
   526   8 o      528   1 h                                       0.9574151
   529   8 o      530   1 h                                       0.9609537
   529   8 o      531   1 h                                       0.9621872

 * 1 distinct bonds (by element types)

   Z      Z             #   av. dist./Å        max./Å        min./Å
   1 H    8 O         353     0.9738627     0.9978350     0.9555132


optimized geometry written to: xtbopt.coord


           -------------------------------------------------
          | TOTAL ENERGY             -901.199013881785 Eh   |
          | GRADIENT NORM               0.003117733993 Eh/α |
          | HOMO-LUMO GAP               5.963073558021 eV   |
           -------------------------------------------------

------------------------------------------------------------------------
 * finished run on 2022/11/17 at 06:51:52.557     
------------------------------------------------------------------------
 total:
 * wall-time:     0 d,  0 h,  3 min,  4.574 sec
 *  cpu-time:     0 d,  0 h,  4 min, 44.538 sec
 * ratio c/w:     1.542 speedup
 SCF:
 * wall-time:     0 d,  0 h,  0 min,  8.244 sec
 *  cpu-time:     0 d,  0 h,  0 min, 13.338 sec
 * ratio c/w:     1.618 speedup
 ANC optimizer:
 * wall-time:     0 d,  0 h,  2 min, 55.763 sec
 *  cpu-time:     0 d,  0 h,  4 min, 30.173 sec
 * ratio c/w:     1.537 speedup

