      -----------------------------------------------------------      
     |                   =====================                   |     
     |                           x T B                           |     
     |                   =====================                   |     
     |                         S. Grimme                         |     
     |          Mulliken Center for Theoretical Chemistry        |     
     |                    University of Bonn                     |     
      -----------------------------------------------------------      

   * xtb version 6.5.1 (579679a) compiled by 'ehlert@majestix' on 2022-07-11

   xtb is free software: you can redistribute it and/or modify it under
   the terms of the GNU Lesser General Public License as published by
   the Free Software Foundation, either version 3 of the License, or
   (at your option) any later version.
   
   xtb is distributed in the hope that it will be useful,
   but WITHOUT ANY WARRANTY; without even the implied warranty of
   MERCHANTABILITY or FITNESS FOR A PARTICULAR PURPOSE.  See the
   GNU Lesser General Public License for more details.
   
   Cite this work as:
   * C. Bannwarth, E. Caldeweyher, S. Ehlert, A. Hansen, P. Pracht,
     J. Seibert, S. Spicher, S. Grimme, WIREs Comput. Mol. Sci., 2020, 11,
     e01493. DOI: 10.1002/wcms.1493
   
   for GFN2-xTB:
   * C. Bannwarth, S. Ehlert and S. Grimme., J. Chem. Theory Comput., 2019,
     15, 1652-1671. DOI: 10.1021/acs.jctc.8b01176
   for GFN1-xTB:
   * S. Grimme, C. Bannwarth, P. Shushkov, J. Chem. Theory Comput., 2017,
     13, 1989-2009. DOI: 10.1021/acs.jctc.7b00118
   for GFN0-xTB:
   * P. Pracht, E. Caldeweyher, S. Ehlert, S. Grimme, ChemRxiv, 2019, preprint.
     DOI: 10.26434/chemrxiv.8326202.v1
   for GFN-FF:
   * S. Spicher and S. Grimme, Angew. Chem. Int. Ed., 2020, 59, 15665-15673.
     DOI: 10.1002/anie.202004239
   
   for ALPB and GBSA implicit solvation:
   * S. Ehlert, M. Stahn, S. Spicher, S. Grimme, J. Chem. Theory Comput.,
     2021, 17, 4250-4261. DOI: 10.1021/acs.jctc.1c00471
   
   for DFT-D4:
   * E. Caldeweyher, C. Bannwarth and S. Grimme, J. Chem. Phys., 2017,
     147, 034112. DOI: 10.1063/1.4993215
   * E. Caldeweyher, S. Ehlert, A. Hansen, H. Neugebauer, S. Spicher,
     C. Bannwarth and S. Grimme, J. Chem. Phys., 2019, 150, 154122.
     DOI: 10.1063/1.5090222
   * E. Caldeweyher, J.-M. Mewes, S. Ehlert and S. Grimme, Phys. Chem. Chem. Phys.
     2020, 22, 8499-8512. DOI: 10.1039/D0CP00502A
   
   for sTDA-xTB:
   * S. Grimme and C. Bannwarth, J. Chem. Phys., 2016, 145, 054103.
     DOI: 10.1063/1.4959605
   
   in the mass-spec context:
   * V. Asgeirsson, C. Bauer and S. Grimme, Chem. Sci., 2017, 8, 4879.
     DOI: 10.1039/c7sc00601b
   * J. Koopman and S. Grimme, ACS Omega 2019, 4, 12, 15120-15133.
     DOI: 10.1021/acsomega.9b02011
   
   for metadynamics refer to:
   * S. Grimme, J. Chem. Theory Comput., 2019, 155, 2847-2862
     DOI: 10.1021/acs.jctc.9b00143
   
   for SPH calculations refer to:
   * S. Spicher and S. Grimme, J. Chem. Theory Comput., 2021, 17, 1701-1714
     DOI: 10.1021/acs.jctc.0c01306
   
   with help from (in alphabetical order)
   P. Atkinson, C. Bannwarth, F. Bohle, G. Brandenburg, E. Caldeweyher
   M. Checinski, S. Dohm, S. Ehlert, S. Ehrlich, I. Gerasimov, C. Hölzer
   A. Katbashev, J. Koopman, C. Lavigne, S. Lehtola, F. März, M. Müller,
   F. Musil, H. Neugebauer, J. Pisarek, C. Plett, P. Pracht, F. Pultar,
   J. Seibert, P. Shushkov, S. Spicher, M. Stahn, M. Steiner, T. Strunk,
   J. Stückrath, T. Rose, and J. Unsleber
   
 * started run on 2022/11/17 at 06:54:49.176     

           -------------------------------------------------
          |                Calculation Setup                |
           -------------------------------------------------

          program call               : xtb xtbopt.coord --gfn2 --sp --gbsa water
          hostname                   : cn0363
          coordinate file            : xtbopt.coord
          omp threads                :                     2

   ID    Z sym.   atoms
    1    8 o      1, 4, 7, 10, 13, 16, 19, 22, 25, 28, 31, 34, 37, 40, 43,
                  46, 49, 52, 55, 58, 61, 64, 67, 70, 73, 76, 79, 82, 85, 88,
                  91, 94, 97, 100, 103, 106, 109, 112, 115, 118, 121, 124,
                  127, 130, 133, 136, 139, 142, 145, 148, 151, 154, 157, 160,
                  163, 166, 169, 172, 175, 178, 181, 184, 187, 190, 193, 196,
                  199, 202, 205, 208, 211, 214, 217, 220, 223, 226, 229, 232,
                  235, 238, 241, 244, 247, 250, 253, 256, 259, 262, 265, 268,
                  271, 274, 277, 280, 283, 286, 289, 292, 295, 298, 301, 304,
                  307, 310, 313, 316, 319, 322, 325, 328, 331, 334, 337, 340,
                  343, 346, 349, 352, 355, 358, 361, 364, 367, 370, 373, 376,
                  379, 382, 385, 388, 391, 394, 397, 400, 403, 406, 409, 412,
                  415, 418, 421, 424, 427, 430, 433, 436, 439, 442, 445, 448,
                  451, 454, 457, 460, 463, 466, 469, 472, 475, 478, 481, 484,
                  487, 490, 493, 496, 499, 502, 505, 508, 511, 514, 517, 520,
                  523, 526, 529
    2    1 h      2, 3, 5, 6, 8, 9, 11, 12, 14, 15, 17, 18, 20, 21, 23, 24,
                  26, 27, 29, 30, 32, 33, 35, 36, 38, 39, 41, 42, 44, 45, 47,
                  48, 50, 51, 53, 54, 56, 57, 59, 60, 62, 63, 65, 66, 68, 69,
                  71, 72, 74, 75, 77, 78, 80, 81, 83, 84, 86, 87, 89, 90, 92,
                  93, 95, 96, 98, 99, 101, 102, 104, 105, 107, 108, 110, 111,
                  113, 114, 116, 117, 119, 120, 122, 123, 125, 126, 128, 129,
                  131, 132, 134, 135, 137, 138, 140, 141, 143, 144, 146, 147,
                  149, 150, 152, 153, 155, 156, 158, 159, 161, 162, 164, 165,
                  167, 168, 170, 171, 173, 174, 176, 177, 179, 180, 182, 183,
                  185, 186, 188, 189, 191, 192, 194, 195, 197, 198, 200, 201,
                  203, 204, 206, 207, 209, 210, 212, 213, 215, 216, 218, 219,
                  221, 222, 224, 225, 227, 228, 230, 231, 233, 234, 236, 237,
                  239, 240, 242, 243, 245, 246, 248, 249, 251, 252, 254, 255,
                  257, 258, 260, 261, 263, 264, 266, 267, 269, 270, 272, 273,
                  275, 276, 278, 279, 281, 282, 284, 285, 287, 288, 290, 291,
                  293, 294, 296, 297, 299, 300, 302, 303, 305, 306, 308, 309,
                  311, 312, 314, 315, 317, 318, 320, 321, 323, 324, 326, 327,
                  329, 330, 332, 333, 335, 336, 338, 339, 341, 342, 344, 345,
                  347, 348, 350, 351, 353, 354, 356, 357, 359, 360, 362, 363,
                  365, 366, 368, 369, 371, 372, 374, 375, 377, 378, 380, 381,
                  383, 384, 386, 387, 389, 390, 392, 393, 395, 396, 398, 399,
                  401, 402, 404, 405, 407, 408, 410, 411, 413, 414, 416, 417,
                  419, 420, 422, 423, 425, 426, 428, 429, 431, 432, 434, 435,
                  437, 438, 440, 441, 443, 444, 446, 447, 449, 450, 452, 453,
                  455, 456, 458, 459, 461, 462, 464, 465, 467, 468, 470, 471,
                  473, 474, 476, 477, 479, 480, 482, 483, 485, 486, 488, 489,
                  491, 492, 494, 495, 497, 498, 500, 501, 503, 504, 506, 507,
                  509, 510, 512, 513, 515, 516, 518, 519, 521, 522, 524, 525,
                  527, 528, 530, 531

molecular fragmentation (1/2 indicates fragments):
111222222222222222222222222222222222222222222222222222222222222222222222
222222222222222222222222222222222222222222222222222222222222222222222222
222222222222222222222222222222222222222222222222222222222222222222222222
222222222222222222222222222222222222222222222222222222222222222222222222
222222222222222222222222222222222222222222222222222222222222222222222222
222222222222222222222222222222222222222222222222222222222222222222222222
222222222222222222222222222222222222222222222222222222222222222222222222
222222222222222222222222222
# atoms in fragment 1/2:     3   528
 fragment masses (1/2) :       18.02     3170.69
CMA distance (Bohr)    :   6.880
constraining FC (au)   :  0.0500

           -------------------------------------------------
          |                 G F N 2 - x T B                 |
           -------------------------------------------------

        Reference                      10.1021/acs.jctc.8b01176
      * Hamiltonian:
        H0-scaling (s, p, d)           1.850000    2.230000    2.230000
        zeta-weighting                 0.500000
      * Dispersion:
        s8                             2.700000
        a1                             0.520000
        a2                             5.000000
        s9                             5.000000
      * Repulsion:
        kExp                           1.500000    1.000000
        rExp                           1.000000
      * Coulomb:
        alpha                          2.000000
        third order                    shell-resolved
        anisotropic                    true
        a3                             3.000000
        a5                             4.000000
        cn-shift                       1.200000
        cn-exp                         4.000000
        max-rad                        5.000000

      * Solvation model:               GBSA
        Solvent                        water
        Parameter file                 internal GFN2-xTB/GBSA
        Dielectric constant                8.0200E+01
        Reference state                gsolv [1 M gas/solution]
        Free energy shift                  1.8574E-03 Eh       1.1656E+00 kcal/mol
        Temperature                        2.9815E+02 K
        Density                            1.0000E+00 kg/L
        Solvent mass                       1.8000E+01 g/mol
        Interaction kernel             Still
        Born radius scaling (c1)           1.5524E+00
        Born radii integrator          GBOBC
        Born offset                        2.4628E-02 a0       4.6540E-02 AA
        H-bond correction              true
        Ion screening                  false
        Surface tension                    1.0000E-05 Eh       1.5569E+01 dyn/cm
        Grid points                               230 per atom

          ...................................................
          :                      SETUP                      :
          :.................................................:
          :  # basis functions                1062          :
          :  # atomic orbitals                1062          :
          :  # shells                          708          :
          :  # electrons                      1416          :
          :  max. iterations                   250          :
          :  Hamiltonian                  GFN2-xTB          :
          :  restarted?                      false          :
          :  GBSA solvation                   true          :
          :  PC potential                    false          :
          :  electronic temp.          300.0000000     K    :
          :  accuracy                    1.0000000          :
          :  -> integral cutoff          0.2500000E+02      :
          :  -> integral neglect         0.1000000E-07      :
          :  -> SCF convergence          0.1000000E-05 Eh   :
          :  -> wf. convergence          0.1000000E-03 e    :
          :  Broyden damping             0.4000000          :
          ...................................................

 iter      E             dE          RMSdq      gap      omega  full diag
   1   -906.7656559 -0.906766E+03  0.407E+00    8.55       0.0  T
   2   -906.8280729 -0.624170E-01  0.241E+00    8.05       1.0  T
   3   -906.8534334 -0.253605E-01  0.229E-01    6.82       1.0  T
   4   -906.8574134 -0.397995E-02  0.494E-02    7.09       1.0  T
   5   -906.8575453 -0.131960E-03  0.309E-02    7.03       1.0  T
   6   -906.8575764 -0.311019E-04  0.335E-03    7.04       1.3  T
   7   -906.8575773 -0.898167E-06  0.827E-04    7.04       5.2  T
   8   -906.8575774 -0.330160E-07  0.455E-04    7.04       9.5  T

   *** convergence criteria satisfied after 8 iterations ***

         #    Occupation            Energy/Eh            Energy/eV
      -------------------------------------------------------------
         1        2.0000           -0.6598548             -17.9556
       ...           ...                  ...                  ...
       702        2.0000           -0.3424812              -9.3194
       703        2.0000           -0.3422334              -9.3126
       704        2.0000           -0.3370297              -9.1710
       705        2.0000           -0.3366631              -9.1611
       706        2.0000           -0.3267635              -8.8917
       707        2.0000           -0.3199822              -8.7072
       708        2.0000           -0.3112852              -8.4705 (HOMO)
       709                         -0.0525869              -1.4310 (LUMO)
       710                         -0.0449413              -1.2229
       711                         -0.0308484              -0.8394
       712                         -0.0232369              -0.6323
       713                         -0.0204260              -0.5558
       ...                                ...                  ...
      1062                          0.5034105              13.6985
      -------------------------------------------------------------
                  HL-Gap            0.2586984 Eh            7.0395 eV
             Fermi-level           -0.1819360 Eh           -4.9507 eV

 SCC (total)                   0 d,  0 h,  0 min,  8.162 sec
 SCC setup                      ...        0 min,  0.062 sec (  0.761%)
 Dispersion                     ...        0 min,  0.050 sec (  0.618%)
 classical contributions        ...        0 min,  0.012 sec (  0.141%)
 integral evaluation            ...        0 min,  0.314 sec (  3.850%)
 iterations                     ...        0 min,  2.913 sec ( 35.692%)
 molecular gradient             ...        0 min,  4.785 sec ( 58.627%)
 printout                       ...        0 min,  0.025 sec (  0.310%)

         :::::::::::::::::::::::::::::::::::::::::::::::::::::
         ::                     SUMMARY                     ::
         :::::::::::::::::::::::::::::::::::::::::::::::::::::
         :: total energy            -901.415146575594 Eh    ::
         :: total w/o Gsasa/hb      -901.223668770370 Eh    ::
         :: gradient norm              0.109545824931 Eh/a0 ::
         :: HOMO-LUMO gap              7.039540446314 eV    ::
         ::.................................................::
         :: SCC energy              -906.857577365632 Eh    ::
         :: -> isotropic ES            5.266567294011 Eh    ::
         :: -> anisotropic ES         -1.125448826796 Eh    ::
         :: -> anisotropic XC         -0.087017794999 Eh    ::
         :: -> dispersion             -0.530224140043 Eh    ::
         :: -> Gsolv                  -0.229953915303 Eh    ::
         ::    -> Gelec               -0.038476110079 Eh    ::
         ::    -> Gsasa                0.003290821809 Eh    ::
         ::    -> Ghb                 -0.196626070160 Eh    ::
         ::    -> Gshift               0.001857443127 Eh    ::
         :: repulsion energy           5.347537956622 Eh    ::
         :: add. restraining           0.000000000000 Eh    ::
         :: total charge               0.000000000000 e     ::
         :::::::::::::::::::::::::::::::::::::::::::::::::::::

           -------------------------------------------------
          |                Property Printout                |
           -------------------------------------------------

    * Orbital Energies and Occupations

         #    Occupation            Energy/Eh            Energy/eV
      -------------------------------------------------------------
         1        2.0000           -0.6598548             -17.9556
       ...           ...                  ...                  ...
       696        2.0000           -0.3528930              -9.6027
       697        2.0000           -0.3528421              -9.6013
       698        2.0000           -0.3518996              -9.5757
       699        2.0000           -0.3514814              -9.5643
       700        2.0000           -0.3445545              -9.3758
       701        2.0000           -0.3425782              -9.3220
       702        2.0000           -0.3424812              -9.3194
       703        2.0000           -0.3422334              -9.3126
       704        2.0000           -0.3370297              -9.1710
       705        2.0000           -0.3366631              -9.1611
       706        2.0000           -0.3267635              -8.8917
       707        2.0000           -0.3199822              -8.7072
       708        2.0000           -0.3112852              -8.4705 (HOMO)
       709                         -0.0525869              -1.4310 (LUMO)
       710                         -0.0449413              -1.2229
       711                         -0.0308484              -0.8394
       712                         -0.0232369              -0.6323
       713                         -0.0204260              -0.5558
       714                         -0.0142738              -0.3884
       715                         -0.0097430              -0.2651
       716                          0.0001749               0.0048
       717                          0.0007310               0.0199
       718                          0.0071862               0.1955
       719                          0.0104878               0.2854
       ...                                ...                  ...
      1062                          0.5034105              13.6985
      -------------------------------------------------------------
                  HL-Gap            0.2586984 Eh            7.0395 eV
             Fermi-level           -0.1819360 Eh           -4.9507 eV

     #   Z          covCN         q      C6AA      α(0)
     1   8 o        1.607    -0.688    27.401     7.065
     2   1 h        0.803     0.345     0.601     1.218
     3   1 h        0.804     0.314     0.679     1.294
     4   8 o        1.605    -0.679    27.163     7.034
     5   1 h        0.804     0.328     0.644     1.260
     6   1 h        0.802     0.345     0.600     1.217
     7   8 o        1.608    -0.684    27.284     7.050
     8   1 h        0.804     0.334     0.626     1.243
     9   1 h        0.804     0.340     0.612     1.229
    10   8 o        1.608    -0.663    26.744     6.980
    11   1 h        0.803     0.343     0.604     1.221
    12   1 h        0.804     0.323     0.655     1.272
    13   8 o        1.608    -0.678    27.132     7.030
    14   1 h        0.803     0.333     0.630     1.247
    15   1 h        0.804     0.350     0.587     1.204
    16   8 o        1.609    -0.671    26.961     7.008
    17   1 h        0.804     0.363     0.560     1.175
    18   1 h        0.805     0.321     0.662     1.278
    19   8 o        1.608    -0.662    26.729     6.978
    20   1 h        0.803     0.341     0.611     1.228
    21   1 h        0.805     0.331     0.634     1.251
    22   8 o        1.608    -0.666    26.811     6.988
    23   1 h        0.803     0.338     0.617     1.234
    24   1 h        0.805     0.327     0.646     1.262
    25   8 o        1.606    -0.685    27.305     7.052
    26   1 h        0.803     0.340     0.612     1.229
    27   1 h        0.803     0.344     0.603     1.220
    28   8 o        1.607    -0.696    27.600     7.090
    29   1 h        0.803     0.357     0.572     1.188
    30   1 h        0.803     0.348     0.593     1.210
    31   8 o        1.607    -0.688    27.404     7.065
    32   1 h        0.803     0.340     0.612     1.229
    33   1 h        0.804     0.345     0.601     1.217
    34   8 o        1.608    -0.667    26.845     6.993
    35   1 h        0.802     0.357     0.573     1.189
    36   1 h        0.806     0.317     0.672     1.288
    37   8 o        1.605    -0.683    27.254     7.046
    38   1 h        0.802     0.361     0.563     1.179
    39   1 h        0.803     0.328     0.641     1.258
    40   8 o        1.607    -0.700    27.711     7.105
    41   1 h        0.804     0.336     0.622     1.238
    42   1 h        0.803     0.358     0.569     1.185
    43   8 o        1.606    -0.668    26.863     6.995
    44   1 h        0.802     0.335     0.626     1.243
    45   1 h        0.803     0.330     0.638     1.255
    46   8 o        1.609    -0.673    27.010     7.014
    47   1 h        0.805     0.338     0.616     1.233
    48   1 h        0.805     0.333     0.630     1.247
    49   8 o        1.609    -0.665    26.786     6.985
    50   1 h        0.805     0.336     0.622     1.239
    51   1 h        0.804     0.348     0.592     1.209
    52   8 o        1.608    -0.677    27.107     7.027
    53   1 h        0.804     0.345     0.601     1.217
    54   1 h        0.804     0.320     0.663     1.279
    55   8 o        1.606    -0.686    27.336     7.056
    56   1 h        0.803     0.331     0.634     1.251
    57   1 h        0.802     0.352     0.584     1.201
    58   8 o        1.606    -0.697    27.620     7.093
    59   1 h        0.803     0.350     0.589     1.205
    60   1 h        0.804     0.346     0.597     1.214
    61   8 o        1.607    -0.683    27.253     7.046
    62   1 h        0.804     0.350     0.587     1.204
    63   1 h        0.804     0.321     0.662     1.278
    64   8 o        1.608    -0.675    27.053     7.020
    65   1 h        0.803     0.368     0.547     1.162
    66   1 h        0.805     0.340     0.613     1.230
    67   8 o        1.609    -0.683    27.259     7.047
    68   1 h        0.804     0.343     0.606     1.222
    69   1 h        0.804     0.335     0.626     1.243
    70   8 o        1.607    -0.667    26.861     6.995
    71   1 h        0.803     0.351     0.586     1.202
    72   1 h        0.804     0.332     0.633     1.250
    73   8 o        1.607    -0.695    27.582     7.088
    74   1 h        0.803     0.352     0.584     1.200
    75   1 h        0.803     0.338     0.618     1.235
    76   8 o        1.607    -0.673    27.009     7.014
    77   1 h        0.805     0.345     0.599     1.215
    78   1 h        0.802     0.350     0.588     1.205
    79   8 o        1.609    -0.680    27.194     7.038
    80   1 h        0.805     0.333     0.630     1.246
    81   1 h        0.804     0.325     0.650     1.266
    82   8 o        1.606    -0.687    27.373     7.061
    83   1 h        0.803     0.346     0.598     1.214
    84   1 h        0.804     0.335     0.625     1.242
    85   8 o        1.607    -0.684    27.277     7.049
    86   1 h        0.805     0.326     0.648     1.264
    87   1 h        0.802     0.342     0.608     1.225
    88   8 o        1.609    -0.677    27.116     7.028
    89   1 h        0.804     0.337     0.619     1.236
    90   1 h        0.804     0.340     0.612     1.229
    91   8 o        1.609    -0.674    27.029     7.017
    92   1 h        0.804     0.327     0.646     1.263
    93   1 h        0.805     0.335     0.625     1.242
    94   8 o        1.609    -0.668    26.863     6.995
    95   1 h        0.803     0.342     0.607     1.224
    96   1 h        0.805     0.333     0.629     1.245
    97   8 o        1.608    -0.669    26.903     7.000
    98   1 h        0.805     0.336     0.623     1.240
    99   1 h        0.803     0.343     0.606     1.223
   100   8 o        1.607    -0.658    26.608     6.962
   101   1 h        0.803     0.339     0.616     1.233
   102   1 h        0.804     0.337     0.621     1.238
   103   8 o        1.607    -0.663    26.758     6.981
   104   1 h        0.803     0.334     0.627     1.244
   105   1 h        0.804     0.345     0.599     1.216
   106   8 o        1.609    -0.678    27.135     7.031
   107   1 h        0.804     0.334     0.627     1.243
   108   1 h        0.804     0.328     0.643     1.259
   109   8 o        1.606    -0.691    27.465     7.073
   110   1 h        0.803     0.351     0.586     1.202
   111   1 h        0.803     0.346     0.598     1.215
   112   8 o        1.606    -0.691    27.471     7.074
   113   1 h        0.803     0.353     0.581     1.197
   114   1 h        0.803     0.339     0.615     1.232
   115   8 o        1.608    -0.679    27.163     7.034
   116   1 h        0.804     0.343     0.606     1.223
   117   1 h        0.803     0.344     0.603     1.220
   118   8 o        1.607    -0.685    27.320     7.054
   119   1 h        0.805     0.314     0.680     1.295
   120   1 h        0.802     0.360     0.566     1.181
   121   8 o        1.605    -0.711    27.997     7.141
   122   1 h        0.802     0.358     0.570     1.186
   123   1 h        0.804     0.329     0.641     1.257
   124   8 o        1.607    -0.674    27.034     7.017
   125   1 h        0.802     0.335     0.625     1.242
   126   1 h        0.805     0.334     0.627     1.244
   127   8 o        1.608    -0.659    26.649     6.967
   128   1 h        0.803     0.343     0.604     1.221
   129   1 h        0.806     0.316     0.674     1.290
   130   8 o        1.608    -0.661    26.704     6.974
   131   1 h        0.802     0.363     0.559     1.175
   132   1 h        0.805     0.309     0.693     1.308
   133   8 o        1.607    -0.693    27.530     7.081
   134   1 h        0.803     0.351     0.587     1.204
   135   1 h        0.804     0.347     0.595     1.211
   136   8 o        1.607    -0.686    27.340     7.057
   137   1 h        0.804     0.344     0.603     1.220
   138   1 h        0.804     0.331     0.636     1.253
   139   8 o        1.607    -0.682    27.237     7.044
   140   1 h        0.804     0.323     0.656     1.272
   141   1 h        0.803     0.357     0.573     1.189
   142   8 o        1.607    -0.705    27.858     7.124
   143   1 h        0.803     0.350     0.589     1.206
   144   1 h        0.804     0.340     0.613     1.230
   145   8 o        1.608    -0.686    27.348     7.058
   146   1 h        0.804     0.321     0.662     1.278
   147   1 h        0.803     0.352     0.584     1.201
   148   8 o        1.609    -0.651    26.436     6.939
   149   1 h        0.804     0.337     0.620     1.237
   150   1 h        0.805     0.341     0.611     1.227
   151   8 o        1.607    -0.688    27.400     7.065
   152   1 h        0.805     0.314     0.679     1.294
   153   1 h        0.802     0.353     0.582     1.198
   154   8 o        1.606    -0.683    27.265     7.047
   155   1 h        0.804     0.336     0.621     1.238
   156   1 h        0.802     0.333     0.630     1.247
   157   8 o        1.609    -0.671    26.941     7.005
   158   1 h        0.805     0.322     0.658     1.274
   159   1 h        0.804     0.328     0.642     1.259
   160   8 o        1.607    -0.674    27.039     7.018
   161   1 h        0.804     0.336     0.622     1.239
   162   1 h        0.803     0.354     0.579     1.195
   163   8 o        1.605    -0.691    27.486     7.076
   164   1 h        0.803     0.350     0.588     1.204
   165   1 h        0.802     0.338     0.617     1.234
   166   8 o        1.610    -0.649    26.399     6.935
   167   1 h        0.805     0.332     0.632     1.249
   168   1 h        0.805     0.325     0.649     1.265
   169   8 o        1.605    -0.698    27.658     7.098
   170   1 h        0.803     0.360     0.566     1.182
   171   1 h        0.803     0.327     0.646     1.263
   172   8 o        1.611    -0.628    25.858     6.863
   173   1 h        0.805     0.327     0.646     1.262
   174   1 h        0.806     0.312     0.685     1.300
   175   8 o        1.609    -0.674    27.033     7.017
   176   1 h        0.804     0.344     0.601     1.218
   177   1 h        0.804     0.341     0.611     1.227
   178   8 o        1.608    -0.674    27.018     7.015
   179   1 h        0.803     0.353     0.581     1.198
   180   1 h        0.804     0.327     0.644     1.260
   181   8 o        1.609    -0.657    26.597     6.960
   182   1 h        0.805     0.334     0.627     1.244
   183   1 h        0.804     0.338     0.618     1.234
   184   8 o        1.608    -0.666    26.812     6.989
   185   1 h        0.803     0.364     0.557     1.172
   186   1 h        0.805     0.337     0.619     1.236
   187   8 o        1.605    -0.679    27.162     7.034
   188   1 h        0.802     0.337     0.619     1.236
   189   1 h        0.803     0.337     0.619     1.236
   190   8 o        1.609    -0.663    26.753     6.981
   191   1 h        0.804     0.341     0.609     1.226
   192   1 h        0.804     0.351     0.586     1.202
   193   8 o        1.607    -0.678    27.138     7.031
   194   1 h        0.804     0.350     0.589     1.206
   195   1 h        0.803     0.336     0.623     1.240
   196   8 o        1.609    -0.669    26.900     7.000
   197   1 h        0.804     0.337     0.619     1.236
   198   1 h        0.804     0.331     0.634     1.251
   199   8 o        1.609    -0.671    26.944     7.006
   200   1 h        0.805     0.343     0.604     1.221
   201   1 h        0.804     0.359     0.568     1.184
   202   8 o        1.608    -0.680    27.188     7.037
   203   1 h        0.804     0.335     0.624     1.240
   204   1 h        0.804     0.335     0.625     1.242
   205   8 o        1.608    -0.662    26.713     6.976
   206   1 h        0.803     0.341     0.609     1.226
   207   1 h        0.805     0.326     0.648     1.265
   208   8 o        1.609    -0.667    26.853     6.994
   209   1 h        0.804     0.340     0.611     1.228
   210   1 h        0.805     0.336     0.621     1.238
   211   8 o        1.606    -0.694    27.552     7.084
   212   1 h        0.803     0.355     0.577     1.193
   213   1 h        0.803     0.346     0.597     1.214
   214   8 o        1.608    -0.694    27.554     7.085
   215   1 h        0.804     0.351     0.586     1.203
   216   1 h        0.804     0.325     0.652     1.268
   217   8 o        1.609    -0.671    26.944     7.006
   218   1 h        0.805     0.326     0.647     1.263
   219   1 h        0.804     0.343     0.606     1.223
   220   8 o        1.608    -0.674    27.027     7.017
   221   1 h        0.806     0.306     0.703     1.317
   222   1 h        0.802     0.343     0.605     1.222
   223   8 o        1.609    -0.665    26.791     6.986
   224   1 h        0.805     0.325     0.651     1.267
   225   1 h        0.804     0.349     0.591     1.208
   226   8 o        1.607    -0.700    27.720     7.106
   227   1 h        0.803     0.345     0.601     1.218
   228   1 h        0.805     0.332     0.631     1.248
   229   8 o        1.605    -0.681    27.220     7.041
   230   1 h        0.802     0.328     0.642     1.259
   231   1 h        0.803     0.360     0.566     1.182
   232   8 o        1.607    -0.662    26.725     6.977
   233   1 h        0.805     0.316     0.675     1.291
   234   1 h        0.802     0.350     0.589     1.206
   235   8 o        1.605    -0.706    27.876     7.126
   236   1 h        0.803     0.330     0.638     1.255
   237   1 h        0.802     0.352     0.583     1.199
   238   8 o        1.607    -0.672    26.975     7.010
   239   1 h        0.803     0.333     0.631     1.248
   240   1 h        0.803     0.351     0.587     1.203
   241   8 o        1.605    -0.693    27.532     7.082
   242   1 h        0.802     0.351     0.587     1.204
   243   1 h        0.804     0.341     0.609     1.226
   244   8 o        1.606    -0.675    27.060     7.021
   245   1 h        0.801     0.363     0.558     1.174
   246   1 h        0.806     0.311     0.689     1.303
   247   8 o        1.605    -0.681    27.216     7.041
   248   1 h        0.803     0.325     0.652     1.268
   249   1 h        0.803     0.348     0.592     1.209
   250   8 o        1.606    -0.670    26.926     7.003
   251   1 h        0.803     0.343     0.605     1.222
   252   1 h        0.804     0.329     0.641     1.258
   253   8 o        1.607    -0.660    26.671     6.970
   254   1 h        0.802     0.346     0.598     1.215
   255   1 h        0.805     0.320     0.664     1.280
   256   8 o        1.607    -0.676    27.070     7.022
   257   1 h        0.804     0.351     0.586     1.202
   258   1 h        0.803     0.348     0.592     1.209
   259   8 o        1.607    -0.669    26.898     7.000
   260   1 h        0.803     0.343     0.605     1.221
   261   1 h        0.803     0.331     0.636     1.253
   262   8 o        1.605    -0.669    26.910     7.001
   263   1 h        0.801     0.347     0.595     1.212
   264   1 h        0.806     0.313     0.683     1.298
   265   8 o        1.607    -0.682    27.241     7.044
   266   1 h        0.804     0.322     0.657     1.274
   267   1 h        0.803     0.349     0.590     1.207
   268   8 o        1.606    -0.675    27.063     7.021
   269   1 h        0.803     0.342     0.609     1.226
   270   1 h        0.805     0.334     0.628     1.245
   271   8 o        1.604    -0.681    27.214     7.041
   272   1 h        0.803     0.341     0.610     1.227
   273   1 h        0.802     0.338     0.617     1.234
   274   8 o        1.605    -0.704    27.816     7.118
   275   1 h        0.804     0.321     0.661     1.277
   276   1 h        0.802     0.356     0.575     1.192
   277   8 o        1.610    -0.653    26.489     6.946
   278   1 h        0.805     0.326     0.647     1.263
   279   1 h        0.805     0.339     0.614     1.231
   280   8 o        1.609    -0.682    27.233     7.043
   281   1 h        0.804     0.337     0.620     1.237
   282   1 h        0.805     0.335     0.624     1.241
   283   8 o        1.607    -0.681    27.200     7.039
   284   1 h        0.803     0.336     0.622     1.239
   285   1 h        0.804     0.322     0.658     1.275
   286   8 o        1.608    -0.656    26.568     6.957
   287   1 h        0.803     0.351     0.587     1.203
   288   1 h        0.806     0.315     0.677     1.292
   289   8 o        1.608    -0.674    27.025     7.016
   290   1 h        0.805     0.323     0.656     1.272
   291   1 h        0.804     0.359     0.568     1.184
   292   8 o        1.608    -0.682    27.243     7.045
   293   1 h        0.804     0.332     0.631     1.248
   294   1 h        0.804     0.346     0.598     1.215
   295   8 o        1.606    -0.686    27.335     7.056
   296   1 h        0.803     0.357     0.571     1.188
   297   1 h        0.804     0.338     0.618     1.235
   298   8 o        1.610    -0.646    26.302     6.922
   299   1 h        0.805     0.339     0.616     1.232
   300   1 h        0.805     0.325     0.651     1.267
   301   8 o        1.606    -0.673    27.003     7.013
   302   1 h        0.804     0.333     0.631     1.247
   303   1 h        0.802     0.345     0.601     1.218
   304   8 o        1.608    -0.653    26.501     6.948
   305   1 h        0.803     0.332     0.632     1.249
   306   1 h        0.805     0.323     0.656     1.272
   307   8 o        1.609    -0.669    26.900     7.000
   308   1 h        0.805     0.334     0.627     1.244
   309   1 h        0.803     0.344     0.602     1.219
   310   8 o        1.610    -0.645    26.301     6.922
   311   1 h        0.804     0.347     0.594     1.211
   312   1 h        0.805     0.333     0.630     1.247
   313   8 o        1.607    -0.691    27.464     7.073
   314   1 h        0.805     0.321     0.661     1.277
   315   1 h        0.802     0.353     0.582     1.198
   316   8 o        1.608    -0.673    26.990     7.012
   317   1 h        0.804     0.344     0.603     1.220
   318   1 h        0.804     0.343     0.604     1.221
   319   8 o        1.608    -0.677    27.097     7.026
   320   1 h        0.803     0.332     0.633     1.250
   321   1 h        0.803     0.343     0.605     1.222
   322   8 o        1.606    -0.709    27.955     7.136
   323   1 h        0.803     0.348     0.594     1.211
   324   1 h        0.803     0.338     0.618     1.235
   325   8 o        1.608    -0.680    27.182     7.037
   326   1 h        0.804     0.333     0.629     1.245
   327   1 h        0.803     0.345     0.600     1.217
   328   8 o        1.609    -0.638    26.121     6.898
   329   1 h        0.806     0.316     0.674     1.289
   330   1 h        0.803     0.346     0.598     1.215
   331   8 o        1.608    -0.661    26.706     6.975
   332   1 h        0.804     0.327     0.646     1.263
   333   1 h        0.804     0.342     0.608     1.225
   334   8 o        1.607    -0.661    26.683     6.972
   335   1 h        0.802     0.348     0.594     1.211
   336   1 h        0.806     0.312     0.685     1.300
   337   8 o        1.607    -0.674    27.022     7.016
   338   1 h        0.801     0.350     0.588     1.205
   339   1 h        0.806     0.308     0.698     1.312
   340   8 o        1.608    -0.679    27.155     7.033
   341   1 h        0.804     0.337     0.620     1.237
   342   1 h        0.804     0.336     0.623     1.240
   343   8 o        1.607    -0.691    27.473     7.074
   344   1 h        0.804     0.335     0.624     1.240
   345   1 h        0.803     0.334     0.628     1.245
   346   8 o        1.607    -0.672    26.971     7.009
   347   1 h        0.804     0.348     0.592     1.209
   348   1 h        0.803     0.330     0.638     1.255
   349   8 o        1.606    -0.670    26.921     7.003
   350   1 h        0.802     0.355     0.577     1.193
   351   1 h        0.804     0.331     0.634     1.251
   352   8 o        1.608    -0.685    27.311     7.053
   353   1 h        0.803     0.330     0.639     1.255
   354   1 h        0.803     0.361     0.564     1.180
   355   8 o        1.607    -0.679    27.170     7.035
   356   1 h        0.804     0.330     0.636     1.253
   357   1 h        0.802     0.345     0.601     1.218
   358   8 o        1.608    -0.685    27.312     7.053
   359   1 h        0.805     0.327     0.645     1.261
   360   1 h        0.803     0.354     0.580     1.196
   361   8 o        1.609    -0.672    26.978     7.010
   362   1 h        0.804     0.347     0.595     1.211
   363   1 h        0.805     0.338     0.618     1.234
   364   8 o        1.608    -0.677    27.101     7.026
   365   1 h        0.805     0.342     0.606     1.223
   366   1 h        0.803     0.349     0.591     1.208
   367   8 o        1.609    -0.661    26.683     6.972
   368   1 h        0.805     0.339     0.614     1.231
   369   1 h        0.805     0.330     0.638     1.254
   370   8 o        1.608    -0.678    27.127     7.029
   371   1 h        0.804     0.317     0.673     1.289
   372   1 h        0.803     0.353     0.581     1.197
   373   8 o        1.609    -0.658    26.607     6.962
   374   1 h        0.805     0.324     0.652     1.268
   375   1 h        0.804     0.344     0.601     1.218
   376   8 o        1.609    -0.677    27.097     7.026
   377   1 h        0.804     0.329     0.639     1.256
   378   1 h        0.804     0.353     0.580     1.197
   379   8 o        1.610    -0.656    26.555     6.955
   380   1 h        0.804     0.333     0.630     1.247
   381   1 h        0.805     0.319     0.665     1.281
   382   8 o        1.609    -0.683    27.262     7.047
   383   1 h        0.804     0.336     0.621     1.238
   384   1 h        0.805     0.340     0.613     1.230
   385   8 o        1.609    -0.692    27.490     7.076
   386   1 h        0.804     0.340     0.612     1.229
   387   1 h        0.805     0.332     0.632     1.249
   388   8 o        1.608    -0.648    26.357     6.929
   389   1 h        0.805     0.315     0.677     1.293
   390   1 h        0.803     0.348     0.593     1.210
   391   8 o        1.608    -0.669    26.888     6.998
   392   1 h        0.806     0.315     0.677     1.293
   393   1 h        0.803     0.353     0.582     1.199
   394   8 o        1.605    -0.673    27.002     7.013
   395   1 h        0.805     0.336     0.622     1.239
   396   1 h        0.802     0.331     0.634     1.251
   397   8 o        1.608    -0.666    26.830     6.991
   398   1 h        0.803     0.359     0.569     1.185
   399   1 h        0.806     0.297     0.729     1.341
   400   8 o        1.607    -0.698    27.655     7.098
   401   1 h        0.804     0.337     0.619     1.236
   402   1 h        0.803     0.354     0.578     1.195
   403   8 o        1.607    -0.683    27.264     7.047
   404   1 h        0.804     0.329     0.640     1.256
   405   1 h        0.803     0.349     0.592     1.208
   406   8 o        1.609    -0.677    27.109     7.027
   407   1 h        0.804     0.339     0.615     1.231
   408   1 h        0.805     0.334     0.627     1.244
   409   8 o        1.608    -0.670    26.914     7.002
   410   1 h        0.803     0.333     0.630     1.247
   411   1 h        0.804     0.327     0.646     1.262
   412   8 o        1.607    -0.674    27.039     7.018
   413   1 h        0.804     0.335     0.625     1.242
   414   1 h        0.803     0.335     0.626     1.243
   415   8 o        1.610    -0.675    27.045     7.019
   416   1 h        0.805     0.339     0.615     1.231
   417   1 h        0.805     0.318     0.669     1.285
   418   8 o        1.608    -0.654    26.529     6.952
   419   1 h        0.803     0.352     0.583     1.200
   420   1 h        0.806     0.322     0.659     1.275
   421   8 o        1.607    -0.680    27.179     7.036
   422   1 h        0.803     0.351     0.586     1.203
   423   1 h        0.804     0.325     0.651     1.267
   424   8 o        1.607    -0.670    26.917     7.002
   425   1 h        0.803     0.343     0.604     1.221
   426   1 h        0.805     0.326     0.649     1.265
   427   8 o        1.607    -0.682    27.238     7.044
   428   1 h        0.803     0.360     0.565     1.181
   429   1 h        0.805     0.334     0.627     1.244
   430   8 o        1.608    -0.665    26.791     6.986
   431   1 h        0.803     0.360     0.566     1.182
   432   1 h        0.806     0.312     0.687     1.301
   433   8 o        1.608    -0.672    26.989     7.012
   434   1 h        0.802     0.345     0.599     1.216
   435   1 h        0.805     0.310     0.691     1.306
   436   8 o        1.607    -0.678    27.145     7.032
   437   1 h        0.804     0.324     0.654     1.270
   438   1 h        0.803     0.345     0.600     1.217
   439   8 o        1.607    -0.681    27.212     7.040
   440   1 h        0.803     0.356     0.575     1.191
   441   1 h        0.804     0.325     0.651     1.267
   442   8 o        1.605    -0.701    27.740     7.108
   443   1 h        0.803     0.330     0.638     1.254
   444   1 h        0.802     0.360     0.566     1.182
   445   8 o        1.609    -0.674    27.028     7.017
   446   1 h        0.804     0.348     0.593     1.210
   447   1 h        0.805     0.322     0.658     1.274
   448   8 o        1.603    -0.711    28.019     7.144
   449   1 h        0.802     0.356     0.576     1.192
   450   1 h        0.803     0.358     0.569     1.185
   451   8 o        1.607    -0.685    27.322     7.055
   452   1 h        0.805     0.323     0.655     1.271
   453   1 h        0.802     0.355     0.578     1.194
   454   8 o        1.608    -0.680    27.180     7.036
   455   1 h        0.804     0.341     0.610     1.227
   456   1 h        0.804     0.335     0.625     1.242
   457   8 o        1.606    -0.703    27.796     7.116
   458   1 h        0.804     0.329     0.640     1.256
   459   1 h        0.803     0.349     0.590     1.207
   460   8 o        1.607    -0.688    27.383     7.063
   461   1 h        0.803     0.345     0.600     1.217
   462   1 h        0.803     0.330     0.637     1.253
   463   8 o        1.606    -0.686    27.353     7.059
   464   1 h        0.804     0.338     0.617     1.234
   465   1 h        0.803     0.356     0.574     1.190
   466   8 o        1.608    -0.684    27.283     7.050
   467   1 h        0.803     0.355     0.576     1.192
   468   1 h        0.805     0.316     0.675     1.290
   469   8 o        1.606    -0.696    27.611     7.092
   470   1 h        0.804     0.327     0.644     1.261
   471   1 h        0.802     0.360     0.566     1.182
   472   8 o        1.607    -0.678    27.136     7.031
   473   1 h        0.803     0.353     0.582     1.199
   474   1 h        0.805     0.328     0.643     1.260
   475   8 o        1.609    -0.640    26.152     6.902
   476   1 h        0.804     0.339     0.615     1.232
   477   1 h        0.806     0.305     0.705     1.319
   478   8 o        1.606    -0.701    27.731     7.107
   479   1 h        0.803     0.339     0.615     1.232
   480   1 h        0.803     0.360     0.565     1.181
   481   8 o        1.608    -0.678    27.127     7.029
   482   1 h        0.804     0.325     0.650     1.266
   483   1 h        0.804     0.345     0.600     1.217
   484   8 o        1.608    -0.680    27.193     7.038
   485   1 h        0.803     0.358     0.569     1.185
   486   1 h        0.805     0.345     0.601     1.218
   487   8 o        1.608    -0.646    26.309     6.923
   488   1 h        0.805     0.322     0.659     1.275
   489   1 h        0.803     0.341     0.609     1.226
   490   8 o        1.607    -0.685    27.303     7.052
   491   1 h        0.803     0.343     0.605     1.221
   492   1 h        0.805     0.341     0.609     1.226
   493   8 o        1.607    -0.668    26.882     6.998
   494   1 h        0.803     0.342     0.608     1.225
   495   1 h        0.805     0.346     0.597     1.213
   496   8 o        1.607    -0.673    27.000     7.013
   497   1 h        0.805     0.335     0.625     1.241
   498   1 h        0.803     0.333     0.630     1.247
   499   8 o        1.607    -0.668    26.866     6.996
   500   1 h        0.805     0.321     0.660     1.276
   501   1 h        0.803     0.350     0.590     1.206
   502   8 o        1.609    -0.677    27.097     7.026
   503   1 h        0.804     0.343     0.606     1.223
   504   1 h        0.804     0.336     0.622     1.239
   505   8 o        1.606    -0.683    27.272     7.048
   506   1 h        0.804     0.331     0.634     1.251
   507   1 h        0.802     0.348     0.593     1.210
   508   8 o        1.609    -0.643    26.234     6.913
   509   1 h        0.803     0.349     0.591     1.208
   510   1 h        0.806     0.316     0.674     1.289
   511   8 o        1.608    -0.675    27.041     7.018
   512   1 h        0.804     0.332     0.632     1.248
   513   1 h        0.804     0.334     0.627     1.244
   514   8 o        1.607    -0.675    27.044     7.019
   515   1 h        0.804     0.340     0.611     1.228
   516   1 h        0.803     0.332     0.633     1.250
   517   8 o        1.605    -0.671    26.946     7.006
   518   1 h        0.806     0.308     0.698     1.312
   519   1 h        0.801     0.352     0.583     1.200
   520   8 o        1.610    -0.629    25.880     6.866
   521   1 h        0.805     0.339     0.616     1.232
   522   1 h        0.806     0.313     0.684     1.299
   523   8 o        1.606    -0.655    26.547     6.954
   524   1 h        0.801     0.344     0.604     1.221
   525   1 h        0.805     0.317     0.671     1.287
   526   8 o        1.609    -0.668    26.882     6.998
   527   1 h        0.804     0.333     0.629     1.246
   528   1 h        0.806     0.299     0.723     1.335
   529   8 o        1.610    -0.675    27.053     7.020
   530   1 h        0.805     0.325     0.651     1.268
   531   1 h        0.805     0.335     0.624     1.241

 Mol. C6AA /au·bohr⁶  :    1428803.675717
 Mol. C8AA /au·bohr⁸  :   25911776.333446
 Mol. α(0) /au        :       1680.217782


Wiberg/Mayer (AO) data.
largest (>0.10) Wiberg bond orders for each atom

 ---------------------------------------------------------------------------
     #   Z sym  total        # sym  WBO       # sym  WBO       # sym  WBO
 ---------------------------------------------------------------------------
     1   8 o    1.814 --     3 h    0.855     2 h    0.789
     2   1 h    0.881 --     1 o    0.789
     3   1 h    0.901 --     1 o    0.855
     4   8 o    1.864 --     5 h    0.837     6 h    0.784
     5   1 h    0.893 --     4 o    0.837
     6   1 h    0.881 --     4 o    0.784
     7   8 o    1.834 --     9 h    0.826     8 h    0.823
     8   1 h    0.888 --     7 o    0.823
     9   1 h    0.884 --     7 o    0.826
    10   8 o    1.863 --    12 h    0.856    11 h    0.814
    11   1 h    0.882 --    10 o    0.814
    12   1 h    0.895 --    10 o    0.856
    13   8 o    1.856 --    15 h    0.826    14 h    0.825
    14   1 h    0.889 --    13 o    0.825
    15   1 h    0.877 --    13 o    0.826
    16   8 o    1.850 --    18 h    0.861    17 h    0.819
    17   1 h    0.869 --    16 o    0.819
    18   1 h    0.897 --    16 o    0.861
    19   8 o    1.870 --    21 h    0.852    20 h    0.820
    20   1 h    0.884 --    19 o    0.820
    21   1 h    0.890 --    19 o    0.852
    22   8 o    1.839 --    24 h    0.865    23 h    0.828
    23   1 h    0.886 --    22 o    0.828
    24   1 h    0.893 --    22 o    0.865
    25   8 o    1.864 --    26 h    0.818    27 h    0.813
    26   1 h    0.884 --    25 o    0.818
    27   1 h    0.882 --    25 o    0.813
    28   8 o    1.880 --    30 h    0.802    29 h    0.791
    29   1 h    0.872 --    28 o    0.791
    30   1 h    0.879 --    28 o    0.802
    31   8 o    1.840 --    33 h    0.831    32 h    0.807
    32   1 h    0.884 --    31 o    0.807
    33   1 h    0.881 --    31 o    0.831
    34   8 o    1.847 --    36 h    0.891    35 h    0.796
    35   1 h    0.873 --    34 o    0.796
    36   1 h    0.899 --    34 o    0.891
    37   8 o    1.910 --    39 h    0.828    38 h    0.764
    38   1 h    0.869 --    37 o    0.764
    39   1 h    0.892 --    37 o    0.828
    40   8 o    1.856 --    41 h    0.820    42 h    0.783
    41   1 h    0.887 --    40 o    0.820
    42   1 h    0.872 --    40 o    0.783
    43   8 o    1.886 --    45 h    0.827    44 h    0.817
    44   1 h    0.888 --    43 o    0.817
    45   1 h    0.891 --    43 o    0.827
    46   8 o    1.813 --    48 h    0.858    47 h    0.855
    47   1 h    0.885 --    46 o    0.855
    48   1 h    0.889 --    46 o    0.858
    49   8 o    1.867 --    50 h    0.842    51 h    0.828
    50   1 h    0.887 --    49 o    0.842
    51   1 h    0.879 --    49 o    0.828
    52   8 o    1.841 --    54 h    0.846    53 h    0.820
    53   1 h    0.881 --    52 o    0.820
    54   1 h    0.897 --    52 o    0.846
    55   8 o    1.864 --    56 h    0.831    57 h    0.797
    56   1 h    0.890 --    55 o    0.831
    57   1 h    0.876 --    55 o    0.797
    58   8 o    1.873 --    60 h    0.814    59 h    0.786
    59   1 h    0.877 --    58 o    0.786
    60   1 h    0.880 --    58 o    0.814
    61   8 o    1.838 --    63 h    0.846    62 h    0.825
    62   1 h    0.877 --    61 o    0.825
    63   1 h    0.897 --    61 o    0.846
    64   8 o    1.891 --    66 h    0.847    65 h    0.790
    65   1 h    0.864 --    64 o    0.790
    66   1 h    0.885 --    64 o    0.847
    67   8 o    1.836 --    68 h    0.839    69 h    0.838
    68   1 h    0.882 --    67 o    0.839
    69   1 h    0.888 --    67 o    0.838
    70   8 o    1.881 --    72 h    0.833    71 h    0.819
    71   1 h    0.877 --    70 o    0.819
    72   1 h    0.890 --    70 o    0.833
    73   8 o    1.858 --    75 h    0.810    74 h    0.806
    74   1 h    0.876 --    73 o    0.806
    75   1 h    0.886 --    73 o    0.810
    76   8 o    1.897 --    77 h    0.842    78 h    0.788
    77   1 h    0.881 --    76 o    0.842
    78   1 h    0.877 --    76 o    0.788
    79   8 o    1.798 --    80 h    0.853    81 h    0.845
    80   1 h    0.889 --    79 o    0.853
    81   1 h    0.894 --    79 o    0.845
    82   8 o    1.844 --    84 h    0.830    83 h    0.806
    83   1 h    0.880 --    82 o    0.806
    84   1 h    0.888 --    82 o    0.830
    85   8 o    1.821 --    86 h    0.859    87 h    0.813
    86   1 h    0.894 --    85 o    0.859
    87   1 h    0.883 --    85 o    0.813
    88   8 o    1.841 --    89 h    0.849    90 h    0.834
    89   1 h    0.886 --    88 o    0.849
    90   1 h    0.884 --    88 o    0.834
    91   8 o    1.802 --    93 h    0.852    92 h    0.847
    92   1 h    0.893 --    91 o    0.847
    93   1 h    0.888 --    91 o    0.852
    94   8 o    1.862 --    96 h    0.861    95 h    0.825
    95   1 h    0.883 --    94 o    0.825
    96   1 h    0.889 --    94 o    0.861
    97   8 o    1.862 --    98 h    0.848    99 h    0.816
    98   1 h    0.887 --    97 o    0.848
    99   1 h    0.883 --    97 o    0.816
   100   8 o    1.894 --   102 h    0.832   101 h    0.824
   101   1 h    0.885 --   100 o    0.824
   102   1 h    0.887 --   100 o    0.832
   103   8 o    1.882 --   105 h    0.832   104 h    0.820
   104   1 h    0.888 --   103 o    0.820
   105   1 h    0.881 --   103 o    0.832
   106   8 o    1.812 --   108 h    0.852   107 h    0.836
   107   1 h    0.888 --   106 o    0.836
   108   1 h    0.892 --   106 o    0.852
   109   8 o    1.872 --   110 h    0.817   111 h    0.802
   110   1 h    0.877 --   109 o    0.817
   111   1 h    0.880 --   109 o    0.802
   112   8 o    1.865 --   114 h    0.821   113 h    0.798
   113   1 h    0.875 --   112 o    0.798
   114   1 h    0.885 --   112 o    0.821
   115   8 o    1.857 --   116 h    0.825   117 h    0.815
   116   1 h    0.883 --   115 o    0.825
   117   1 h    0.882 --   115 o    0.815
   118   8 o    1.823 --   119 h    0.882   120 h    0.787
   119   1 h    0.901 --   118 o    0.882
   120   1 h    0.870 --   118 o    0.787
   121   8 o    1.833 --   123 h    0.835   122 h    0.782
   122   1 h    0.872 --   121 o    0.782
   123   1 h    0.892 --   121 o    0.835
   124   8 o    1.848 --   126 h    0.849   125 h    0.806
   125   1 h    0.888 --   124 o    0.806
   126   1 h    0.888 --   124 o    0.849
   127   8 o    1.834 --   129 h    0.893   128 h    0.819
   128   1 h    0.882 --   127 o    0.819
   129   1 h    0.900 --   127 o    0.893
   130   8 o    1.853 --   132 h    0.891   131 h    0.794
   131   1 h    0.868 --   130 o    0.794
   132   1 h    0.904 --   130 o    0.891
   133   8 o    1.871 --   134 h    0.801   135 h    0.800
   134   1 h    0.877 --   133 o    0.801
   135   1 h    0.879 --   133 o    0.800
   136   8 o    1.833 --   138 h    0.844   137 h    0.819
   137   1 h    0.882 --   136 o    0.819
   138   1 h    0.891 --   136 o    0.844
   139   8 o    1.843 --   140 h    0.840   141 h    0.810
   140   1 h    0.896 --   139 o    0.840
   141   1 h    0.873 --   139 o    0.810
   142   8 o    1.831 --   144 h    0.820   143 h    0.800
   143   1 h    0.878 --   142 o    0.800
   144   1 h    0.885 --   142 o    0.820
   145   8 o    1.823 --   146 h    0.863   147 h    0.816
   146   1 h    0.897 --   145 o    0.863
   147   1 h    0.876 --   145 o    0.816
   148   8 o    1.864 --   150 h    0.850   149 h    0.850
   149   1 h    0.887 --   148 o    0.850
   150   1 h    0.884 --   148 o    0.850
   151   8 o    1.809 --   152 h    0.883   153 h    0.794
   152   1 h    0.901 --   151 o    0.883
   153   1 h    0.875 --   151 o    0.794
   154   8 o    1.830 --   155 h    0.849   156 h    0.813
   155   1 h    0.887 --   154 o    0.849
   156   1 h    0.889 --   154 o    0.813
   157   8 o    1.793 --   158 h    0.873   159 h    0.847
   158   1 h    0.896 --   157 o    0.873
   159   1 h    0.892 --   157 o    0.847
   160   8 o    1.882 --   161 h    0.835   162 h    0.809
   161   1 h    0.887 --   160 o    0.835
   162   1 h    0.874 --   160 o    0.809
   163   8 o    1.881 --   164 h    0.812   165 h    0.804
   164   1 h    0.877 --   163 o    0.812
   165   1 h    0.886 --   163 o    0.804
   166   8 o    1.823 --   168 h    0.876   167 h    0.862
   167   1 h    0.890 --   166 o    0.862
   168   1 h    0.894 --   166 o    0.876
   169   8 o    1.854 --   171 h    0.817   170 h    0.801
   170   1 h    0.871 --   169 o    0.801
   171   1 h    0.893 --   169 o    0.817
   172   8 o    1.836 --   174 h    0.890   173 h    0.866
   173   1 h    0.893 --   172 o    0.866
   174   1 h    0.902 --   172 o    0.890
   175   8 o    1.849 --   176 h    0.843   177 h    0.831
   176   1 h    0.881 --   175 o    0.843
   177   1 h    0.884 --   175 o    0.831
   178   8 o    1.838 --   180 h    0.853   179 h    0.822
   179   1 h    0.875 --   178 o    0.822
   180   1 h    0.893 --   178 o    0.853
   181   8 o    1.876 --   182 h    0.846   183 h    0.830
   182   1 h    0.888 --   181 o    0.846
   183   1 h    0.886 --   181 o    0.830
   184   8 o    1.884 --   186 h    0.852   185 h    0.804
   185   1 h    0.868 --   184 o    0.804
   186   1 h    0.886 --   184 o    0.852
   187   8 o    1.866 --   189 h    0.821   188 h    0.812
   188   1 h    0.886 --   187 o    0.812
   189   1 h    0.886 --   187 o    0.821
   190   8 o    1.878 --   191 h    0.838   192 h    0.822
   191   1 h    0.884 --   190 o    0.838
   192   1 h    0.877 --   190 o    0.822
   193   8 o    1.862 --   195 h    0.820   194 h    0.818
   194   1 h    0.878 --   193 o    0.818
   195   1 h    0.887 --   193 o    0.820
   196   8 o    1.852 --   198 h    0.841   197 h    0.834
   197   1 h    0.886 --   196 o    0.834
   198   1 h    0.890 --   196 o    0.841
   199   8 o    1.864 --   200 h    0.852   201 h    0.812
   200   1 h    0.882 --   199 o    0.852
   201   1 h    0.871 --   199 o    0.812
   202   8 o    1.827 --   203 h    0.844   204 h    0.844
   203   1 h    0.887 --   202 o    0.844
   204   1 h    0.888 --   202 o    0.844
   205   8 o    1.850 --   207 h    0.870   206 h    0.819
   206   1 h    0.883 --   205 o    0.819
   207   1 h    0.894 --   205 o    0.870
   208   8 o    1.853 --   210 h    0.851   209 h    0.830
   209   1 h    0.884 --   208 o    0.830
   210   1 h    0.887 --   208 o    0.851
   211   8 o    1.877 --   213 h    0.803   212 h    0.794
   212   1 h    0.874 --   211 o    0.794
   213   1 h    0.880 --   211 o    0.803
   214   8 o    1.822 --   216 h    0.844   215 h    0.820
   215   1 h    0.877 --   214 o    0.820
   216   1 h    0.895 --   214 o    0.844
   217   8 o    1.827 --   218 h    0.869   219 h    0.836
   218   1 h    0.893 --   217 o    0.869
   219   1 h    0.883 --   217 o    0.836
   220   8 o    1.794 --   221 h    0.898   222 h    0.808
   221   1 h    0.906 --   220 o    0.898
   222   1 h    0.882 --   220 o    0.808
   223   8 o    1.837 --   224 h    0.886   225 h    0.821
   224   1 h    0.894 --   223 o    0.886
   225   1 h    0.878 --   223 o    0.821
   226   8 o    1.814 --   228 h    0.835   227 h    0.793
   227   1 h    0.881 --   226 o    0.793
   228   1 h    0.889 --   226 o    0.835
   229   8 o    1.883 --   230 h    0.817   231 h    0.811
   230   1 h    0.892 --   229 o    0.817
   231   1 h    0.871 --   229 o    0.811
   232   8 o    1.839 --   233 h    0.883   234 h    0.811
   233   1 h    0.900 --   232 o    0.883
   234   1 h    0.878 --   232 o    0.811
   235   8 o    1.838 --   236 h    0.835   237 h    0.791
   236   1 h    0.891 --   235 o    0.835
   237   1 h    0.876 --   235 o    0.791
   238   8 o    1.886 --   239 h    0.826   240 h    0.806
   239   1 h    0.889 --   238 o    0.826
   240   1 h    0.877 --   238 o    0.806
   241   8 o    1.863 --   243 h    0.816   242 h    0.793
   242   1 h    0.877 --   241 o    0.793
   243   1 h    0.883 --   241 o    0.816
   244   8 o    1.839 --   246 h    0.894   245 h    0.780
   245   1 h    0.868 --   244 o    0.780
   246   1 h    0.903 --   244 o    0.894
   247   8 o    1.887 --   248 h    0.814   249 h    0.796
   248   1 h    0.895 --   247 o    0.814
   249   1 h    0.879 --   247 o    0.796
   250   8 o    1.879 --   252 h    0.841   251 h    0.807
   251   1 h    0.882 --   250 o    0.807
   252   1 h    0.892 --   250 o    0.841
   253   8 o    1.855 --   255 h    0.878   254 h    0.805
   254   1 h    0.880 --   253 o    0.805
   255   1 h    0.898 --   253 o    0.878
   256   8 o    1.891 --   257 h    0.818   258 h    0.815
   257   1 h    0.877 --   256 o    0.818
   258   1 h    0.879 --   256 o    0.815
   259   8 o    1.873 --   261 h    0.824   260 h    0.822
   260   1 h    0.882 --   259 o    0.822
   261   1 h    0.891 --   259 o    0.824
   262   8 o    1.838 --   264 h    0.896   263 h    0.785
   263   1 h    0.879 --   262 o    0.785
   264   1 h    0.902 --   262 o    0.896
   265   8 o    1.846 --   266 h    0.847   267 h    0.804
   266   1 h    0.896 --   265 o    0.847
   267   1 h    0.878 --   265 o    0.804
   268   8 o    1.858 --   270 h    0.853   269 h    0.795
   269   1 h    0.883 --   268 o    0.795
   270   1 h    0.888 --   268 o    0.853
   271   8 o    1.871 --   272 h    0.819   273 h    0.804
   272   1 h    0.884 --   271 o    0.819
   273   1 h    0.886 --   271 o    0.804
   274   8 o    1.829 --   275 h    0.849   276 h    0.782
   275   1 h    0.897 --   274 o    0.849
   276   1 h    0.873 --   274 o    0.782
   277   8 o    1.831 --   278 h    0.880   279 h    0.856
   278   1 h    0.893 --   277 o    0.880
   279   1 h    0.885 --   277 o    0.856
   280   8 o    1.818 --   282 h    0.850   281 h    0.846
   281   1 h    0.887 --   280 o    0.846
   282   1 h    0.888 --   280 o    0.850
   283   8 o    1.820 --   285 h    0.845   284 h    0.823
   284   1 h    0.887 --   283 o    0.823
   285   1 h    0.896 --   283 o    0.845
   286   8 o    1.848 --   288 h    0.897   287 h    0.813
   287   1 h    0.877 --   286 o    0.813
   288   1 h    0.901 --   286 o    0.897
   289   8 o    1.864 --   290 h    0.848   291 h    0.795
   290   1 h    0.896 --   289 o    0.848
   291   1 h    0.871 --   289 o    0.795
   292   8 o    1.834 --   293 h    0.854   294 h    0.834
   293   1 h    0.889 --   292 o    0.854
   294   1 h    0.880 --   292 o    0.834
   295   8 o    1.880 --   297 h    0.827   296 h    0.794
   296   1 h    0.872 --   295 o    0.794
   297   1 h    0.886 --   295 o    0.827
   298   8 o    1.838 --   300 h    0.876   299 h    0.860
   299   1 h    0.885 --   298 o    0.860
   300   1 h    0.894 --   298 o    0.876
   301   8 o    1.867 --   302 h    0.849   303 h    0.800
   302   1 h    0.889 --   301 o    0.849
   303   1 h    0.881 --   301 o    0.800
   304   8 o    1.846 --   306 h    0.873   305 h    0.834
   305   1 h    0.890 --   304 o    0.834
   306   1 h    0.896 --   304 o    0.873
   307   8 o    1.834 --   308 h    0.874   309 h    0.829
   308   1 h    0.889 --   307 o    0.874
   309   1 h    0.881 --   307 o    0.829
   310   8 o    1.875 --   312 h    0.878   311 h    0.829
   311   1 h    0.879 --   310 o    0.829
   312   1 h    0.889 --   310 o    0.878
   313   8 o    1.840 --   314 h    0.863   315 h    0.790
   314   1 h    0.897 --   313 o    0.863
   315   1 h    0.875 --   313 o    0.790
   316   8 o    1.855 --   317 h    0.833   318 h    0.830
   317   1 h    0.882 --   316 o    0.833
   318   1 h    0.882 --   316 o    0.830
   319   8 o    1.880 --   320 h    0.821   321 h    0.814
   320   1 h    0.890 --   319 o    0.821
   321   1 h    0.882 --   319 o    0.814
   322   8 o    1.819 --   324 h    0.829   323 h    0.814
   323   1 h    0.879 --   322 o    0.814
   324   1 h    0.886 --   322 o    0.829
   325   8 o    1.860 --   326 h    0.840   327 h    0.810
   326   1 h    0.889 --   325 o    0.840
   327   1 h    0.881 --   325 o    0.810
   328   8 o    1.869 --   329 h    0.888   330 h    0.830
   329   1 h    0.900 --   328 o    0.888
   330   1 h    0.880 --   328 o    0.830
   331   8 o    1.851 --   332 h    0.859   333 h    0.829
   332   1 h    0.893 --   331 o    0.859
   333   1 h    0.883 --   331 o    0.829
   334   8 o    1.844 --   336 h    0.898   335 h    0.798
   335   1 h    0.879 --   334 o    0.798
   336   1 h    0.902 --   334 o    0.898
   337   8 o    1.817 --   339 h    0.898   338 h    0.790
   338   1 h    0.877 --   337 o    0.790
   339   1 h    0.905 --   337 o    0.898
   340   8 o    1.840 --   342 h    0.841   341 h    0.836
   341   1 h    0.887 --   340 o    0.836
   342   1 h    0.887 --   340 o    0.841
   343   8 o    1.809 --   344 h    0.829   345 h    0.827
   344   1 h    0.887 --   343 o    0.829
   345   1 h    0.889 --   343 o    0.827
   346   8 o    1.876 --   348 h    0.824   347 h    0.822
   347   1 h    0.879 --   346 o    0.822
   348   1 h    0.891 --   346 o    0.824
   349   8 o    1.903 --   351 h    0.837   350 h    0.787
   350   1 h    0.874 --   349 o    0.787
   351   1 h    0.890 --   349 o    0.837
   352   8 o    1.879 --   353 h    0.827   354 h    0.798   519 h    0.101
   353   1 h    0.891 --   352 o    0.827
   354   1 h    0.870 --   352 o    0.798
   355   8 o    1.832 --   356 h    0.861   357 h    0.804
   356   1 h    0.891 --   355 o    0.861
   357   1 h    0.881 --   355 o    0.804
   358   8 o    1.829 --   359 h    0.860   360 h    0.811
   359   1 h    0.893 --   358 o    0.860
   360   1 h    0.875 --   358 o    0.811
   361   8 o    1.856 --   363 h    0.853   362 h    0.829
   362   1 h    0.879 --   361 o    0.829
   363   1 h    0.886 --   361 o    0.853
   364   8 o    1.852 --   365 h    0.866   366 h    0.814
   365   1 h    0.883 --   364 o    0.866
   366   1 h    0.878 --   364 o    0.814
   367   8 o    1.827 --   369 h    0.872   368 h    0.851
   368   1 h    0.885 --   367 o    0.851
   369   1 h    0.891 --   367 o    0.872
   370   8 o    1.831 --   371 h    0.851   372 h    0.808
   371   1 h    0.900 --   370 o    0.851
   372   1 h    0.875 --   370 o    0.808
   373   8 o    1.845 --   374 h    0.877   375 h    0.824
   374   1 h    0.895 --   373 o    0.877
   375   1 h    0.881 --   373 o    0.824
   376   8 o    1.841 --   377 h    0.852   378 h    0.829
   377   1 h    0.892 --   376 o    0.852
   378   1 h    0.875 --   376 o    0.829
   379   8 o    1.829 --   381 h    0.874   380 h    0.834
   380   1 h    0.889 --   379 o    0.834
   381   1 h    0.898 --   379 o    0.874
   382   8 o    1.810 --   384 h    0.853   383 h    0.852
   383   1 h    0.887 --   382 o    0.852
   384   1 h    0.885 --   382 o    0.853
   385   8 o    1.809 --   387 h    0.834   386 h    0.820
   386   1 h    0.884 --   385 o    0.820
   387   1 h    0.890 --   385 o    0.834
   388   8 o    1.854 --   389 h    0.895   390 h    0.812
   389   1 h    0.901 --   388 o    0.895
   390   1 h    0.879 --   388 o    0.812
   391   8 o    1.827 --   392 h    0.895   393 h    0.810
   392   1 h    0.901 --   391 o    0.895
   393   1 h    0.876 --   391 o    0.810
   394   8 o    1.872 --   395 h    0.839   396 h    0.793
   395   1 h    0.887 --   394 o    0.839
   396   1 h    0.890 --   394 o    0.793
   397   8 o    1.823 --   399 h    0.908   398 h    0.795
   398   1 h    0.871 --   397 o    0.795
   399   1 h    0.912 --   397 o    0.908
   400   8 o    1.833 --   401 h    0.821   402 h    0.796
   401   1 h    0.886 --   400 o    0.821
   402   1 h    0.874 --   400 o    0.796
   403   8 o    1.829 --   404 h    0.846   405 h    0.818
   404   1 h    0.892 --   403 o    0.846
   405   1 h    0.878 --   403 o    0.818
   406   8 o    1.823 --   408 h    0.857   407 h    0.841
   407   1 h    0.885 --   406 o    0.841
   408   1 h    0.888 --   406 o    0.857
   409   8 o    1.844 --   411 h    0.849   410 h    0.833
   410   1 h    0.889 --   409 o    0.833
   411   1 h    0.893 --   409 o    0.849
   412   8 o    1.836 --   413 h    0.838   414 h    0.836
   413   1 h    0.888 --   412 o    0.838
   414   1 h    0.888 --   412 o    0.836
   415   8 o    1.805 --   417 h    0.852   416 h    0.847
   416   1 h    0.885 --   415 o    0.847
   417   1 h    0.899 --   415 o    0.852
   418   8 o    1.856 --   420 h    0.891   419 h    0.815
   419   1 h    0.876 --   418 o    0.815
   420   1 h    0.896 --   418 o    0.891
   421   8 o    1.852 --   423 h    0.840   422 h    0.800
   422   1 h    0.877 --   421 o    0.800
   423   1 h    0.894 --   421 o    0.840
   424   8 o    1.839 --   426 h    0.867   425 h    0.812
   425   1 h    0.882 --   424 o    0.812
   426   1 h    0.894 --   424 o    0.867
   427   8 o    1.847 --   429 h    0.850   428 h    0.790
   428   1 h    0.870 --   427 o    0.790
   429   1 h    0.888 --   427 o    0.850
   430   8 o    1.834 --   432 h    0.896   431 h    0.807
   431   1 h    0.871 --   430 o    0.807
   432   1 h    0.903 --   430 o    0.896
   433   8 o    1.811 --   435 h    0.896   434 h    0.811
   434   1 h    0.881 --   433 o    0.811
   435   1 h    0.904 --   433 o    0.896
   436   8 o    1.843 --   437 h    0.847   438 h    0.803
   437   1 h    0.895 --   436 o    0.847
   438   1 h    0.881 --   436 o    0.803
   439   8 o    1.862 --   441 h    0.840   440 h    0.802
   440   1 h    0.873 --   439 o    0.802
   441   1 h    0.894 --   439 o    0.840
   442   8 o    1.858 --   443 h    0.830   444 h    0.787
   443   1 h    0.891 --   442 o    0.830
   444   1 h    0.870 --   442 o    0.787
   445   8 o    1.812 --   447 h    0.874   446 h    0.832
   446   1 h    0.879 --   445 o    0.832
   447   1 h    0.896 --   445 o    0.874
   448   8 o    1.871 --   450 h    0.805   449 h    0.767
   449   1 h    0.873 --   448 o    0.767
   450   1 h    0.872 --   448 o    0.805
   451   8 o    1.846 --   452 h    0.864   453 h    0.793
   452   1 h    0.895 --   451 o    0.864
   453   1 h    0.874 --   451 o    0.793
   454   8 o    1.846 --   455 h    0.836   456 h    0.827
   455   1 h    0.884 --   454 o    0.836
   456   1 h    0.888 --   454 o    0.827
   457   8 o    1.835 --   458 h    0.841   459 h    0.795
   458   1 h    0.892 --   457 o    0.841
   459   1 h    0.878 --   457 o    0.795
   460   8 o    1.838 --   462 h    0.824   461 h    0.810
   461   1 h    0.881 --   460 o    0.810
   462   1 h    0.891 --   460 o    0.824
   463   8 o    1.880 --   464 h    0.819   465 h    0.803
   464   1 h    0.886 --   463 o    0.819
   465   1 h    0.873 --   463 o    0.803
   466   8 o    1.817 --   468 h    0.878   467 h    0.800
   467   1 h    0.874 --   466 o    0.800
   468   1 h    0.900 --   466 o    0.878
   469   8 o    1.836 --   470 h    0.855   471 h    0.792
   470   1 h    0.893 --   469 o    0.855
   471   1 h    0.870 --   469 o    0.792
   472   8 o    1.832 --   474 h    0.863   473 h    0.807
   473   1 h    0.876 --   472 o    0.807
   474   1 h    0.893 --   472 o    0.863
   475   8 o    1.846 --   477 h    0.898   476 h    0.829
   476   1 h    0.885 --   475 o    0.829
   477   1 h    0.907 --   475 o    0.898
   478   8 o    1.848 --   479 h    0.823   480 h    0.804
   479   1 h    0.885 --   478 o    0.823
   480   1 h    0.870 --   478 o    0.804
   481   8 o    1.836 --   482 h    0.832   483 h    0.830
   482   1 h    0.894 --   481 o    0.832
   483   1 h    0.881 --   481 o    0.830
   484   8 o    1.876 --   486 h    0.842   485 h    0.785
   485   1 h    0.871 --   484 o    0.785
   486   1 h    0.881 --   484 o    0.842
   487   8 o    1.879 --   488 h    0.863   489 h    0.833
   488   1 h    0.896 --   487 o    0.863
   489   1 h    0.883 --   487 o    0.833
   490   8 o    1.874 --   492 h    0.830   491 h    0.799
   491   1 h    0.882 --   490 o    0.799
   492   1 h    0.884 --   490 o    0.830
   493   8 o    1.874 --   495 h    0.838   494 h    0.814
   494   1 h    0.883 --   493 o    0.814
   495   1 h    0.880 --   493 o    0.838
   496   8 o    1.835 --   497 h    0.855   498 h    0.830
   497   1 h    0.888 --   496 o    0.855
   498   1 h    0.889 --   496 o    0.830
   499   8 o    1.844 --   500 h    0.871   501 h    0.808
   500   1 h    0.897 --   499 o    0.871
   501   1 h    0.878 --   499 o    0.808
   502   8 o    1.835 --   503 h    0.848   504 h    0.846
   503   1 h    0.883 --   502 o    0.848
   504   1 h    0.887 --   502 o    0.846
   505   8 o    1.849 --   506 h    0.832   507 h    0.797
   506   1 h    0.890 --   505 o    0.832
   507   1 h    0.879 --   505 o    0.797
   508   8 o    1.865 --   510 h    0.896   509 h    0.815
   509   1 h    0.878 --   508 o    0.815
   510   1 h    0.900 --   508 o    0.896
   511   8 o    1.833 --   512 h    0.847   513 h    0.837
   512   1 h    0.890 --   511 o    0.847
   513   1 h    0.888 --   511 o    0.837
   514   8 o    1.841 --   516 h    0.841   515 h    0.837
   515   1 h    0.884 --   514 o    0.837
   516   1 h    0.890 --   514 o    0.841
   517   8 o    1.849 --   518 h    0.902   519 h    0.771
   518   1 h    0.905 --   517 o    0.902
   519   1 h    0.876 --   517 o    0.771   352 o    0.101
   520   8 o    1.856 --   522 h    0.892   521 h    0.847
   521   1 h    0.885 --   520 o    0.847
   522   1 h    0.902 --   520 o    0.892
   523   8 o    1.863 --   525 h    0.886   524 h    0.798
   524   1 h    0.882 --   523 o    0.798
   525   1 h    0.899 --   523 o    0.886
   526   8 o    1.779 --   528 h    0.897   527 h    0.840
   527   1 h    0.889 --   526 o    0.840
   528   1 h    0.910 --   526 o    0.897
   529   8 o    1.803 --   530 h    0.856   531 h    0.845
   530   1 h    0.895 --   529 o    0.856
   531   1 h    0.888 --   529 o    0.845
 ---------------------------------------------------------------------------

Topologies differ in total number of bonds
Writing topology from bond orders to xtbtopo.mol

molecular dipole:
                 x           y           z       tot (Debye)
 q only:        3.041       2.930      -2.748
   full:        4.396       4.024      -3.435      17.483
molecular quadrupole (traceless):
                xx          xy          yy          xz          yz          zz
 q only:      149.667     -14.389     -89.223      -8.125      28.538     -60.444
  q+dip:      199.565     -29.101    -127.282     -17.672      35.359     -72.283
   full:      200.921     -29.117    -128.208     -18.946      35.205     -72.713


           -------------------------------------------------
          | TOTAL ENERGY             -901.415146575594 Eh   |
          | GRADIENT NORM               0.109545824931 Eh/α |
          | HOMO-LUMO GAP               7.039540446314 eV   |
           -------------------------------------------------

------------------------------------------------------------------------
 * finished run on 2022/11/17 at 06:54:57.876     
------------------------------------------------------------------------
 total:
 * wall-time:     0 d,  0 h,  0 min,  8.701 sec
 *  cpu-time:     0 d,  0 h,  0 min, 13.748 sec
 * ratio c/w:     1.580 speedup
 SCF:
 * wall-time:     0 d,  0 h,  0 min,  8.171 sec
 *  cpu-time:     0 d,  0 h,  0 min, 12.742 sec
 * ratio c/w:     1.559 speedup

