      -----------------------------------------------------------      
     |                   =====================                   |     
     |                           x T B                           |     
     |                   =====================                   |     
     |                         S. Grimme                         |     
     |          Mulliken Center for Theoretical Chemistry        |     
     |                    University of Bonn                     |     
      -----------------------------------------------------------      

   * xtb version 6.5.1 (579679a) compiled by 'ehlert@majestix' on 2022-07-11

   xtb is free software: you can redistribute it and/or modify it under
   the terms of the GNU Lesser General Public License as published by
   the Free Software Foundation, either version 3 of the License, or
   (at your option) any later version.
   
   xtb is distributed in the hope that it will be useful,
   but WITHOUT ANY WARRANTY; without even the implied warranty of
   MERCHANTABILITY or FITNESS FOR A PARTICULAR PURPOSE.  See the
   GNU Lesser General Public License for more details.
   
   Cite this work as:
   * C. Bannwarth, E. Caldeweyher, S. Ehlert, A. Hansen, P. Pracht,
     J. Seibert, S. Spicher, S. Grimme, WIREs Comput. Mol. Sci., 2020, 11,
     e01493. DOI: 10.1002/wcms.1493
   
   for GFN2-xTB:
   * C. Bannwarth, S. Ehlert and S. Grimme., J. Chem. Theory Comput., 2019,
     15, 1652-1671. DOI: 10.1021/acs.jctc.8b01176
   for GFN1-xTB:
   * S. Grimme, C. Bannwarth, P. Shushkov, J. Chem. Theory Comput., 2017,
     13, 1989-2009. DOI: 10.1021/acs.jctc.7b00118
   for GFN0-xTB:
   * P. Pracht, E. Caldeweyher, S. Ehlert, S. Grimme, ChemRxiv, 2019, preprint.
     DOI: 10.26434/chemrxiv.8326202.v1
   for GFN-FF:
   * S. Spicher and S. Grimme, Angew. Chem. Int. Ed., 2020, 59, 15665-15673.
     DOI: 10.1002/anie.202004239
   
   for ALPB and GBSA implicit solvation:
   * S. Ehlert, M. Stahn, S. Spicher, S. Grimme, J. Chem. Theory Comput.,
     2021, 17, 4250-4261. DOI: 10.1021/acs.jctc.1c00471
   
   for DFT-D4:
   * E. Caldeweyher, C. Bannwarth and S. Grimme, J. Chem. Phys., 2017,
     147, 034112. DOI: 10.1063/1.4993215
   * E. Caldeweyher, S. Ehlert, A. Hansen, H. Neugebauer, S. Spicher,
     C. Bannwarth and S. Grimme, J. Chem. Phys., 2019, 150, 154122.
     DOI: 10.1063/1.5090222
   * E. Caldeweyher, J.-M. Mewes, S. Ehlert and S. Grimme, Phys. Chem. Chem. Phys.
     2020, 22, 8499-8512. DOI: 10.1039/D0CP00502A
   
   for sTDA-xTB:
   * S. Grimme and C. Bannwarth, J. Chem. Phys., 2016, 145, 054103.
     DOI: 10.1063/1.4959605
   
   in the mass-spec context:
   * V. Asgeirsson, C. Bauer and S. Grimme, Chem. Sci., 2017, 8, 4879.
     DOI: 10.1039/c7sc00601b
   * J. Koopman and S. Grimme, ACS Omega 2019, 4, 12, 15120-15133.
     DOI: 10.1021/acsomega.9b02011
   
   for metadynamics refer to:
   * S. Grimme, J. Chem. Theory Comput., 2019, 155, 2847-2862
     DOI: 10.1021/acs.jctc.9b00143
   
   for SPH calculations refer to:
   * S. Spicher and S. Grimme, J. Chem. Theory Comput., 2021, 17, 1701-1714
     DOI: 10.1021/acs.jctc.0c01306
   
   with help from (in alphabetical order)
   P. Atkinson, C. Bannwarth, F. Bohle, G. Brandenburg, E. Caldeweyher
   M. Checinski, S. Dohm, S. Ehlert, S. Ehrlich, I. Gerasimov, C. Hölzer
   A. Katbashev, J. Koopman, C. Lavigne, S. Lehtola, F. März, M. Müller,
   F. Musil, H. Neugebauer, J. Pisarek, C. Plett, P. Pracht, F. Pultar,
   J. Seibert, P. Shushkov, S. Spicher, M. Stahn, M. Steiner, T. Strunk,
   J. Stückrath, T. Rose, and J. Unsleber
   
 * started run on 2022/11/17 at 06:54:59.737     

           -------------------------------------------------
          |                Calculation Setup                |
           -------------------------------------------------

          program call               : xtb solvent_cluster.coord --gfn2 --sp --lmo --chrg 0
          hostname                   : cn0363
          coordinate file            : solvent_cluster.coord
          omp threads                :                     2

   ID    Z sym.   atoms
    1    8 o      1, 4, 7, 10, 13, 16, 19, 22, 25, 28, 31, 34, 37, 40, 43,
                  46, 49, 52, 55, 58, 61, 64, 67, 70, 73, 76, 79, 82, 85, 88,
                  91, 94, 97, 100, 103, 106, 109, 112, 115, 118, 121, 124,
                  127, 130, 133, 136, 139, 142, 145, 148, 151, 154, 157, 160,
                  163, 166, 169, 172, 175, 178, 181, 184, 187, 190, 193, 196,
                  199, 202, 205, 208, 211, 214, 217, 220, 223, 226, 229, 232,
                  235, 238, 241, 244, 247, 250, 253, 256, 259, 262, 265, 268,
                  271, 274, 277, 280, 283, 286, 289, 292, 295, 298, 301, 304,
                  307, 310, 313, 316, 319, 322, 325, 328, 331, 334, 337, 340,
                  343, 346, 349, 352, 355, 358, 361, 364, 367, 370, 373, 376,
                  379, 382, 385, 388, 391, 394, 397, 400, 403, 406, 409, 412,
                  415, 418, 421, 424, 427, 430, 433, 436, 439, 442, 445, 448,
                  451, 454, 457, 460, 463, 466, 469, 472, 475, 478, 481, 484,
                  487, 490, 493, 496, 499, 502, 505, 508, 511, 514, 517, 520,
                  523, 526, 529
    2    1 h      2, 3, 5, 6, 8, 9, 11, 12, 14, 15, 17, 18, 20, 21, 23, 24,
                  26, 27, 29, 30, 32, 33, 35, 36, 38, 39, 41, 42, 44, 45, 47,
                  48, 50, 51, 53, 54, 56, 57, 59, 60, 62, 63, 65, 66, 68, 69,
                  71, 72, 74, 75, 77, 78, 80, 81, 83, 84, 86, 87, 89, 90, 92,
                  93, 95, 96, 98, 99, 101, 102, 104, 105, 107, 108, 110, 111,
                  113, 114, 116, 117, 119, 120, 122, 123, 125, 126, 128, 129,
                  131, 132, 134, 135, 137, 138, 140, 141, 143, 144, 146, 147,
                  149, 150, 152, 153, 155, 156, 158, 159, 161, 162, 164, 165,
                  167, 168, 170, 171, 173, 174, 176, 177, 179, 180, 182, 183,
                  185, 186, 188, 189, 191, 192, 194, 195, 197, 198, 200, 201,
                  203, 204, 206, 207, 209, 210, 212, 213, 215, 216, 218, 219,
                  221, 222, 224, 225, 227, 228, 230, 231, 233, 234, 236, 237,
                  239, 240, 242, 243, 245, 246, 248, 249, 251, 252, 254, 255,
                  257, 258, 260, 261, 263, 264, 266, 267, 269, 270, 272, 273,
                  275, 276, 278, 279, 281, 282, 284, 285, 287, 288, 290, 291,
                  293, 294, 296, 297, 299, 300, 302, 303, 305, 306, 308, 309,
                  311, 312, 314, 315, 317, 318, 320, 321, 323, 324, 326, 327,
                  329, 330, 332, 333, 335, 336, 338, 339, 341, 342, 344, 345,
                  347, 348, 350, 351, 353, 354, 356, 357, 359, 360, 362, 363,
                  365, 366, 368, 369, 371, 372, 374, 375, 377, 378, 380, 381,
                  383, 384, 386, 387, 389, 390, 392, 393, 395, 396, 398, 399,
                  401, 402, 404, 405, 407, 408, 410, 411, 413, 414, 416, 417,
                  419, 420, 422, 423, 425, 426, 428, 429, 431, 432, 434, 435,
                  437, 438, 440, 441, 443, 444, 446, 447, 449, 450, 452, 453,
                  455, 456, 458, 459, 461, 462, 464, 465, 467, 468, 470, 471,
                  473, 474, 476, 477, 479, 480, 482, 483, 485, 486, 488, 489,
                  491, 492, 494, 495, 497, 498, 500, 501, 503, 504, 506, 507,
                  509, 510, 512, 513, 515, 516, 518, 519, 521, 522, 524, 525,
                  527, 528, 530, 531

molecular fragmentation (1/2 indicates fragments):
111222222222222222222222222222222222222222222222222222222222222222222222
222222222222222222222222222222222222222222222222222222222222222222222222
222222222222222222222222222222222222222222222222222222222222222222222222
222222222222222222222222222222222222222222222222222222222222222222222222
222222222222222222222222222222222222222222222222222222222222222222222222
222222222222222222222222222222222222222222222222222222222222222222222222
222222222222222222222222222222222222222222222222222222222222222222222222
222222222222222222222222222
# atoms in fragment 1/2:     3   528
 fragment masses (1/2) :       18.02     3170.69
CMA distance (Bohr)    :   6.880
constraining FC (au)   :  0.0500

           -------------------------------------------------
          |                 G F N 2 - x T B                 |
           -------------------------------------------------

        Reference                      10.1021/acs.jctc.8b01176
      * Hamiltonian:
        H0-scaling (s, p, d)           1.850000    2.230000    2.230000
        zeta-weighting                 0.500000
      * Dispersion:
        s8                             2.700000
        a1                             0.520000
        a2                             5.000000
        s9                             5.000000
      * Repulsion:
        kExp                           1.500000    1.000000
        rExp                           1.000000
      * Coulomb:
        alpha                          2.000000
        third order                    shell-resolved
        anisotropic                    true
        a3                             3.000000
        a5                             4.000000
        cn-shift                       1.200000
        cn-exp                         4.000000
        max-rad                        5.000000


          ...................................................
          :                      SETUP                      :
          :.................................................:
          :  # basis functions                1062          :
          :  # atomic orbitals                1062          :
          :  # shells                          708          :
          :  # electrons                      1416          :
          :  max. iterations                   250          :
          :  Hamiltonian                  GFN2-xTB          :
          :  restarted?                      false          :
          :  GBSA solvation                  false          :
          :  PC potential                    false          :
          :  electronic temp.          300.0000000     K    :
          :  accuracy                    1.0000000          :
          :  -> integral cutoff          0.2500000E+02      :
          :  -> integral neglect         0.1000000E-07      :
          :  -> SCF convergence          0.1000000E-05 Eh   :
          :  -> wf. convergence          0.1000000E-03 e    :
          :  Broyden damping             0.4000000          :
          ...................................................

 iter      E             dE          RMSdq      gap      omega  full diag
   1   -906.5574225 -0.906557E+03  0.406E+00    8.66       0.0  T
   2   -906.6147754 -0.573529E-01  0.241E+00    7.34       1.0  T
   3   -906.6373963 -0.226209E-01  0.214E-01    5.52       1.0  T
   4   -906.6413472 -0.395083E-02  0.461E-02    6.00       1.0  T
   5   -906.6414145 -0.673482E-04  0.309E-02    5.93       1.0  T
   6   -906.6414432 -0.286272E-04  0.397E-03    5.97       1.1  T
   7   -906.6414446 -0.148419E-05  0.760E-04    5.96       5.7  T
   8   -906.6414447 -0.210108E-07  0.391E-04    5.96      11.1  T
   9   -906.6414447 -0.106462E-07  0.570E-05    5.96      76.1  T

   *** convergence criteria satisfied after 9 iterations ***

         #    Occupation            Energy/Eh            Energy/eV
      -------------------------------------------------------------
         1        2.0000           -0.6963035             -18.9474
       ...           ...                  ...                  ...
       702        2.0000           -0.3564606              -9.6998
       703        2.0000           -0.3558144              -9.6822
       704        2.0000           -0.3516145              -9.5679
       705        2.0000           -0.3401962              -9.2572
       706        2.0000           -0.3260700              -8.8728
       707        2.0000           -0.3050695              -8.3014
       708        2.0000           -0.3029079              -8.2425 (HOMO)
       709                         -0.0837718              -2.2795 (LUMO)
       710                         -0.0742451              -2.0203
       711                         -0.0564508              -1.5361
       712                         -0.0485669              -1.3216
       713                         -0.0432808              -1.1777
       ...                                ...                  ...
      1062                          0.4888468              13.3022
      -------------------------------------------------------------
                  HL-Gap            0.2191361 Eh            5.9630 eV
             Fermi-level           -0.1933398 Eh           -5.2610 eV
 
 localization/xTB-IFF output generation
 averaging CT terms over            2  occ. levels
 averaging CT terms over            2  virt. levels
 dipole moment from electron density (au)
     X       Y       Z   
   4.0615   3.5876  -3.1662  total (Debye):   15.953
cpu  time for init local    0.41 s
wall time for init local    0.21 s
 doing rotations ...
 initialization of trafo matrix to unity

 converged in     16 iterations, threshold :   0.99998366D-06
 doing transformations ...
 lmo centers(Z=2) and atoms on file <lmocent.coord>
 LMO Fii/eV  ncent    charge center   contributions...
    1 LP   *******   0.00   6.98511  -2.37816  -2.03298  226O :  6.27  202O :  4.09  118O :  3.31  355O :  3.24  523O :  3.16   55O :  3.13  457O :  2.98  346O :  2.93   19O :  2.91   25O :  2.77   91O :  2.50   31O :  2.49
  220O :  2.48  109O :  2.45  511O :  2.42  343O :  2.35  112O :  2.31  199O :  2.31   40O :  2.31  313O :  2.21  304O :  2.19  529O :  2.17  310O :  2.14  271O :  2.04
  238O :  1.95    1O :  1.94  280O :  1.94   22O :  1.88    7O :  1.86  151O :  1.85  460O :  1.79  178O :  1.74  121O :  1.74   52O :  1.73  106O :  1.66   34O :  1.63
  385O :  1.62  256O :  1.58   67O :  1.55  100O :  1.54  382O :  1.53  325O :  1.52  175O :  1.52  361O :  1.50  307O :  1.49   61O :  1.45  481O :  1.43  217O :  1.42
  193O :  1.42  505O :  1.41   13O :  1.38  187O :  1.38  160O :  1.36  367O :  1.32   49O :  1.29   58O :  1.28  526O :  1.28  493O :  1.28  475O :  1.28  154O :  1.21
  289O :  1.18  211O :  1.16  340O :  1.16   82O :  1.15  400O :  1.15  253O :  1.14  499O :  1.14  379O :  1.12  496O :  1.11   76O :  1.09  181O :  1.09  214O :  1.08
  208O :  1.05  328O :  1.04  241O :  0.98  442O :  0.98  403O :  0.97  247O :  0.97  283O :  0.97  517O :  0.96  124O :  0.95   97O :  0.95  424O :  0.94   37O :  0.93
  295O :  0.90  319O :  0.89  454O :  0.88  136O :  0.85  259O :  0.85  139O :  0.82   28O :  0.82  274O :  0.81  358O :  0.80  373O :  0.79  349O :  0.78  205O :  0.78
  415O :  0.77  370O :  0.77  127O :  0.77  130O :  0.76  421O :  0.75  184O :  0.74  388O :  0.72  196O :  0.72  451O :  0.70  430O :  0.68  502O :  0.68  103O :  0.68
    4O :  0.67  265O :  0.67  487O :  0.65   46O :  0.65   85O :  0.64  286O :  0.64  364O :  0.63  427O :  0.63  412O :  0.62  406O :  0.60  331O :  0.59  292O :  0.57
  478O :  0.57  277O :  0.55   73O :  0.55  514O :  0.55  334O :  0.55  312H :  0.54  530H :  0.54   94O :  0.53  314H :  0.53  466O :  0.52   10O :  0.52  397O :  0.51
  172O :  0.50  439O :  0.49   79O :  0.49  248H :  0.48  142O :  0.47  115O :  0.44  376O :  0.44  472O :  0.43  418O :  0.41  229O :  0.41  463O :  0.38  506H :  0.38
  235O :  0.37  148O :  0.36  298O :  0.35  316O :  0.35  262O :  0.34  133O :  0.33  169O :  0.32  268O :  0.31   64O :  0.31  301O :  0.31  145O :  0.31  436O :  0.30
   70O :  0.30   16O :  0.30  250O :  0.30  508O :  0.30  163O :  0.30  469O :  0.27   43O :  0.26  240H :  0.26  244O :  0.26   93H :  0.25  242H :  0.25   33H :  0.24
  528H :  0.24    6H :  0.24  290H :  0.24  391O :  0.24  490O :  0.23  322O :  0.22  445O :  0.22  166O :  0.22  311H :  0.22  362H :  0.21  315H :  0.21  433O :  0.21
  484O :  0.20   29H :  0.19  394O :  0.19   88O :  0.19  512H :  0.19   15H :  0.19  117H :  0.18  337O :  0.18   53H :  0.18  180H :  0.18  387H :  0.17  182H :  0.17
  197H :  0.17   20H :  0.17  123H :  0.16  223O :  0.16  227H :  0.16  409O :  0.16  122H :  0.16  273H :  0.16  261H :  0.16    2H :  0.16  369H :  0.15  352O :  0.15
    9H :  0.15  157O :  0.14   27H :  0.14  459H :  0.14   14H :  0.14   78H :  0.14  284H :  0.14  380H :  0.14  237H :  0.13  520O :  0.13  294H :  0.13  257H :  0.13
  474H :  0.13   42H :  0.13  417H :  0.13  504H :  0.12  399H :  0.12   50H :  0.12  186H :  0.12  190O :  0.12  383H :  0.12  309H :  0.12    5H :  0.12  342H :  0.11
  279H :  0.11  213H :  0.11   59H :  0.11   96H :  0.11  390H :  0.11  222H :  0.11  107H :  0.11   75H :  0.11  207H :  0.10   84H :  0.10  114H :  0.10  455H :  0.10
  452H :  0.10  485H :  0.10  204H :  0.10   56H :  0.10   83H :  0.10  285H :  0.10  101H :  0.10  288H :  0.10  321H :  0.09  492H :  0.09  413H :  0.09  134H :  0.09
  243H :  0.09  155H :  0.09   30H :  0.09  395H :  0.09  482H :  0.08  350H :  0.08  212H :  0.08  203H :  0.08  425H :  0.08  152H :  0.08  162H :  0.08  375H :  0.08
  249H :  0.08  327H :  0.08  503H :  0.08  232O :  0.07  282H :  0.07   74H :  0.07  386H :  0.07   99H :  0.07  461H :  0.07  363H :  0.07
    2 LP   *******   0.00   9.94396   3.52493   8.57448   55O :  5.05  202O :  3.15  226O :  2.65  118O :  2.56  355O :  2.50  523O :  2.44  346O :  2.26   19O :  2.24  457O :  2.22   25O :  2.14   91O :  1.93   31O :  1.92
  220O :  1.92  109O :  1.90  511O :  1.87  343O :  1.81  199O :  1.81  112O :  1.78   40O :  1.78  313O :  1.70  304O :  1.69  529O :  1.67  310O :  1.65  271O :  1.57
  238O :  1.50    1O :  1.50  280O :  1.50   22O :  1.45  151O :  1.42    7O :  1.39  460O :  1.38  178O :  1.34  121O :  1.34   52O :  1.34  106O :  1.28   34O :  1.26
  385O :  1.25  256O :  1.22   67O :  1.20  100O :  1.19  382O :  1.18  325O :  1.17  175O :  1.17  361O :  1.16  307O :  1.15   61O :  1.12  481O :  1.10  217O :  1.09
  193O :  1.09  505O :  1.09   13O :  1.07  187O :  1.07  160O :  1.05  367O :  1.02   49O :  0.99   58O :  0.99  493O :  0.99  475O :  0.99  526O :  0.99  154O :  0.93
  289O :  0.91  211O :  0.90  340O :  0.90  499O :  0.89   82O :  0.89  400O :  0.89  253O :  0.88  379O :  0.86  496O :  0.85   76O :  0.84  181O :  0.84  214O :  0.83
  208O :  0.81  328O :  0.80  241O :  0.75  442O :  0.75  403O :  0.75  247O :  0.75  283O :  0.75  517O :  0.74   37O :  0.74  124O :  0.74   97O :  0.73  424O :  0.73
  295O :  0.69  319O :  0.68  454O :  0.68  136O :  0.65  259O :  0.65  139O :  0.63   28O :  0.63  274O :  0.63  358O :  0.62  373O :  0.61  349O :  0.60  205O :  0.60
  415O :  0.60  370O :  0.59  127O :  0.59  130O :  0.59  421O :  0.58  184O :  0.57  388O :  0.56  451O :  0.54  196O :  0.54  430O :  0.53  502O :  0.52  103O :  0.52
    4O :  0.52  265O :  0.52  487O :  0.50   46O :  0.50   85O :  0.50  286O :  0.49  364O :  0.49  427O :  0.48  412O :  0.48  406O :  0.46  331O :  0.45  292O :  0.44
  478O :  0.44  277O :  0.43   73O :  0.43  514O :  0.42  334O :  0.42  312H :  0.42  530H :  0.42   94O :  0.41  314H :  0.41  466O :  0.40   10O :  0.40  397O :  0.40
  172O :  0.39  439O :  0.38   79O :  0.38  248H :  0.37  142O :  0.36  376O :  0.34  115O :  0.33  472O :  0.33  418O :  0.32  229O :  0.31  463O :  0.30  506H :  0.30
  235O :  0.29  148O :  0.28  316O :  0.27  298O :  0.27  262O :  0.26  133O :  0.26  169O :  0.25   64O :  0.24  268O :  0.24  301O :  0.24  145O :  0.24   16O :  0.24
  436O :  0.23   70O :  0.23  250O :  0.23  508O :  0.23  163O :  0.23  469O :  0.21   43O :  0.20  240H :  0.20  244O :  0.20   93H :  0.20  242H :  0.19   33H :  0.19
    6H :  0.19  528H :  0.18  290H :  0.18  391O :  0.18  490O :  0.17  322O :  0.17  445O :  0.17  166O :  0.17  311H :  0.17  362H :  0.16  315H :  0.16  433O :  0.16
  484O :  0.16  387H :  0.15   29H :  0.15  394O :  0.15   88O :  0.15  512H :  0.15   15H :  0.14  117H :  0.14  337O :  0.14  227H :  0.14   53H :  0.14  180H :  0.14
  182H :  0.13   20H :  0.13  123H :  0.13  223O :  0.13  409O :  0.13  197H :  0.12  122H :  0.12  273H :  0.12  261H :  0.12    2H :  0.12  369H :  0.12  352O :  0.12
  157O :  0.11   27H :  0.11   14H :  0.11   78H :  0.11  284H :  0.11  380H :  0.11    9H :  0.10  237H :  0.10  520O :  0.10  294H :  0.10  257H :  0.10  474H :  0.10
   42H :  0.10  417H :  0.10  504H :  0.10  399H :  0.09   50H :  0.09  186H :  0.09  190O :  0.09   59H :  0.09  383H :  0.09  309H :  0.09    5H :  0.09  342H :  0.09
  279H :  0.09  213H :  0.09   96H :  0.08  390H :  0.08  222H :  0.08  107H :  0.08   75H :  0.08  207H :  0.08   84H :  0.08  114H :  0.08  452H :  0.08  455H :  0.08
  204H :  0.08   83H :  0.08  285H :  0.08  228H :  0.07  101H :  0.07  288H :  0.07  321H :  0.07  485H :  0.07  492H :  0.07
    3 LP   *******   0.01  -0.14214   9.05447  15.72329  202O :  5.34  226O :  2.56  118O :  2.47  355O :  2.41  523O :  2.35   55O :  2.33  457O :  2.22  346O :  2.18   19O :  2.16   25O :  2.06   91O :  1.86   31O :  1.85
  220O :  1.85  109O :  1.83  511O :  1.81  343O :  1.75  199O :  1.74   40O :  1.72  112O :  1.72  313O :  1.64  304O :  1.63  529O :  1.61  310O :  1.59  271O :  1.52
  238O :  1.45    1O :  1.45  280O :  1.45   22O :  1.40    7O :  1.39  151O :  1.37  460O :  1.33  178O :  1.30  121O :  1.29   52O :  1.29  106O :  1.24   34O :  1.21
  385O :  1.21  256O :  1.18   67O :  1.16  100O :  1.15  382O :  1.14  325O :  1.13  175O :  1.13  361O :  1.12  307O :  1.11   61O :  1.08  481O :  1.06  217O :  1.06
  193O :  1.05  505O :  1.05   13O :  1.03  187O :  1.03  160O :  1.01  367O :  0.98   49O :  0.96   58O :  0.96  493O :  0.95  526O :  0.95  475O :  0.95  154O :  0.90
  289O :  0.88  211O :  0.87  340O :  0.86   82O :  0.86  400O :  0.86  499O :  0.85  253O :  0.85  379O :  0.83  496O :  0.82   76O :  0.81  181O :  0.81  214O :  0.80
  208O :  0.78  328O :  0.77  241O :  0.73  442O :  0.73  403O :  0.72  247O :  0.72  283O :  0.72  517O :  0.72  124O :  0.71   97O :  0.71  424O :  0.70   37O :  0.69
  295O :  0.67  319O :  0.66  454O :  0.66  136O :  0.63  259O :  0.63  139O :  0.61  274O :  0.61   28O :  0.61  358O :  0.60  373O :  0.59  349O :  0.58  205O :  0.58
  415O :  0.57  370O :  0.57  127O :  0.57  130O :  0.57  421O :  0.56  184O :  0.55  388O :  0.54  451O :  0.52  196O :  0.52  430O :  0.51  502O :  0.51  103O :  0.50
    4O :  0.50  265O :  0.50  487O :  0.48   46O :  0.48   85O :  0.48  286O :  0.47  364O :  0.47  427O :  0.47  412O :  0.46  406O :  0.44  331O :  0.44  292O :  0.42
  478O :  0.42  277O :  0.41   73O :  0.41  514O :  0.41  334O :  0.41  312H :  0.40  530H :  0.40   94O :  0.40  314H :  0.39  466O :  0.39   10O :  0.39  397O :  0.38
  172O :  0.37  439O :  0.37   79O :  0.37  248H :  0.35  142O :  0.35  376O :  0.32  115O :  0.32  472O :  0.32  418O :  0.31  229O :  0.30  463O :  0.29  506H :  0.29
  148O :  0.27  235O :  0.27  316O :  0.26  298O :  0.26  262O :  0.25  133O :  0.25  169O :  0.24   64O :  0.23  268O :  0.23  301O :  0.23  145O :  0.23   16O :  0.23
  436O :  0.23   70O :  0.23  250O :  0.22  508O :  0.22  163O :  0.22  469O :  0.21   43O :  0.20  240H :  0.20  244O :  0.19   93H :  0.19  242H :  0.18   33H :  0.18
  528H :  0.18    6H :  0.18  290H :  0.18  391O :  0.18  490O :  0.17  322O :  0.17  445O :  0.17  166O :  0.16  311H :  0.16  362H :  0.16  315H :  0.16  433O :  0.15
  484O :  0.15  387H :  0.14   29H :  0.14  394O :  0.14   88O :  0.14  512H :  0.14   15H :  0.14  117H :  0.14  337O :  0.14  227H :  0.14   53H :  0.13  180H :  0.13
  182H :  0.13   20H :  0.12  197H :  0.12  123H :  0.12  223O :  0.12  409O :  0.12  122H :  0.12  273H :  0.12  261H :  0.12    2H :  0.12  369H :  0.11  352O :  0.11
    9H :  0.11  157O :  0.11   27H :  0.11  459H :  0.10   14H :  0.10   78H :  0.10  284H :  0.10  380H :  0.10  520O :  0.10  294H :  0.10  257H :  0.09  474H :  0.09
   42H :  0.09  417H :  0.09  504H :  0.09  237H :  0.09  399H :  0.09   50H :  0.09  186H :  0.09  190O :  0.09  383H :  0.09   59H :  0.09  309H :  0.09    5H :  0.09
  342H :  0.08  279H :  0.08  213H :  0.08   96H :  0.08  390H :  0.08  222H :  0.08  107H :  0.08   75H :  0.08  207H :  0.08   84H :  0.08  114H :  0.08  452H :  0.08
  455H :  0.08   56H :  0.07   83H :  0.07  285H :  0.07  228H :  0.07  101H :  0.07  288H :  0.07  321H :  0.07
    4 LP   *******   0.01   3.52470   9.63387  10.12810  523O :  4.85  202O :  3.00  226O :  2.52  118O :  2.43  355O :  2.38   55O :  2.29  457O :  2.18  346O :  2.15   19O :  2.13   25O :  2.03   91O :  1.83   31O :  1.83
  220O :  1.82  109O :  1.80  511O :  1.78  343O :  1.72  199O :  1.72  112O :  1.70   40O :  1.70  313O :  1.62  304O :  1.61  529O :  1.59  310O :  1.57  271O :  1.50
  238O :  1.43    1O :  1.43  280O :  1.42   22O :  1.38    7O :  1.37  151O :  1.35  460O :  1.32  178O :  1.28  121O :  1.27   52O :  1.27  106O :  1.22   34O :  1.19
  385O :  1.19  256O :  1.16  100O :  1.13  382O :  1.12  325O :  1.12  175O :  1.11  361O :  1.10   67O :  1.10  307O :  1.09   61O :  1.06  481O :  1.05  217O :  1.04
  193O :  1.04  505O :  1.04   13O :  1.02  187O :  1.02  160O :  1.00  367O :  0.97   49O :  0.94   58O :  0.94  493O :  0.94  526O :  0.94  475O :  0.94  154O :  0.89
  289O :  0.87  211O :  0.85  340O :  0.85   82O :  0.84  400O :  0.84  253O :  0.84  499O :  0.84  379O :  0.82  496O :  0.81   76O :  0.80  181O :  0.80  214O :  0.79
  208O :  0.77  328O :  0.76  241O :  0.72  442O :  0.72  403O :  0.71  247O :  0.71  283O :  0.71  517O :  0.71  124O :  0.70   97O :  0.69  424O :  0.69   37O :  0.67
  295O :  0.66  319O :  0.65  454O :  0.65  136O :  0.62  259O :  0.62  139O :  0.60   28O :  0.60  274O :  0.60  358O :  0.59  373O :  0.58  349O :  0.57  205O :  0.57
  415O :  0.57  370O :  0.56  127O :  0.56  130O :  0.56  421O :  0.55  184O :  0.54  388O :  0.53  451O :  0.52  196O :  0.51  430O :  0.50  502O :  0.50  103O :  0.50
    4O :  0.49  265O :  0.49  487O :  0.48   46O :  0.48   85O :  0.47  286O :  0.47  364O :  0.47  427O :  0.46  412O :  0.45  406O :  0.44  331O :  0.43  292O :  0.42
  478O :  0.41  277O :  0.41   73O :  0.40  514O :  0.40  334O :  0.40  312H :  0.40  530H :  0.40   94O :  0.39  314H :  0.39  466O :  0.38   10O :  0.38  397O :  0.38
  172O :  0.37  439O :  0.36   79O :  0.36  248H :  0.35  142O :  0.34  376O :  0.32  115O :  0.32  472O :  0.31  418O :  0.30  229O :  0.30  463O :  0.28  506H :  0.28
  235O :  0.27  148O :  0.27  316O :  0.26  298O :  0.26  262O :  0.25  133O :  0.24  169O :  0.23   64O :  0.23  268O :  0.23  301O :  0.23  145O :  0.23   16O :  0.22
  436O :  0.22   70O :  0.22  250O :  0.22  508O :  0.22  163O :  0.22  469O :  0.19   43O :  0.19  240H :  0.19  244O :  0.19   93H :  0.19  242H :  0.18   33H :  0.18
  528H :  0.18    6H :  0.18  290H :  0.17  391O :  0.17  322O :  0.17  490O :  0.16  445O :  0.16  166O :  0.16  311H :  0.16  362H :  0.16  315H :  0.16  433O :  0.15
  484O :  0.15  387H :  0.14   29H :  0.14  394O :  0.14   88O :  0.14  512H :  0.14   15H :  0.14  117H :  0.13  337O :  0.13  227H :  0.13   53H :  0.13  180H :  0.13
  182H :  0.13  197H :  0.12   20H :  0.12  123H :  0.12  223O :  0.12  409O :  0.12  122H :  0.12  273H :  0.12  261H :  0.11    2H :  0.11  369H :  0.11  352O :  0.11
    9H :  0.11  157O :  0.10   27H :  0.10  459H :  0.10   14H :  0.10   78H :  0.10  380H :  0.10  284H :  0.10  237H :  0.10  520O :  0.10  294H :  0.09  257H :  0.09
  474H :  0.09   42H :  0.09  417H :  0.09  504H :  0.09  399H :  0.09   50H :  0.09  186H :  0.09  190O :  0.09  383H :  0.09   59H :  0.09  309H :  0.09    5H :  0.08
  342H :  0.08  279H :  0.08  213H :  0.08   96H :  0.08  390H :  0.08  204H :  0.08  222H :  0.08  107H :  0.08   75H :  0.08  207H :  0.08   84H :  0.08  114H :  0.08
  452H :  0.08  455H :  0.08   56H :  0.07   83H :  0.07  285H :  0.07  228H :  0.07  101H :  0.07  288H :  0.07
    5 LP   *******   0.01  -1.33257  -5.92560   5.81795   19O :  3.75  202O :  2.69  226O :  2.27  118O :  2.18  355O :  2.13  523O :  2.08   55O :  2.06  457O :  1.96  346O :  1.93   25O :  1.83   91O :  1.65   31O :  1.64
  220O :  1.64  109O :  1.62  511O :  1.59  343O :  1.55  199O :  1.54   40O :  1.52  112O :  1.52  313O :  1.47  304O :  1.44  529O :  1.43  310O :  1.40  271O :  1.34
  238O :  1.28    1O :  1.28  280O :  1.28   22O :  1.24    7O :  1.23  151O :  1.22  460O :  1.18  178O :  1.15  121O :  1.14   52O :  1.14  106O :  1.10   34O :  1.07
  385O :  1.07  256O :  1.04   67O :  1.02  100O :  1.01  175O :  1.01  382O :  1.01  325O :  1.00  361O :  0.99  307O :  0.98   61O :  0.95  481O :  0.94  505O :  0.94
  217O :  0.93  193O :  0.93  187O :  0.91   13O :  0.91  367O :  0.87  160O :  0.86   49O :  0.85   58O :  0.85  493O :  0.84  475O :  0.84  526O :  0.84  154O :  0.80
  289O :  0.78  211O :  0.77  340O :  0.77   82O :  0.76  400O :  0.76  253O :  0.75  499O :  0.75  379O :  0.74  496O :  0.73   76O :  0.72  181O :  0.72  214O :  0.71
  208O :  0.69  328O :  0.68  241O :  0.64  442O :  0.64  403O :  0.64  247O :  0.64  283O :  0.64  517O :  0.64   97O :  0.62  424O :  0.62  124O :  0.62   37O :  0.61
  295O :  0.59  319O :  0.58  454O :  0.58  136O :  0.56  259O :  0.56  139O :  0.54   28O :  0.54  274O :  0.54  358O :  0.53  373O :  0.52  349O :  0.51  205O :  0.51
  415O :  0.51  370O :  0.51  127O :  0.50  130O :  0.50  421O :  0.50  184O :  0.49  388O :  0.47  451O :  0.46  196O :  0.46  430O :  0.45  502O :  0.45  103O :  0.45
    4O :  0.44  265O :  0.44  487O :  0.43   46O :  0.43   85O :  0.42  286O :  0.42  364O :  0.42  427O :  0.41  412O :  0.41  406O :  0.39  331O :  0.39  292O :  0.37
  478O :  0.37  277O :  0.36   73O :  0.36  514O :  0.36  334O :  0.36  530H :  0.36  314H :  0.35   94O :  0.35  312H :  0.34  466O :  0.34   10O :  0.34  397O :  0.34
  172O :  0.33  439O :  0.33   79O :  0.32  248H :  0.31  142O :  0.31  376O :  0.29  115O :  0.28  472O :  0.28  418O :  0.27  229O :  0.27  463O :  0.25  506H :  0.25
  235O :  0.24  148O :  0.24  316O :  0.23  298O :  0.23  262O :  0.22  133O :  0.22  169O :  0.21   64O :  0.21  268O :  0.20  301O :  0.20  145O :  0.20   16O :  0.20
  436O :  0.20   70O :  0.20  250O :  0.20  508O :  0.20  163O :  0.20  469O :  0.18   43O :  0.17  240H :  0.17  244O :  0.17   93H :  0.17  242H :  0.16   33H :  0.16
  528H :  0.16    6H :  0.16  290H :  0.16  391O :  0.16  315H :  0.15  490O :  0.15  322O :  0.15  445O :  0.15  166O :  0.14  311H :  0.14  362H :  0.14  433O :  0.14
  484O :  0.13  387H :  0.13   29H :  0.13  394O :  0.13  512H :  0.13   88O :  0.12   15H :  0.12  117H :  0.12  337O :  0.12  227H :  0.12   53H :  0.12  180H :  0.12
  182H :  0.11  197H :  0.11  123H :  0.11  223O :  0.11  409O :  0.11  122H :  0.11  273H :  0.10    2H :  0.10  261H :  0.10  369H :  0.10  352O :  0.10    9H :  0.10
  157O :  0.09   27H :  0.09  459H :  0.09   14H :  0.09  380H :  0.09   78H :  0.09  284H :  0.09  237H :  0.09   20H :  0.09  520O :  0.09  294H :  0.08  257H :  0.08
  474H :  0.08   42H :  0.08  417H :  0.08  504H :  0.08  399H :  0.08   50H :  0.08  186H :  0.08  190O :  0.08  383H :  0.08   59H :  0.08  309H :  0.08    5H :  0.08
  342H :  0.07  279H :  0.07  213H :  0.07   96H :  0.07  390H :  0.07  222H :  0.07  107H :  0.07   75H :  0.07
    6 LP   *******   0.01   9.14179  -2.20548 -12.79975   91O :  3.98  202O :  2.62  226O :  2.20  118O :  2.12  355O :  2.08  523O :  2.02   55O :  2.00  457O :  1.91  346O :  1.87   19O :  1.86   25O :  1.78   31O :  1.60
  220O :  1.60  109O :  1.57  511O :  1.55  199O :  1.51  343O :  1.50  112O :  1.48   40O :  1.48  313O :  1.42  304O :  1.40  529O :  1.39  310O :  1.37  271O :  1.31
  238O :  1.25    1O :  1.25  280O :  1.24   22O :  1.20    7O :  1.19  151O :  1.18  460O :  1.15  178O :  1.11  121O :  1.11   52O :  1.11  106O :  1.06   34O :  1.04
  385O :  1.04  256O :  1.01   67O :  1.00  100O :  0.99  382O :  0.98  325O :  0.98  175O :  0.97  361O :  0.96  307O :  0.96   61O :  0.93  481O :  0.91  193O :  0.91
  505O :  0.90  217O :  0.90   13O :  0.89  187O :  0.89  160O :  0.87  367O :  0.85   49O :  0.83   58O :  0.82  493O :  0.82  526O :  0.82  475O :  0.82  154O :  0.77
  211O :  0.76  289O :  0.76  340O :  0.74   82O :  0.74  400O :  0.74  253O :  0.73  499O :  0.73  379O :  0.72  496O :  0.71   76O :  0.70  181O :  0.70  214O :  0.69
  208O :  0.67  328O :  0.66  241O :  0.63  442O :  0.62  403O :  0.62  247O :  0.62  283O :  0.62  517O :  0.62  124O :  0.61   97O :  0.61  424O :  0.61   37O :  0.59
  295O :  0.58  319O :  0.57  454O :  0.56  136O :  0.54  259O :  0.54  139O :  0.53   28O :  0.53  274O :  0.52  358O :  0.51  373O :  0.51  349O :  0.50  205O :  0.50
  415O :  0.49  370O :  0.49  127O :  0.49  130O :  0.49  421O :  0.48  184O :  0.47  388O :  0.46  451O :  0.45  196O :  0.45  430O :  0.44  502O :  0.44  103O :  0.43
    4O :  0.43  265O :  0.43  487O :  0.42   46O :  0.42   85O :  0.41  286O :  0.41  364O :  0.41  427O :  0.40  412O :  0.40  406O :  0.38  331O :  0.38  292O :  0.36
  478O :  0.36  277O :  0.35   73O :  0.35  514O :  0.35  334O :  0.35  312H :  0.35  530H :  0.35   94O :  0.34  314H :  0.34  466O :  0.33   10O :  0.33  397O :  0.33
  172O :  0.32  439O :  0.32   79O :  0.31  248H :  0.31  142O :  0.30  376O :  0.28  115O :  0.28  472O :  0.27  418O :  0.26  229O :  0.26  463O :  0.25  506H :  0.25
  235O :  0.24  148O :  0.23  316O :  0.23  298O :  0.23  262O :  0.22  133O :  0.21  169O :  0.20   64O :  0.20  268O :  0.20  301O :  0.20  145O :  0.20   16O :  0.20
  436O :  0.19   70O :  0.19  250O :  0.19  508O :  0.19  163O :  0.19  240H :  0.17  469O :  0.17   43O :  0.17  244O :  0.17  242H :  0.16   33H :  0.16  528H :  0.15
    6H :  0.15  290H :  0.15  391O :  0.15  490O :  0.14  322O :  0.14  445O :  0.14   93H :  0.14  166O :  0.14  311H :  0.14  362H :  0.14  315H :  0.14  433O :  0.13
  484O :  0.13  387H :  0.12   29H :  0.12  394O :  0.12   88O :  0.12  512H :  0.12   15H :  0.12  117H :  0.12  227H :  0.12   53H :  0.11  337O :  0.11  180H :  0.11
  182H :  0.11   20H :  0.11  197H :  0.11  123H :  0.10  223O :  0.10  409O :  0.10  122H :  0.10  273H :  0.10  261H :  0.10    2H :  0.10  369H :  0.10  352O :  0.10
    9H :  0.09  157O :  0.09   27H :  0.09  459H :  0.09   14H :  0.09   78H :  0.09  284H :  0.09  380H :  0.09  237H :  0.09  520O :  0.08  294H :  0.08  257H :  0.08
  474H :  0.08   42H :  0.08  417H :  0.08  504H :  0.08  399H :  0.08  213H :  0.08   50H :  0.08  186H :  0.08  190O :  0.08   59H :  0.07  383H :  0.07  309H :  0.07
    5H :  0.07  342H :  0.07  279H :  0.07
    7 LP   *******   0.01  12.57764   4.02371  11.70283  457O :  4.21  202O :  2.60  226O :  2.19  118O :  2.11  355O :  2.06  523O :  2.01   55O :  1.95  346O :  1.86   19O :  1.85   25O :  1.76   91O :  1.59   31O :  1.59
  220O :  1.58  109O :  1.56  511O :  1.54  343O :  1.49  199O :  1.49  112O :  1.47   40O :  1.47  313O :  1.41  304O :  1.39  529O :  1.38  310O :  1.36  271O :  1.30
  238O :  1.24    1O :  1.24  280O :  1.24   22O :  1.20    7O :  1.18  151O :  1.18  460O :  1.14  178O :  1.11  121O :  1.11   52O :  1.10  106O :  1.06   34O :  1.04
  385O :  1.03   67O :  1.01  256O :  1.01  100O :  0.98  382O :  0.97  325O :  0.97  175O :  0.97  361O :  0.96  307O :  0.95   61O :  0.92  481O :  0.91  217O :  0.90
  193O :  0.90  505O :  0.90   13O :  0.88  187O :  0.88  160O :  0.86  367O :  0.84   49O :  0.82   58O :  0.82  493O :  0.82  526O :  0.82  475O :  0.81  154O :  0.77
  289O :  0.75  211O :  0.74  340O :  0.74   82O :  0.73  400O :  0.73  253O :  0.73  499O :  0.73  379O :  0.71  496O :  0.70   76O :  0.70  181O :  0.69  214O :  0.68
  208O :  0.67  328O :  0.66  241O :  0.62  442O :  0.62  403O :  0.62  247O :  0.62  283O :  0.62  517O :  0.61  124O :  0.61   97O :  0.60  424O :  0.60   37O :  0.59
  295O :  0.57  319O :  0.56  454O :  0.56  136O :  0.54  259O :  0.54  139O :  0.52   28O :  0.52  274O :  0.52  358O :  0.51  373O :  0.51  349O :  0.50  205O :  0.49
  415O :  0.49  370O :  0.49  127O :  0.49  130O :  0.48  421O :  0.48  184O :  0.47  388O :  0.46  451O :  0.45  196O :  0.45  430O :  0.43  502O :  0.43  103O :  0.43
    4O :  0.43  265O :  0.43   46O :  0.41  487O :  0.41   85O :  0.41  286O :  0.41  364O :  0.40  427O :  0.40  412O :  0.39  406O :  0.38  331O :  0.37  292O :  0.36
  478O :  0.36  277O :  0.35   73O :  0.35  514O :  0.35  334O :  0.35  312H :  0.35  530H :  0.34   94O :  0.34  314H :  0.34  466O :  0.33   10O :  0.33  397O :  0.33
  172O :  0.32  439O :  0.31   79O :  0.31  248H :  0.30  142O :  0.30  376O :  0.28  115O :  0.27  472O :  0.27  418O :  0.26  229O :  0.26  463O :  0.24  506H :  0.24
  235O :  0.24  148O :  0.23  316O :  0.23  298O :  0.23  262O :  0.22  133O :  0.21  169O :  0.20   64O :  0.20  268O :  0.20  301O :  0.20  145O :  0.20   16O :  0.19
  436O :  0.19   70O :  0.19  250O :  0.19  508O :  0.19  163O :  0.19  469O :  0.17   43O :  0.17  240H :  0.17  244O :  0.16   93H :  0.16  242H :  0.16   33H :  0.16
  528H :  0.15    6H :  0.15  290H :  0.15  391O :  0.15  490O :  0.14  322O :  0.14  445O :  0.14  166O :  0.14  311H :  0.14  362H :  0.14  315H :  0.14  433O :  0.13
  484O :  0.13  387H :  0.12   29H :  0.12  394O :  0.12  512H :  0.12   15H :  0.12  117H :  0.12  337O :  0.12  227H :  0.12   88O :  0.11   53H :  0.11  180H :  0.11
  182H :  0.11   20H :  0.11  197H :  0.11  123H :  0.10  223O :  0.10  409O :  0.10  122H :  0.10  273H :  0.10  261H :  0.10    2H :  0.10  369H :  0.10  352O :  0.10
    9H :  0.09  157O :  0.09   27H :  0.09   14H :  0.09   78H :  0.09  284H :  0.09  380H :  0.09  237H :  0.09  520O :  0.08  294H :  0.08  257H :  0.08  474H :  0.08
   42H :  0.08  417H :  0.08  504H :  0.08  399H :  0.08   50H :  0.08  186H :  0.08  190O :  0.08  383H :  0.07   59H :  0.07  309H :  0.07    5H :  0.07  342H :  0.07
  279H :  0.07  213H :  0.07
    8 LP   *******   0.01  -8.69464  -4.11853   4.30035  112O :  3.71  202O :  2.60  226O :  2.19  118O :  2.10  355O :  2.06  523O :  2.01   55O :  1.99  457O :  1.89  346O :  1.86   19O :  1.85   25O :  1.76   91O :  1.59
   31O :  1.58  220O :  1.58  109O :  1.56  511O :  1.54  343O :  1.49  199O :  1.49   40O :  1.47  313O :  1.40  304O :  1.39  529O :  1.38  310O :  1.31  271O :  1.30
  238O :  1.24    1O :  1.23  280O :  1.23   22O :  1.19    7O :  1.18  151O :  1.17  460O :  1.14  178O :  1.11  121O :  1.10   52O :  1.10  106O :  1.06   34O :  1.03
  385O :  1.03  256O :  1.00   67O :  0.99  100O :  0.98  382O :  0.97  325O :  0.97  175O :  0.96  361O :  0.95  307O :  0.95   61O :  0.92  481O :  0.91  217O :  0.90
  193O :  0.90  505O :  0.90   13O :  0.88  187O :  0.88  160O :  0.86  367O :  0.84   49O :  0.82   58O :  0.81  526O :  0.81  493O :  0.81  475O :  0.81  154O :  0.77
  289O :  0.75  211O :  0.74  340O :  0.74  400O :  0.73   82O :  0.73  253O :  0.73  499O :  0.72  379O :  0.71  496O :  0.70  181O :  0.69   76O :  0.69  214O :  0.68
  208O :  0.66  328O :  0.66  241O :  0.62  442O :  0.62  403O :  0.62  283O :  0.62  247O :  0.62  517O :  0.61  124O :  0.61   97O :  0.60  424O :  0.60   37O :  0.59
  295O :  0.57  319O :  0.56  454O :  0.56  136O :  0.54  259O :  0.54  139O :  0.52   28O :  0.52  274O :  0.52  358O :  0.51  373O :  0.50  349O :  0.50  205O :  0.49
  415O :  0.49  370O :  0.49  127O :  0.49  130O :  0.48  421O :  0.48  184O :  0.47  388O :  0.46  196O :  0.44  430O :  0.43  502O :  0.43  103O :  0.43    4O :  0.43
  265O :  0.43  451O :  0.42   46O :  0.41  487O :  0.41   85O :  0.41  286O :  0.40  364O :  0.40  427O :  0.40  412O :  0.39  331O :  0.38  406O :  0.38  292O :  0.36
  478O :  0.36  277O :  0.35   73O :  0.35  514O :  0.35  334O :  0.35  530H :  0.34  312H :  0.34   94O :  0.34  314H :  0.34  466O :  0.33   10O :  0.33  397O :  0.33
  172O :  0.32  439O :  0.31   79O :  0.31  248H :  0.30  142O :  0.30  376O :  0.28  115O :  0.27  472O :  0.27  418O :  0.26  229O :  0.26  463O :  0.24  506H :  0.24
  235O :  0.24  148O :  0.23  316O :  0.23  298O :  0.23  262O :  0.22  133O :  0.21  169O :  0.20   64O :  0.20  268O :  0.20  301O :  0.20  145O :  0.20   16O :  0.19
  436O :  0.19   70O :  0.19  250O :  0.19  508O :  0.19  163O :  0.19  469O :  0.17   43O :  0.17  240H :  0.17  244O :  0.16   93H :  0.16  242H :  0.16   33H :  0.15
  528H :  0.15    6H :  0.15  290H :  0.15  391O :  0.15  490O :  0.14  322O :  0.14  445O :  0.14  166O :  0.14  362H :  0.14  315H :  0.13  433O :  0.13   15H :  0.13
  484O :  0.13  387H :  0.12   29H :  0.12  394O :  0.12   88O :  0.12  512H :  0.12  117H :  0.12  337O :  0.12  227H :  0.12   53H :  0.11  180H :  0.11  182H :  0.11
   20H :  0.11  197H :  0.11  123H :  0.10  223O :  0.10  409O :  0.10  122H :  0.10  273H :  0.10  261H :  0.10    2H :  0.10  369H :  0.10  352O :  0.10    9H :  0.09
   27H :  0.09  157O :  0.09  459H :  0.09  284H :  0.09   14H :  0.09  380H :  0.09   78H :  0.09  237H :  0.09  520O :  0.08  504H :  0.08  294H :  0.08  257H :  0.08
  474H :  0.08   42H :  0.08  417H :  0.08  399H :  0.08   50H :  0.08  186H :  0.08  190O :  0.07  383H :  0.07   59H :  0.07  309H :  0.07    5H :  0.07  342H :  0.07
  279H :  0.07  213H :  0.07
    9 LP   *******   0.01  -4.01223 -10.28138  10.58501  313O :  2.97  202O :  2.44  226O :  2.06  118O :  1.98  355O :  1.94  523O :  1.89   55O :  1.87  457O :  1.78  346O :  1.75   19O :  1.75   25O :  1.66   91O :  1.50
   31O :  1.49  220O :  1.48  109O :  1.47  511O :  1.44  343O :  1.40  199O :  1.40  112O :  1.38   40O :  1.38  304O :  1.31  529O :  1.29  310O :  1.28  271O :  1.22
  314H :  1.17  238O :  1.16    1O :  1.16  280O :  1.16   22O :  1.12    7O :  1.11  151O :  1.10  460O :  1.07  178O :  1.04  121O :  1.04   52O :  1.04  106O :  0.99
   34O :  0.97  385O :  0.97  256O :  0.94   67O :  0.93  100O :  0.92  382O :  0.91  325O :  0.91  175O :  0.90  361O :  0.90  307O :  0.89   61O :  0.86  481O :  0.85
  217O :  0.85  193O :  0.85  505O :  0.84  187O :  0.83   13O :  0.83  160O :  0.81  367O :  0.79   49O :  0.77   58O :  0.77  493O :  0.77  526O :  0.77  475O :  0.77
  154O :  0.72  289O :  0.71  340O :  0.70  211O :  0.70   82O :  0.69  400O :  0.69  253O :  0.68  499O :  0.68  379O :  0.67  496O :  0.66   76O :  0.65  181O :  0.65
  214O :  0.64  208O :  0.63  328O :  0.62  241O :  0.58  442O :  0.58  403O :  0.58  247O :  0.58  283O :  0.58  517O :  0.58  124O :  0.57   97O :  0.57  424O :  0.56
   37O :  0.55  295O :  0.54  319O :  0.53  454O :  0.53  136O :  0.51  259O :  0.51  139O :  0.49   28O :  0.49  274O :  0.49  358O :  0.48  373O :  0.47  349O :  0.47
  205O :  0.46  415O :  0.46  370O :  0.46  127O :  0.46  130O :  0.45  421O :  0.45  184O :  0.44  388O :  0.43  451O :  0.42  196O :  0.42  430O :  0.41  502O :  0.41
  103O :  0.40    4O :  0.40  265O :  0.40   46O :  0.39  487O :  0.39   85O :  0.38  364O :  0.38  427O :  0.37  412O :  0.37  406O :  0.36  286O :  0.35  331O :  0.35
  292O :  0.34  478O :  0.34  277O :  0.33   73O :  0.33  514O :  0.33  334O :  0.33  312H :  0.33  530H :  0.32   94O :  0.32  466O :  0.31   10O :  0.31  397O :  0.31
  172O :  0.30  439O :  0.30   79O :  0.29  248H :  0.28  142O :  0.28  376O :  0.26  115O :  0.26  472O :  0.26  418O :  0.25  229O :  0.24  463O :  0.23  506H :  0.23
  235O :  0.22  148O :  0.22  316O :  0.21  298O :  0.21  262O :  0.20  133O :  0.20  169O :  0.19   64O :  0.19  268O :  0.18  301O :  0.18  145O :  0.18   16O :  0.18
  436O :  0.18   70O :  0.18  250O :  0.18  508O :  0.18  163O :  0.18  469O :  0.16   43O :  0.16  240H :  0.16  244O :  0.15   93H :  0.15  242H :  0.15   33H :  0.15
  528H :  0.14    6H :  0.14  290H :  0.14  391O :  0.14  490O :  0.13  322O :  0.13  445O :  0.13  166O :  0.13  311H :  0.13  362H :  0.13  433O :  0.12  484O :  0.12
  387H :  0.12   29H :  0.12  394O :  0.12   88O :  0.11   15H :  0.11  512H :  0.11  117H :  0.11  337O :  0.11  227H :  0.11  315H :  0.11   53H :  0.11  180H :  0.10
  182H :  0.10  197H :  0.10   20H :  0.10  123H :  0.10  223O :  0.10  409O :  0.10  122H :  0.10  273H :  0.09  261H :  0.09    2H :  0.09  369H :  0.09  352O :  0.09
    9H :  0.09  157O :  0.09   27H :  0.08  459H :  0.08   14H :  0.08   78H :  0.08  284H :  0.08  380H :  0.08  237H :  0.08  520O :  0.08  294H :  0.08  257H :  0.08
  474H :  0.08   42H :  0.08  417H :  0.08  504H :  0.07  342H :  0.07  399H :  0.07   50H :  0.07  186H :  0.07  190O :  0.07
   10 LP   *******   0.01  -6.97645 -11.81000  -8.24906  343O :  3.39  202O :  2.32  226O :  1.95  118O :  1.88  355O :  1.84  523O :  1.79   55O :  1.78  457O :  1.69  346O :  1.66   19O :  1.65   25O :  1.57   91O :  1.42
   31O :  1.41  220O :  1.41  109O :  1.39  511O :  1.38  199O :  1.33  112O :  1.31   40O :  1.31  313O :  1.25  304O :  1.24  529O :  1.23  310O :  1.21  271O :  1.14
  238O :  1.10  280O :  1.10    1O :  1.10   22O :  1.07    7O :  1.06  151O :  1.05  460O :  1.02  178O :  0.99  121O :  0.99   52O :  0.98  106O :  0.94   34O :  0.92
  385O :  0.92  256O :  0.90   67O :  0.88  100O :  0.87  382O :  0.87  325O :  0.86  175O :  0.86  361O :  0.85  307O :  0.85   61O :  0.82  481O :  0.81  217O :  0.80
  193O :  0.80  505O :  0.80   13O :  0.79  187O :  0.79  160O :  0.77  367O :  0.75   49O :  0.73   58O :  0.73  526O :  0.73  493O :  0.73  475O :  0.73  154O :  0.69
  211O :  0.66  340O :  0.66  289O :  0.66  400O :  0.65   82O :  0.65  253O :  0.65  499O :  0.65  379O :  0.64  496O :  0.63   76O :  0.62  181O :  0.62  214O :  0.61
  208O :  0.59  328O :  0.59  241O :  0.55  442O :  0.55  403O :  0.55  247O :  0.55  283O :  0.55  124O :  0.54   97O :  0.54  424O :  0.54  517O :  0.53   37O :  0.53
  295O :  0.51  319O :  0.50  454O :  0.50  136O :  0.48  259O :  0.48  139O :  0.47   28O :  0.47  274O :  0.46  358O :  0.45  373O :  0.45  349O :  0.44  205O :  0.44
  415O :  0.44  370O :  0.44  127O :  0.44  130O :  0.43  421O :  0.43  184O :  0.42  388O :  0.41  451O :  0.40  196O :  0.40  430O :  0.39  502O :  0.39  103O :  0.38
    4O :  0.38  265O :  0.38  487O :  0.37   46O :  0.37   85O :  0.37  286O :  0.36  364O :  0.36  427O :  0.36  412O :  0.35  406O :  0.34  331O :  0.33  292O :  0.32
  478O :  0.32  277O :  0.31   73O :  0.31  514O :  0.31  334O :  0.31  312H :  0.31  530H :  0.31   94O :  0.30  314H :  0.30  466O :  0.29   10O :  0.29  397O :  0.29
  172O :  0.29  439O :  0.28   79O :  0.28  248H :  0.27  142O :  0.27  376O :  0.25  115O :  0.24  472O :  0.24  418O :  0.23  229O :  0.23  463O :  0.22  506H :  0.22
  235O :  0.21  148O :  0.21  316O :  0.20  298O :  0.20  262O :  0.19  133O :  0.19  169O :  0.18   64O :  0.18  268O :  0.18  301O :  0.17  145O :  0.17  508O :  0.17
   16O :  0.17  436O :  0.17   70O :  0.17  250O :  0.17  163O :  0.17  469O :  0.15   43O :  0.15  240H :  0.15  244O :  0.15   93H :  0.14  242H :  0.14   33H :  0.14
  528H :  0.14    6H :  0.14  391O :  0.13  490O :  0.13  322O :  0.13  445O :  0.13  166O :  0.12  311H :  0.12  362H :  0.12  290H :  0.12  315H :  0.12  433O :  0.12
  484O :  0.12  387H :  0.11   29H :  0.11  394O :  0.11   88O :  0.11  512H :  0.11   15H :  0.11  117H :  0.10  337O :  0.10  227H :  0.10   53H :  0.10  180H :  0.10
  182H :  0.10   20H :  0.09  197H :  0.09  123H :  0.09  223O :  0.09  409O :  0.09  122H :  0.09  273H :  0.09  261H :  0.09    2H :  0.09  369H :  0.09  352O :  0.09
    9H :  0.08  157O :  0.08   27H :  0.08  459H :  0.08   14H :  0.08  284H :  0.08  380H :  0.08   78H :  0.08  237H :  0.08  520O :  0.07  294H :  0.07  257H :  0.07
  474H :  0.07   42H :  0.07  417H :  0.07  504H :  0.07
   11 LP   *******   0.01   5.83412  11.74636  -7.77564  118O :  3.90  202O :  2.32  226O :  1.95  355O :  1.84  523O :  1.79   55O :  1.78  457O :  1.69  346O :  1.66   19O :  1.65   25O :  1.57   91O :  1.42   31O :  1.41
  220O :  1.41  109O :  1.39  511O :  1.38  343O :  1.33  199O :  1.33  112O :  1.31   40O :  1.31  313O :  1.25  304O :  1.24  529O :  1.23  310O :  1.21  271O :  1.16
  238O :  1.10    1O :  1.10  280O :  1.10   22O :  1.07    7O :  1.06  151O :  1.05  460O :  1.02  121O :  0.99   52O :  0.98  178O :  0.97  106O :  0.94   34O :  0.92
  385O :  0.92   67O :  0.88  100O :  0.87  256O :  0.87  325O :  0.86  382O :  0.86  175O :  0.86  361O :  0.85  307O :  0.85   61O :  0.82  481O :  0.81  217O :  0.80
  193O :  0.80  505O :  0.80   13O :  0.79  187O :  0.79  160O :  0.77  367O :  0.75   49O :  0.73   58O :  0.73  526O :  0.73  493O :  0.73  475O :  0.73  154O :  0.69
  289O :  0.67  211O :  0.66  340O :  0.66   82O :  0.65  400O :  0.65  253O :  0.65  499O :  0.65  379O :  0.64  496O :  0.63   76O :  0.62  181O :  0.62  214O :  0.61
  208O :  0.59  328O :  0.59  241O :  0.55  442O :  0.55  403O :  0.55  247O :  0.55  283O :  0.55  517O :  0.55  124O :  0.54   97O :  0.54  424O :  0.54   37O :  0.53
  295O :  0.51  319O :  0.50  454O :  0.50  259O :  0.48  136O :  0.47  139O :  0.47   28O :  0.47  274O :  0.46  358O :  0.45  373O :  0.45  349O :  0.44  205O :  0.44
  415O :  0.44  370O :  0.44  127O :  0.44  130O :  0.43  421O :  0.43  184O :  0.42  388O :  0.41  451O :  0.40  196O :  0.40  502O :  0.39  430O :  0.38  103O :  0.38
    4O :  0.38  265O :  0.38  487O :  0.37   46O :  0.37   85O :  0.37  286O :  0.36  364O :  0.36  427O :  0.36  412O :  0.35  406O :  0.34  331O :  0.33  292O :  0.32
  478O :  0.32  277O :  0.31   73O :  0.31  514O :  0.31  334O :  0.31  312H :  0.31  530H :  0.31   94O :  0.30  314H :  0.30  466O :  0.29   10O :  0.29  397O :  0.29
  172O :  0.29  439O :  0.28   79O :  0.28  248H :  0.27  142O :  0.27  376O :  0.25  115O :  0.24  472O :  0.24  418O :  0.23  229O :  0.23  463O :  0.22  506H :  0.22
  235O :  0.21  148O :  0.21  316O :  0.20  298O :  0.20  262O :  0.19  133O :  0.19  169O :  0.18   64O :  0.18  268O :  0.18  301O :  0.17  145O :  0.17   16O :  0.17
  436O :  0.17   70O :  0.17  250O :  0.17  508O :  0.17  163O :  0.17  469O :  0.15   43O :  0.15  240H :  0.15  244O :  0.15   93H :  0.14  242H :  0.14   33H :  0.14
  528H :  0.14    6H :  0.14  290H :  0.14  391O :  0.13  490O :  0.13  322O :  0.13  445O :  0.13  166O :  0.12  311H :  0.12  362H :  0.12  315H :  0.12  433O :  0.12
  484O :  0.12  387H :  0.11   29H :  0.11  394O :  0.11   88O :  0.11  512H :  0.11   15H :  0.11  117H :  0.10  337O :  0.10  227H :  0.10   53H :  0.10  182H :  0.10
   20H :  0.09  197H :  0.09  123H :  0.09  223O :  0.09  409O :  0.09  122H :  0.09  273H :  0.09  261H :  0.09    2H :  0.09  369H :  0.09  352O :  0.09    9H :  0.08
  157O :  0.08   27H :  0.08  459H :  0.08  380H :  0.08   14H :  0.08   78H :  0.08  284H :  0.08  237H :  0.08  520O :  0.07  294H :  0.07  257H :  0.07  474H :  0.07
   42H :  0.07  417H :  0.07  504H :  0.07
   12 LP   *******   0.01  -9.18058  -7.10129  -0.25972   25O :  3.35  202O :  2.28  226O :  1.92  118O :  1.85  355O :  1.81  523O :  1.76   55O :  1.75  457O :  1.66  346O :  1.63   19O :  1.63   91O :  1.40  220O :  1.39
  109O :  1.37  511O :  1.35   31O :  1.35  343O :  1.31  199O :  1.31   40O :  1.29  112O :  1.29  313O :  1.23  304O :  1.22  529O :  1.21  310O :  1.20  271O :  1.14
  238O :  1.09  280O :  1.08    1O :  1.08   22O :  1.05    7O :  1.04  151O :  1.03  460O :  1.00  178O :  0.97  121O :  0.97   52O :  0.97  106O :  0.93   34O :  0.91
  385O :  0.91  256O :  0.88   67O :  0.87  100O :  0.86  382O :  0.85  325O :  0.85  175O :  0.85  361O :  0.84  307O :  0.83   61O :  0.81  481O :  0.80  217O :  0.79
  193O :  0.79  505O :  0.79   13O :  0.77  187O :  0.77  160O :  0.76  367O :  0.74   49O :  0.72   58O :  0.72  493O :  0.72  526O :  0.72  475O :  0.72  154O :  0.67
  289O :  0.66  211O :  0.65  340O :  0.65   82O :  0.64  400O :  0.64  253O :  0.64  499O :  0.64  379O :  0.63  496O :  0.62   76O :  0.61  181O :  0.61  214O :  0.60
  208O :  0.58  328O :  0.58  241O :  0.55  442O :  0.55  403O :  0.54  247O :  0.54  283O :  0.54  517O :  0.54  124O :  0.53   97O :  0.53  424O :  0.53   37O :  0.52
  295O :  0.50  319O :  0.49  454O :  0.49  136O :  0.47  259O :  0.47  139O :  0.46   28O :  0.46  274O :  0.45  358O :  0.45  373O :  0.44  349O :  0.44  205O :  0.43
  415O :  0.43  370O :  0.43  127O :  0.43  130O :  0.43  421O :  0.42  184O :  0.41  388O :  0.40  451O :  0.39  196O :  0.39  430O :  0.38  502O :  0.38  103O :  0.38
    4O :  0.38  265O :  0.38   46O :  0.36  487O :  0.36   85O :  0.36  286O :  0.36  364O :  0.35  427O :  0.35  412O :  0.35  406O :  0.33  331O :  0.33  292O :  0.32
  478O :  0.32  277O :  0.31   73O :  0.31  514O :  0.31  334O :  0.30  312H :  0.30  530H :  0.30   94O :  0.30  314H :  0.30  466O :  0.29   10O :  0.29  397O :  0.29
  172O :  0.28  439O :  0.28   79O :  0.27  248H :  0.27  142O :  0.26  376O :  0.24  115O :  0.24  472O :  0.24  418O :  0.23  229O :  0.23  506H :  0.21  235O :  0.21
  148O :  0.20  463O :  0.20  316O :  0.20  298O :  0.20  262O :  0.19  133O :  0.18  169O :  0.18   64O :  0.17  268O :  0.17  301O :  0.17  145O :  0.17   16O :  0.17
  436O :  0.17   70O :  0.17  508O :  0.17  163O :  0.17  250O :  0.15  469O :  0.15   43O :  0.15  240H :  0.15  244O :  0.14   93H :  0.14  242H :  0.14  528H :  0.13
    6H :  0.13  290H :  0.13   33H :  0.13  391O :  0.13  490O :  0.13  322O :  0.13  445O :  0.12  311H :  0.12  166O :  0.12  362H :  0.12  315H :  0.12  433O :  0.12
  484O :  0.11  387H :  0.11  394O :  0.11   29H :  0.11   88O :  0.11  512H :  0.11   15H :  0.10  117H :  0.10  337O :  0.10  227H :  0.10   53H :  0.10  180H :  0.10
  182H :  0.10   20H :  0.09  197H :  0.09  223O :  0.09  123H :  0.09  409O :  0.09  122H :  0.09    2H :  0.09  273H :  0.09  261H :  0.09  369H :  0.09  352O :  0.08
    9H :  0.08  157O :  0.08  459H :  0.08   14H :  0.08   78H :  0.08  380H :  0.08  284H :  0.08  237H :  0.07  520O :  0.07  294H :  0.07  257H :  0.07  474H :  0.07
   42H :  0.07  417H :  0.07
   13 LP   *******   0.01  -3.37038  -2.01296   4.79397  310O :  2.70  202O :  2.20  226O :  1.85  118O :  1.78  355O :  1.74  523O :  1.70   55O :  1.68  457O :  1.60  346O :  1.57   19O :  1.55   25O :  1.49   31O :  1.35
   91O :  1.35  220O :  1.34  109O :  1.32  511O :  1.30  343O :  1.26  199O :  1.26   40O :  1.25  112O :  1.22  313O :  1.19  304O :  1.18  529O :  1.17  271O :  1.10
  312H :  1.08  238O :  1.05    1O :  1.04  280O :  1.04   22O :  1.01    7O :  1.00  151O :  0.99  460O :  0.96  178O :  0.94  121O :  0.93   52O :  0.93  106O :  0.89
   34O :  0.88  385O :  0.87  256O :  0.85   67O :  0.84  100O :  0.83  382O :  0.82  325O :  0.82  175O :  0.82  361O :  0.81  307O :  0.80   61O :  0.78  481O :  0.77
  217O :  0.76  193O :  0.76  505O :  0.76  187O :  0.74   13O :  0.74  160O :  0.73  367O :  0.71   49O :  0.69  526O :  0.69   58O :  0.69  493O :  0.69  475O :  0.69
  154O :  0.65  289O :  0.64  211O :  0.63  340O :  0.62   82O :  0.62  400O :  0.62  253O :  0.61  499O :  0.61  379O :  0.60  496O :  0.60   76O :  0.59  181O :  0.59
  214O :  0.58  208O :  0.56  328O :  0.56  241O :  0.53  442O :  0.52  403O :  0.52  247O :  0.52  283O :  0.52  517O :  0.52  124O :  0.51   97O :  0.51  424O :  0.51
   37O :  0.50  295O :  0.48  319O :  0.48  454O :  0.47  136O :  0.46  259O :  0.46  139O :  0.44   28O :  0.44  274O :  0.44  358O :  0.43  373O :  0.43  349O :  0.42
  205O :  0.42  415O :  0.41  370O :  0.41  127O :  0.41  130O :  0.41  421O :  0.40  184O :  0.40  388O :  0.39  451O :  0.38  196O :  0.38  430O :  0.37  502O :  0.37
  103O :  0.36    4O :  0.36  265O :  0.36  487O :  0.35   46O :  0.35   85O :  0.35  286O :  0.34  364O :  0.34  427O :  0.34  412O :  0.33  406O :  0.32  331O :  0.31
  292O :  0.31  478O :  0.30  277O :  0.30   73O :  0.30  514O :  0.29  334O :  0.29  530H :  0.29   94O :  0.29  314H :  0.29  466O :  0.28   10O :  0.28  397O :  0.28
  172O :  0.27  439O :  0.27   79O :  0.26  142O :  0.26  248H :  0.26  376O :  0.23  115O :  0.23  472O :  0.23  418O :  0.22  229O :  0.22  463O :  0.21  506H :  0.21
  235O :  0.20  148O :  0.19  316O :  0.19  298O :  0.19  262O :  0.18  133O :  0.18  169O :  0.17   64O :  0.17  268O :  0.17  301O :  0.17  145O :  0.17   16O :  0.16
  436O :  0.16   70O :  0.16  250O :  0.16  508O :  0.16  163O :  0.16  469O :  0.14   43O :  0.14  240H :  0.14  244O :  0.14   93H :  0.14  242H :  0.13   33H :  0.13
  528H :  0.13    6H :  0.13  290H :  0.13  391O :  0.13  490O :  0.12  322O :  0.12  445O :  0.12  166O :  0.12  362H :  0.11  315H :  0.11  433O :  0.11  484O :  0.11
   15H :  0.11  387H :  0.10  394O :  0.10   29H :  0.10   88O :  0.10  512H :  0.10  117H :  0.10  337O :  0.10  227H :  0.10   20H :  0.10   53H :  0.10  180H :  0.09
  182H :  0.09  311H :  0.09  197H :  0.09  123H :  0.09  223O :  0.09  409O :  0.09  122H :  0.09  273H :  0.09  261H :  0.08  369H :  0.08  352O :  0.08    9H :  0.08
    2H :  0.08  157O :  0.08   27H :  0.08  459H :  0.08   14H :  0.07   78H :  0.07  380H :  0.07  284H :  0.07  237H :  0.07  520O :  0.07
   14 LP   *******   0.01   3.32257  -1.14413 -15.59784  220O :  3.25  202O :  2.19  226O :  1.84  118O :  1.77  355O :  1.73  523O :  1.69   55O :  1.67  457O :  1.59  346O :  1.56   19O :  1.55   25O :  1.48   91O :  1.34
   31O :  1.33  109O :  1.31  511O :  1.30  343O :  1.25  199O :  1.25  112O :  1.24   40O :  1.24  313O :  1.18  304O :  1.17  529O :  1.16  310O :  1.14  271O :  1.09
    1O :  1.04  238O :  1.04  280O :  1.04   22O :  1.00    7O :  1.00  151O :  0.99  460O :  0.96  178O :  0.93  121O :  0.93   52O :  0.93  106O :  0.89   34O :  0.87
  385O :  0.87  256O :  0.85   67O :  0.83  100O :  0.82  382O :  0.82  325O :  0.81  175O :  0.81  361O :  0.80  307O :  0.80   61O :  0.77  481O :  0.76  217O :  0.76
  193O :  0.76  505O :  0.75   13O :  0.74  187O :  0.74  160O :  0.73  367O :  0.71   49O :  0.69   58O :  0.69  493O :  0.69  526O :  0.69  475O :  0.68  154O :  0.65
  289O :  0.63  211O :  0.62  340O :  0.62   82O :  0.62  400O :  0.62  253O :  0.61  499O :  0.61  379O :  0.60  496O :  0.59   76O :  0.58  181O :  0.58  214O :  0.58
  208O :  0.56  328O :  0.55  241O :  0.52  403O :  0.52  247O :  0.52  283O :  0.52  517O :  0.52  124O :  0.51   97O :  0.51  424O :  0.51  442O :  0.50   37O :  0.50
  295O :  0.48  319O :  0.47  454O :  0.47  136O :  0.45  259O :  0.45  139O :  0.44   28O :  0.44  274O :  0.44  358O :  0.43  373O :  0.42  349O :  0.42  205O :  0.42
  415O :  0.41  370O :  0.41  127O :  0.41  130O :  0.41  421O :  0.40  184O :  0.39  388O :  0.38  451O :  0.38  196O :  0.37  430O :  0.37  502O :  0.36  103O :  0.36
    4O :  0.36  265O :  0.36  487O :  0.35   46O :  0.35   85O :  0.34  286O :  0.34  364O :  0.34  427O :  0.34  412O :  0.33  406O :  0.31  331O :  0.31  292O :  0.30
  478O :  0.30  277O :  0.30   73O :  0.29  514O :  0.29  334O :  0.29  312H :  0.29  530H :  0.29   94O :  0.29  314H :  0.28   10O :  0.28  466O :  0.28  397O :  0.27
  172O :  0.27  439O :  0.26   79O :  0.26  248H :  0.25  142O :  0.25  376O :  0.23  115O :  0.23  472O :  0.23  418O :  0.22  229O :  0.22  463O :  0.21  506H :  0.21
  235O :  0.20  148O :  0.19  316O :  0.19  298O :  0.19  262O :  0.18  133O :  0.18  169O :  0.17   64O :  0.17  268O :  0.17  301O :  0.16  145O :  0.16   16O :  0.16
  436O :  0.16   70O :  0.16  250O :  0.16  508O :  0.16  163O :  0.16  469O :  0.14   43O :  0.14  244O :  0.14  240H :  0.13  242H :  0.13   33H :  0.13  528H :  0.13
    6H :  0.13  290H :  0.13   93H :  0.13  391O :  0.13  490O :  0.12  322O :  0.12  445O :  0.12  166O :  0.12  311H :  0.12  362H :  0.11  315H :  0.11  433O :  0.11
  484O :  0.11  387H :  0.10   29H :  0.10  394O :  0.10   88O :  0.10  512H :  0.10   15H :  0.10  117H :  0.10  337O :  0.10  227H :  0.10   53H :  0.09  180H :  0.09
  182H :  0.09   20H :  0.09  197H :  0.09  123H :  0.09  223O :  0.09  409O :  0.09  122H :  0.09  273H :  0.08  261H :  0.08    2H :  0.08  369H :  0.08  352O :  0.08
    9H :  0.08  157O :  0.08   27H :  0.08  459H :  0.07   14H :  0.07  380H :  0.07  284H :  0.07   78H :  0.07  237H :  0.07
   15 LP   *******   0.01   0.77809  -3.16926  -4.29997  529O :  2.28  202O :  2.18  226O :  1.84  118O :  1.77  355O :  1.73  523O :  1.68   55O :  1.67  457O :  1.59  346O :  1.56   19O :  1.55   25O :  1.48   91O :  1.33
   31O :  1.33  220O :  1.32  109O :  1.31  511O :  1.29  343O :  1.25  199O :  1.25  112O :  1.23   40O :  1.23  313O :  1.18  304O :  1.17  310O :  1.14  271O :  1.09
    1O :  1.04  238O :  1.04  280O :  1.03   22O :  1.00    7O :  0.99  151O :  0.98  460O :  0.96  121O :  0.93  178O :  0.93   52O :  0.92  530H :  0.91  106O :  0.88
   34O :  0.87  385O :  0.87  256O :  0.84   67O :  0.83  100O :  0.82  382O :  0.81  325O :  0.81  175O :  0.81  361O :  0.80  307O :  0.79   61O :  0.77  481O :  0.76
  217O :  0.76  193O :  0.75  505O :  0.75   13O :  0.74  187O :  0.74  160O :  0.72  367O :  0.70   49O :  0.69   58O :  0.68  493O :  0.68  475O :  0.68  526O :  0.68
  154O :  0.64  289O :  0.63  211O :  0.62  340O :  0.62   82O :  0.61  400O :  0.61  253O :  0.61  499O :  0.61  379O :  0.60  496O :  0.59   76O :  0.58  181O :  0.58
  214O :  0.57  208O :  0.56  328O :  0.55  241O :  0.52  442O :  0.52  247O :  0.52  403O :  0.52  283O :  0.52  517O :  0.51   97O :  0.51  124O :  0.51  424O :  0.50
   37O :  0.49  295O :  0.48  319O :  0.47  454O :  0.47  136O :  0.45  259O :  0.45  139O :  0.44   28O :  0.44  274O :  0.43  358O :  0.43  373O :  0.42  349O :  0.42
  205O :  0.41  415O :  0.41  370O :  0.41  127O :  0.41  130O :  0.41  421O :  0.40  184O :  0.39  388O :  0.38  451O :  0.38  196O :  0.37  430O :  0.36  502O :  0.36
  103O :  0.36    4O :  0.36  265O :  0.36  487O :  0.35   46O :  0.35   85O :  0.34  286O :  0.34  364O :  0.34  427O :  0.34  412O :  0.33  406O :  0.32  331O :  0.31
  292O :  0.30  478O :  0.30  277O :  0.30   73O :  0.29  514O :  0.29  334O :  0.29  312H :  0.29   94O :  0.28  314H :  0.28  466O :  0.28  397O :  0.27  172O :  0.27
   10O :  0.27  439O :  0.26   79O :  0.26  248H :  0.25  142O :  0.25  376O :  0.23  115O :  0.23  472O :  0.23  418O :  0.22  229O :  0.22  463O :  0.21  506H :  0.20
  235O :  0.20  148O :  0.19  316O :  0.19  298O :  0.19  262O :  0.18  133O :  0.18  169O :  0.17   64O :  0.17  268O :  0.16  301O :  0.16  145O :  0.16  436O :  0.16
   16O :  0.16   70O :  0.16  250O :  0.16  508O :  0.16  163O :  0.16  469O :  0.14   43O :  0.14  240H :  0.14  244O :  0.14   93H :  0.13  242H :  0.13   33H :  0.13
  290H :  0.13    6H :  0.13  528H :  0.13  391O :  0.13  322O :  0.12  490O :  0.12  445O :  0.12  166O :  0.12  311H :  0.12  362H :  0.11  315H :  0.11  433O :  0.11
  484O :  0.11   29H :  0.10  394O :  0.10  387H :  0.10   88O :  0.10   53H :  0.10  512H :  0.10   15H :  0.10  117H :  0.10  337O :  0.10  227H :  0.10  180H :  0.09
  182H :  0.09   20H :  0.09  197H :  0.09  123H :  0.09  223O :  0.09  409O :  0.09  122H :  0.09  273H :  0.08    2H :  0.08  261H :  0.08  369H :  0.08  352O :  0.08
    9H :  0.08  157O :  0.08   27H :  0.08  459H :  0.07   78H :  0.07   14H :  0.07  380H :  0.07  284H :  0.07  237H :  0.07
   16 LP   *******   0.01   1.69463 -12.13628  -0.15956  304O :  2.92  202O :  2.18  226O :  1.83  118O :  1.77  355O :  1.74  523O :  1.68   55O :  1.67  457O :  1.59  346O :  1.56   19O :  1.55   25O :  1.48   91O :  1.33
   31O :  1.33  220O :  1.32  109O :  1.31  511O :  1.29  343O :  1.25  199O :  1.25   40O :  1.23  112O :  1.23  313O :  1.18  529O :  1.15  310O :  1.14  271O :  1.09
    1O :  1.04  238O :  1.04  280O :  1.03   22O :  1.00    7O :  0.99  151O :  0.98  460O :  0.96  178O :  0.93   52O :  0.92  121O :  0.92  106O :  0.89   34O :  0.87
  385O :  0.87  256O :  0.84   67O :  0.83  382O :  0.81  325O :  0.81  175O :  0.81  361O :  0.80  307O :  0.80   61O :  0.77  100O :  0.77  481O :  0.76  217O :  0.76
  193O :  0.75  505O :  0.75   13O :  0.74  187O :  0.74  160O :  0.72  367O :  0.70   49O :  0.69   58O :  0.68  526O :  0.68  493O :  0.68  475O :  0.68  154O :  0.64
  289O :  0.63  211O :  0.62  340O :  0.62   82O :  0.61  400O :  0.61  253O :  0.61  499O :  0.61  379O :  0.60  496O :  0.59   76O :  0.59  181O :  0.58  214O :  0.57
  208O :  0.56  328O :  0.55  241O :  0.52  442O :  0.52  403O :  0.52  283O :  0.52  517O :  0.51  247O :  0.51  124O :  0.51   97O :  0.50  424O :  0.50   37O :  0.49
  295O :  0.48  319O :  0.47  454O :  0.47  136O :  0.45  259O :  0.45  139O :  0.44   28O :  0.44  274O :  0.43  358O :  0.43  373O :  0.42  349O :  0.42  205O :  0.41
  415O :  0.41  370O :  0.41  127O :  0.41  130O :  0.41  421O :  0.40  184O :  0.39  388O :  0.38  451O :  0.38  196O :  0.37  430O :  0.36  502O :  0.36  103O :  0.36
    4O :  0.36  265O :  0.36  487O :  0.35   46O :  0.35   85O :  0.34  286O :  0.34  364O :  0.34  427O :  0.33  412O :  0.33  406O :  0.32  331O :  0.31  292O :  0.30
  478O :  0.30   73O :  0.29  277O :  0.29  514O :  0.29  334O :  0.29  312H :  0.29  530H :  0.29   94O :  0.28  314H :  0.28  466O :  0.28   10O :  0.28  397O :  0.27
  172O :  0.27  439O :  0.26   79O :  0.26  248H :  0.25  142O :  0.25  376O :  0.23  115O :  0.23  472O :  0.23  418O :  0.22  229O :  0.22  463O :  0.20  506H :  0.20
  235O :  0.20  148O :  0.19  316O :  0.19  298O :  0.19  262O :  0.18  133O :  0.18  169O :  0.17   64O :  0.17  268O :  0.16  301O :  0.16  145O :  0.16   16O :  0.16
  436O :  0.16   70O :  0.16  250O :  0.16  508O :  0.16  163O :  0.16  469O :  0.14   43O :  0.14  240H :  0.14  244O :  0.14   93H :  0.13  242H :  0.13    6H :  0.13
   33H :  0.13  528H :  0.13  290H :  0.13  391O :  0.13  490O :  0.12  322O :  0.12  445O :  0.12  166O :  0.12  311H :  0.12  362H :  0.11  315H :  0.11  433O :  0.11
  484O :  0.11  387H :  0.10   29H :  0.10  394O :  0.10   88O :  0.10  512H :  0.10   15H :  0.10  117H :  0.10  337O :  0.10  227H :  0.10   53H :  0.09  180H :  0.09
  182H :  0.09   20H :  0.09  197H :  0.09  123H :  0.09  223O :  0.09  409O :  0.09    2H :  0.08  122H :  0.08  261H :  0.08  273H :  0.08  369H :  0.08  352O :  0.08
    9H :  0.08   78H :  0.08  157O :  0.08   27H :  0.08  459H :  0.07   14H :  0.07  284H :  0.07  380H :  0.07  237H :  0.07
   17 LP   *******   0.01  -4.55272  -1.89932  -0.00896   31O :  2.83  202O :  2.13  226O :  1.79  118O :  1.72  355O :  1.69  523O :  1.65   55O :  1.63  457O :  1.55  346O :  1.52   19O :  1.51   25O :  1.41   91O :  1.30
  220O :  1.29  109O :  1.28  511O :  1.26  343O :  1.22  199O :  1.22   40O :  1.20  112O :  1.20  313O :  1.15  304O :  1.14  529O :  1.13  310O :  1.12  271O :  1.06
    1O :  1.02  238O :  1.01  280O :  1.01   22O :  0.98    7O :  0.97  151O :  0.96  460O :  0.93  178O :  0.91  121O :  0.90   52O :  0.90  106O :  0.87   34O :  0.85
  385O :  0.85  256O :  0.82   67O :  0.81  100O :  0.80  382O :  0.80  325O :  0.79  175O :  0.79  361O :  0.78  307O :  0.78   61O :  0.75  481O :  0.74  217O :  0.74
  193O :  0.74  505O :  0.73  187O :  0.72   13O :  0.72  160O :  0.71  367O :  0.69   58O :  0.67  526O :  0.67  493O :  0.67  475O :  0.67   49O :  0.67  154O :  0.63
  289O :  0.61  211O :  0.61  340O :  0.60  400O :  0.60   82O :  0.60  253O :  0.59  499O :  0.59  379O :  0.58  496O :  0.58   76O :  0.57  181O :  0.57  214O :  0.56
  208O :  0.55  328O :  0.54  241O :  0.51  442O :  0.51  403O :  0.51  247O :  0.50  283O :  0.50  517O :  0.50  124O :  0.50   97O :  0.49  424O :  0.49   37O :  0.48
  295O :  0.47  319O :  0.46  454O :  0.46  136O :  0.44  259O :  0.44  139O :  0.43   28O :  0.43  274O :  0.42  358O :  0.42  373O :  0.41  349O :  0.41  205O :  0.40
  415O :  0.40  370O :  0.40  127O :  0.40  421O :  0.40  130O :  0.40  184O :  0.38  388O :  0.37  451O :  0.37  196O :  0.36  430O :  0.36  502O :  0.35  103O :  0.35
    4O :  0.35  265O :  0.35  487O :  0.34   46O :  0.34   85O :  0.34  286O :  0.33  364O :  0.33  427O :  0.33  412O :  0.32  406O :  0.31  331O :  0.31  292O :  0.30
  478O :  0.29  312H :  0.29  277O :  0.29  514O :  0.28  334O :  0.28  530H :  0.28   94O :  0.28  314H :  0.28   73O :  0.27  466O :  0.27   10O :  0.27  397O :  0.27
  172O :  0.26  439O :  0.26   79O :  0.26  142O :  0.25  248H :  0.25  376O :  0.23  115O :  0.22  472O :  0.22  418O :  0.21  229O :  0.21  463O :  0.20  506H :  0.20
  235O :  0.19  148O :  0.19  316O :  0.19  298O :  0.18  262O :  0.18  133O :  0.17  169O :  0.17   64O :  0.16  268O :  0.16  301O :  0.16  145O :  0.16   16O :  0.16
  436O :  0.16   70O :  0.16  250O :  0.16  508O :  0.16  163O :  0.15  469O :  0.14   43O :  0.14  240H :  0.14  244O :  0.13   93H :  0.13  242H :  0.13  528H :  0.13
    6H :  0.12  290H :  0.12  391O :  0.12  490O :  0.12  322O :  0.12  445O :  0.12  166O :  0.11  311H :  0.11  362H :  0.11  315H :  0.11  433O :  0.11  484O :  0.11
  387H :  0.10   29H :  0.10  394O :  0.10   88O :  0.10  512H :  0.10   33H :  0.10   15H :  0.10  117H :  0.10  337O :  0.10  227H :  0.10   53H :  0.09  180H :  0.09
  182H :  0.09   20H :  0.09  197H :  0.09  123H :  0.09  223O :  0.09  409O :  0.08  122H :  0.08  273H :  0.08  261H :  0.08  369H :  0.08  352O :  0.08    9H :  0.08
  157O :  0.07  459H :  0.07   14H :  0.07   27H :  0.07   78H :  0.07  284H :  0.07  380H :  0.07    2H :  0.07
   18 LP   *******   0.01  -2.49698 -12.99813  -3.08062  355O :  3.34  202O :  2.07  226O :  1.75  118O :  1.68  523O :  1.60   55O :  1.59  457O :  1.51  346O :  1.48   19O :  1.48   25O :  1.41   91O :  1.27   31O :  1.26
  220O :  1.26  109O :  1.25  511O :  1.23  199O :  1.19  343O :  1.19  112O :  1.17   40O :  1.17  313O :  1.12  304O :  1.12  529O :  1.10  310O :  1.09    1O :  0.99
  238O :  0.99  280O :  0.99  271O :  0.97   22O :  0.95    7O :  0.95  151O :  0.94  460O :  0.91  178O :  0.88  121O :  0.88   52O :  0.88  106O :  0.85   34O :  0.83
  385O :  0.82  256O :  0.80   67O :  0.79  307O :  0.78  100O :  0.78  382O :  0.78  325O :  0.77  175O :  0.77  361O :  0.76   61O :  0.73  481O :  0.72  217O :  0.72
  193O :  0.72  505O :  0.72   13O :  0.70  187O :  0.70  160O :  0.69  367O :  0.67   49O :  0.65   58O :  0.65  493O :  0.65  526O :  0.65  475O :  0.65  154O :  0.61
  289O :  0.60  211O :  0.59  340O :  0.59   82O :  0.58  400O :  0.58  253O :  0.58  499O :  0.58  379O :  0.57  496O :  0.56   76O :  0.56  181O :  0.55  214O :  0.55
  208O :  0.53  328O :  0.53  241O :  0.50  442O :  0.50  403O :  0.49  247O :  0.49  283O :  0.49  517O :  0.49  124O :  0.48   97O :  0.48  424O :  0.48   37O :  0.47
  295O :  0.46  319O :  0.45  454O :  0.45  136O :  0.43  259O :  0.43  139O :  0.42   28O :  0.42  274O :  0.41  358O :  0.41  373O :  0.40  349O :  0.40  205O :  0.39
  415O :  0.39  370O :  0.39  127O :  0.39  130O :  0.39  421O :  0.38  184O :  0.37  388O :  0.37  451O :  0.36  196O :  0.36  430O :  0.35  502O :  0.34  103O :  0.34
    4O :  0.34  265O :  0.34  487O :  0.33   46O :  0.33   85O :  0.33  286O :  0.32  364O :  0.32  427O :  0.32  412O :  0.31  406O :  0.30  331O :  0.30  292O :  0.29
  478O :  0.29  277O :  0.28   73O :  0.28  514O :  0.28  334O :  0.28  312H :  0.28  530H :  0.28   94O :  0.27  314H :  0.27  466O :  0.26   10O :  0.26  397O :  0.26
  172O :  0.25  439O :  0.25   79O :  0.25  248H :  0.24  142O :  0.24  376O :  0.22  115O :  0.22  472O :  0.22  418O :  0.21  229O :  0.21  463O :  0.19  506H :  0.19
  235O :  0.19  148O :  0.18  298O :  0.18  316O :  0.18  262O :  0.17  133O :  0.17  169O :  0.16   64O :  0.16  268O :  0.16  301O :  0.16  145O :  0.16   16O :  0.15
  436O :  0.15   70O :  0.15  250O :  0.15  508O :  0.15  163O :  0.15  469O :  0.14   43O :  0.13  240H :  0.13  244O :  0.13   93H :  0.13  242H :  0.13  290H :  0.12
   33H :  0.12  528H :  0.12    6H :  0.12  391O :  0.12  490O :  0.11  322O :  0.11  445O :  0.11  166O :  0.11  311H :  0.11  362H :  0.11  315H :  0.11  433O :  0.11
  484O :  0.10  387H :  0.10   29H :  0.10  394O :  0.10   88O :  0.10  512H :  0.10   15H :  0.09  117H :  0.09  337O :  0.09  227H :  0.09   53H :  0.09  180H :  0.09
  182H :  0.09   20H :  0.08  197H :  0.08  123H :  0.08  223O :  0.08  409O :  0.08  122H :  0.08  261H :  0.08    2H :  0.08  369H :  0.08  352O :  0.08    9H :  0.08
  157O :  0.07   27H :  0.07  459H :  0.07   14H :  0.07
   19 LP   *******   0.01   9.00088  -3.06163   4.13146  109O :  3.04  202O :  1.98  226O :  1.67  118O :  1.61  355O :  1.57   55O :  1.55  523O :  1.53  457O :  1.45  346O :  1.42   19O :  1.41   25O :  1.35   91O :  1.21
   31O :  1.21  220O :  1.21  511O :  1.18  343O :  1.14  199O :  1.14  112O :  1.12   40O :  1.12  313O :  1.07  304O :  1.06  529O :  1.05  310O :  1.04  271O :  0.99
  238O :  0.94    1O :  0.94  280O :  0.94   22O :  0.91  151O :  0.90    7O :  0.90  460O :  0.87  178O :  0.84   52O :  0.84  121O :  0.84  106O :  0.81   34O :  0.79
  385O :  0.79  256O :  0.77   67O :  0.75  100O :  0.75  382O :  0.74  325O :  0.74  175O :  0.74  361O :  0.73  307O :  0.72   61O :  0.70  481O :  0.69  217O :  0.69
  193O :  0.69  505O :  0.69   13O :  0.67  187O :  0.67  160O :  0.66  367O :  0.64   49O :  0.63  526O :  0.62   58O :  0.62  493O :  0.62  475O :  0.62  154O :  0.59
  289O :  0.57  211O :  0.57  340O :  0.56   82O :  0.56  400O :  0.56  253O :  0.55  499O :  0.55  379O :  0.54  496O :  0.54   76O :  0.53  181O :  0.53  214O :  0.52
  208O :  0.51  328O :  0.50  241O :  0.47  442O :  0.47  403O :  0.47  247O :  0.47  283O :  0.47  517O :  0.47  124O :  0.46   97O :  0.46  424O :  0.46   37O :  0.45
  295O :  0.44  319O :  0.43  454O :  0.43  259O :  0.43  136O :  0.41  139O :  0.40   28O :  0.40  274O :  0.39  358O :  0.39  373O :  0.39  349O :  0.38  205O :  0.38
  370O :  0.37  127O :  0.37  130O :  0.37  415O :  0.37  421O :  0.37  184O :  0.36  388O :  0.35  451O :  0.34  196O :  0.34  430O :  0.33  502O :  0.33  103O :  0.33
    4O :  0.33  265O :  0.33  487O :  0.32   46O :  0.32   85O :  0.31  286O :  0.31  364O :  0.31  427O :  0.30  412O :  0.30  406O :  0.29  331O :  0.28  292O :  0.28
  478O :  0.27  277O :  0.27   73O :  0.27  514O :  0.27  334O :  0.26  312H :  0.26  530H :  0.26   94O :  0.26  314H :  0.26  466O :  0.25   10O :  0.25  397O :  0.25
  172O :  0.24  439O :  0.24   79O :  0.24  248H :  0.23  142O :  0.23  376O :  0.21  472O :  0.21  115O :  0.21  418O :  0.20  229O :  0.20  463O :  0.19  506H :  0.19
  235O :  0.18  148O :  0.18  316O :  0.17  298O :  0.17  262O :  0.17  133O :  0.16  169O :  0.16   64O :  0.15  268O :  0.15  145O :  0.15  301O :  0.15   16O :  0.15
  436O :  0.15   70O :  0.15  250O :  0.15  508O :  0.14  163O :  0.14  469O :  0.13   43O :  0.13  240H :  0.13  244O :  0.13   93H :  0.12  242H :  0.12   33H :  0.12
    6H :  0.12  528H :  0.12  290H :  0.12  391O :  0.11  490O :  0.11  322O :  0.11  445O :  0.11  166O :  0.11  311H :  0.11  362H :  0.10  315H :  0.10  433O :  0.10
  484O :  0.10  387H :  0.09   29H :  0.09  394O :  0.09  512H :  0.09   88O :  0.09   15H :  0.09  337O :  0.09  227H :  0.09  117H :  0.09   53H :  0.09  180H :  0.09
  182H :  0.08  197H :  0.08   20H :  0.08  123H :  0.08  223O :  0.08  409O :  0.08  122H :  0.08  261H :  0.08  273H :  0.08    2H :  0.08  369H :  0.07  352O :  0.07
    9H :  0.07
   20 LP   *******   0.01   1.09306   6.76904  14.10196  202O :  3.53  226O :  1.62  118O :  1.56  355O :  1.52  523O :  1.49   55O :  1.47  457O :  1.40  346O :  1.38   19O :  1.37   25O :  1.30   91O :  1.18   31O :  1.17
  220O :  1.17  109O :  1.15  511O :  1.14  343O :  1.10  199O :  1.10  112O :  1.09   40O :  1.09  313O :  1.04  304O :  1.03  529O :  1.02  310O :  1.01  271O :  0.96
  238O :  0.92    1O :  0.91  280O :  0.91   22O :  0.88    7O :  0.88  151O :  0.87  460O :  0.84  178O :  0.82  121O :  0.82   52O :  0.82  106O :  0.78   34O :  0.77
  385O :  0.76  256O :  0.74   67O :  0.73  100O :  0.72  382O :  0.72  325O :  0.72  175O :  0.71  361O :  0.71  307O :  0.70   61O :  0.68  481O :  0.67  217O :  0.67
  193O :  0.67  505O :  0.66   13O :  0.65  187O :  0.65  160O :  0.64  367O :  0.62   49O :  0.61   58O :  0.60  493O :  0.60  526O :  0.60  475O :  0.60  154O :  0.56
  289O :  0.56  211O :  0.55  340O :  0.55   82O :  0.54  400O :  0.54  499O :  0.54  253O :  0.54  379O :  0.53  496O :  0.52   76O :  0.51  181O :  0.51  214O :  0.51
  208O :  0.49  328O :  0.49  241O :  0.46  442O :  0.46  403O :  0.46  247O :  0.46  283O :  0.46  517O :  0.45  124O :  0.45   97O :  0.45  424O :  0.44   37O :  0.44
  295O :  0.42  319O :  0.42  454O :  0.41  136O :  0.40  259O :  0.40  139O :  0.39   28O :  0.39  274O :  0.38  358O :  0.38  373O :  0.37  349O :  0.37  205O :  0.37
  415O :  0.36  370O :  0.36  127O :  0.36  130O :  0.36  421O :  0.35  184O :  0.35  388O :  0.34  451O :  0.33  196O :  0.33  430O :  0.32  502O :  0.32  103O :  0.32
    4O :  0.32  265O :  0.32  487O :  0.31   46O :  0.31   85O :  0.30  286O :  0.30  364O :  0.30  427O :  0.29  412O :  0.29  406O :  0.28  331O :  0.28  292O :  0.27
  478O :  0.27  277O :  0.26   73O :  0.26  514O :  0.26  334O :  0.26  312H :  0.26  530H :  0.26   94O :  0.25  314H :  0.25  466O :  0.24   10O :  0.24  397O :  0.24
  172O :  0.24  439O :  0.23   79O :  0.23  248H :  0.22  142O :  0.22  376O :  0.21  115O :  0.20  472O :  0.20  418O :  0.19  229O :  0.19  463O :  0.18  506H :  0.18
  235O :  0.18  148O :  0.17  316O :  0.17  298O :  0.17  262O :  0.16  133O :  0.16  169O :  0.15   64O :  0.15  268O :  0.15  301O :  0.14  145O :  0.14   16O :  0.14
  436O :  0.14   70O :  0.14  250O :  0.14  508O :  0.14  163O :  0.14   43O :  0.12  240H :  0.12  244O :  0.12  469O :  0.12   93H :  0.12  242H :  0.12   33H :  0.11
  528H :  0.11    6H :  0.11  290H :  0.11  391O :  0.11  490O :  0.11  322O :  0.11  445O :  0.10  166O :  0.10  311H :  0.10  362H :  0.10  315H :  0.10  433O :  0.10
  484O :  0.10  387H :  0.09   29H :  0.09  394O :  0.09   88O :  0.09  512H :  0.09   15H :  0.09  117H :  0.09  337O :  0.09  227H :  0.09   53H :  0.08  180H :  0.08
  182H :  0.08   20H :  0.08  197H :  0.08  123H :  0.08  223O :  0.08  409O :  0.08  122H :  0.08  273H :  0.07  261H :  0.07    2H :  0.07  369H :  0.07  352O :  0.07
   21 LP   *******   0.01  -3.11068 -15.99398  -2.93907  355O :  2.97  202O :  1.89  226O :  1.59  118O :  1.53  523O :  1.46   55O :  1.44  457O :  1.37  346O :  1.35   19O :  1.34   25O :  1.28   91O :  1.15   31O :  1.15
  220O :  1.15  109O :  1.13  511O :  1.12  199O :  1.08  343O :  1.08  112O :  1.07   40O :  1.07  313O :  1.02  304O :  1.01  529O :  1.00  310O :  0.99    1O :  0.90
  271O :  0.90  238O :  0.90  280O :  0.90   22O :  0.87    7O :  0.86  151O :  0.85  460O :  0.83  178O :  0.80  121O :  0.80   52O :  0.80  106O :  0.77   34O :  0.75
  385O :  0.75  256O :  0.73   67O :  0.72  100O :  0.71  382O :  0.70  325O :  0.70  175O :  0.70  361O :  0.69   61O :  0.67  307O :  0.67  481O :  0.66  217O :  0.65
  193O :  0.65  505O :  0.65   13O :  0.64  187O :  0.64  160O :  0.63  367O :  0.61   49O :  0.59   58O :  0.59  493O :  0.59  526O :  0.59  475O :  0.59  154O :  0.56
  289O :  0.55  211O :  0.54  340O :  0.54   82O :  0.53  400O :  0.53  253O :  0.53  499O :  0.53  379O :  0.52  496O :  0.51   76O :  0.51  181O :  0.50  214O :  0.50
  208O :  0.48  328O :  0.48  241O :  0.45  442O :  0.45  403O :  0.45  247O :  0.45  283O :  0.45  517O :  0.44  124O :  0.44   97O :  0.44  424O :  0.44   37O :  0.43
  295O :  0.41  319O :  0.41  454O :  0.41  136O :  0.39  259O :  0.39  139O :  0.38   28O :  0.38  274O :  0.38  358O :  0.37  373O :  0.37  349O :  0.36  205O :  0.36
  415O :  0.36  370O :  0.35  127O :  0.35  130O :  0.35  421O :  0.35  184O :  0.34  388O :  0.33  451O :  0.33  196O :  0.32  430O :  0.31  502O :  0.31  103O :  0.31
    4O :  0.31  265O :  0.31  487O :  0.30   46O :  0.30   85O :  0.30  286O :  0.29  364O :  0.29  427O :  0.29  412O :  0.29  406O :  0.27  331O :  0.27  292O :  0.26
  478O :  0.26  277O :  0.25   73O :  0.25  514O :  0.25  334O :  0.25  312H :  0.25  530H :  0.25   94O :  0.25  314H :  0.24  466O :  0.24   10O :  0.24  397O :  0.24
[...]
   145   8 o    1.844 --   146 h    0.870   147 h    0.827
   146   1 h    0.903 --   145 o    0.870
   147   1 h    0.885 --   145 o    0.827
   148   8 o    1.870 --   150 h    0.854   149 h    0.852
   149   1 h    0.889 --   148 o    0.852
   150   1 h    0.888 --   148 o    0.854
   151   8 o    1.828 --   152 h    0.889   153 h    0.803
   152   1 h    0.908 --   151 o    0.889
   153   1 h    0.882 --   151 o    0.803
   154   8 o    1.840 --   155 h    0.854   156 h    0.811
   155   1 h    0.892 --   154 o    0.854
   156   1 h    0.890 --   154 o    0.811
   157   8 o    1.806 --   158 h    0.878   159 h    0.853
   158   1 h    0.901 --   157 o    0.878
   159   1 h    0.898 --   157 o    0.853
   160   8 o    1.880 --   161 h    0.837   162 h    0.809
   161   1 h    0.888 --   160 o    0.837
   162   1 h    0.874 --   160 o    0.809
   163   8 o    1.892 --   164 h    0.822   165 h    0.800
   164   1 h    0.885 --   163 o    0.822
   165   1 h    0.886 --   163 o    0.800
   166   8 o    1.841 --   168 h    0.888   167 h    0.865
   167   1 h    0.893 --   166 o    0.865
   168   1 h    0.906 --   166 o    0.888
   169   8 o    1.860 --   170 h    0.812   171 h    0.812
   170   1 h    0.879 --   169 o    0.812
   171   1 h    0.891 --   169 o    0.812
   172   8 o    1.844 --   174 h    0.896   173 h    0.870
   173   1 h    0.897 --   172 o    0.870
   174   1 h    0.908 --   172 o    0.896
   175   8 o    1.849 --   176 h    0.841   177 h    0.836
   176   1 h    0.879 --   175 o    0.841
   177   1 h    0.888 --   175 o    0.836
   178   8 o    1.847 --   180 h    0.855   179 h    0.826
   179   1 h    0.878 --   178 o    0.826
   180   1 h    0.896 --   178 o    0.855
   181   8 o    1.874 --   182 h    0.849   183 h    0.829
   182   1 h    0.892 --   181 o    0.849
   183   1 h    0.885 --   181 o    0.829
   184   8 o    1.881 --   186 h    0.852   185 h    0.806
   185   1 h    0.870 --   184 o    0.806
   186   1 h    0.887 --   184 o    0.852
   187   8 o    1.863 --   189 h    0.820   188 h    0.808
   188   1 h    0.885 --   187 o    0.808
   189   1 h    0.887 --   187 o    0.820
   190   8 o    1.875 --   191 h    0.836   192 h    0.820
   191   1 h    0.883 --   190 o    0.836
   192   1 h    0.876 --   190 o    0.820
   193   8 o    1.859 --   195 h    0.819   194 h    0.818
   194   1 h    0.879 --   193 o    0.818
   195   1 h    0.888 --   193 o    0.819
   196   8 o    1.856 --   198 h    0.853   197 h    0.827
   197   1 h    0.879 --   196 o    0.827
   198   1 h    0.900 --   196 o    0.853
   199   8 o    1.863 --   200 h    0.853   201 h    0.808
   200   1 h    0.884 --   199 o    0.853
   201   1 h    0.867 --   199 o    0.808
   202   8 o    1.854 --   203 h    0.856   204 h    0.855
   203   1 h    0.898 --   202 o    0.856
   204   1 h    0.898 --   202 o    0.855
   205   8 o    1.862 --   207 h    0.878   206 h    0.821
   206   1 h    0.887 --   205 o    0.821
   207   1 h    0.902 --   205 o    0.878
   208   8 o    1.859 --   210 h    0.844   209 h    0.842
   209   1 h    0.892 --   208 o    0.842
   210   1 h    0.880 --   208 o    0.844
   211   8 o    1.875 --   212 h    0.798   213 h    0.798
   212   1 h    0.877 --   211 o    0.798
   213   1 h    0.877 --   211 o    0.798
   214   8 o    1.836 --   216 h    0.846   215 h    0.830
   215   1 h    0.885 --   214 o    0.830
   216   1 h    0.897 --   214 o    0.846
   217   8 o    1.841 --   218 h    0.878   219 h    0.839
   218   1 h    0.902 --   217 o    0.878
   219   1 h    0.886 --   217 o    0.839
   220   8 o    1.809 --   221 h    0.909   222 h    0.811
   221   1 h    0.917 --   220 o    0.909
   222   1 h    0.886 --   220 o    0.811
   223   8 o    1.859 --   224 h    0.897   225 h    0.829
   224   1 h    0.905 --   223 o    0.897
   225   1 h    0.885 --   223 o    0.829
   226   8 o    1.814 --   228 h    0.845   227 h    0.785
   227   1 h    0.874 --   226 o    0.785
   228   1 h    0.898 --   226 o    0.845
   229   8 o    1.889 --   231 h    0.818   230 h    0.815
   230   1 h    0.893 --   229 o    0.815
   231   1 h    0.875 --   229 o    0.818
   232   8 o    1.852 --   233 h    0.891   234 h    0.812
   233   1 h    0.909 --   232 o    0.891
   234   1 h    0.880 --   232 o    0.812
   235   8 o    1.849 --   236 h    0.836   237 h    0.799
   236   1 h    0.893 --   235 o    0.836
   237   1 h    0.882 --   235 o    0.799
   238   8 o    1.883 --   239 h    0.825   240 h    0.802
   239   1 h    0.889 --   238 o    0.825
   240   1 h    0.875 --   238 o    0.802
   241   8 o    1.861 --   243 h    0.819   242 h    0.791
   242   1 h    0.876 --   241 o    0.791
   243   1 h    0.886 --   241 o    0.819
   244   8 o    1.854 --   246 h    0.903   245 h    0.783
   245   1 h    0.871 --   244 o    0.783
   246   1 h    0.913 --   244 o    0.903
   247   8 o    1.887 --   248 h    0.809   249 h    0.798
   248   1 h    0.893 --   247 o    0.809
   249   1 h    0.878 --   247 o    0.798
   250   8 o    1.874 --   252 h    0.838   251 h    0.806
   251   1 h    0.883 --   250 o    0.806
   252   1 h    0.890 --   250 o    0.838
   253   8 o    1.863 --   255 h    0.883   254 h    0.803
   254   1 h    0.880 --   253 o    0.803
   255   1 h    0.903 --   253 o    0.883
   256   8 o    1.887 --   257 h    0.818   258 h    0.812
   257   1 h    0.877 --   256 o    0.818
   258   1 h    0.876 --   256 o    0.812
   259   8 o    1.867 --   260 h    0.821   261 h    0.821
   260   1 h    0.883 --   259 o    0.821
   261   1 h    0.890 --   259 o    0.821
   262   8 o    1.858 --   264 h    0.915   263 h    0.781
   263   1 h    0.880 --   262 o    0.781
   264   1 h    0.921 --   262 o    0.915
   265   8 o    1.848 --   266 h    0.849   267 h    0.805
   266   1 h    0.899 --   265 o    0.849
   267   1 h    0.879 --   265 o    0.805
   268   8 o    1.851 --   270 h    0.852   269 h    0.790
   269   1 h    0.882 --   268 o    0.790
   270   1 h    0.888 --   268 o    0.852
   271   8 o    1.869 --   272 h    0.817   273 h    0.802
   272   1 h    0.883 --   271 o    0.817
   273   1 h    0.886 --   271 o    0.802
   274   8 o    1.840 --   275 h    0.856   276 h    0.790
   275   1 h    0.902 --   274 o    0.856
   276   1 h    0.879 --   274 o    0.790
   277   8 o    1.853 --   278 h    0.886   279 h    0.869
   278   1 h    0.900 --   277 o    0.886
   279   1 h    0.896 --   277 o    0.869
   280   8 o    1.845 --   282 h    0.863   281 h    0.858
   281   1 h    0.897 --   280 o    0.858
   282   1 h    0.899 --   280 o    0.863
   283   8 o    1.828 --   285 h    0.847   284 h    0.822
   284   1 h    0.887 --   283 o    0.822
   285   1 h    0.900 --   283 o    0.847
   286   8 o    1.869 --   288 h    0.917   287 h    0.815
   287   1 h    0.878 --   286 o    0.815
   288   1 h    0.921 --   286 o    0.917
   289   8 o    1.859 --   290 h    0.847   291 h    0.786
   290   1 h    0.895 --   289 o    0.847
   291   1 h    0.865 --   289 o    0.786
   292   8 o    1.866 --   293 h    0.865   294 h    0.851
   293   1 h    0.899 --   292 o    0.865
   294   1 h    0.894 --   292 o    0.851
   295   8 o    1.877 --   297 h    0.825   296 h    0.797
   296   1 h    0.875 --   295 o    0.797
   297   1 h    0.885 --   295 o    0.825
   298   8 o    1.847 --   300 h    0.876   299 h    0.867
   299   1 h    0.892 --   298 o    0.867
   300   1 h    0.896 --   298 o    0.876
   301   8 o    1.878 --   302 h    0.856   303 h    0.797
   302   1 h    0.896 --   301 o    0.856
   303   1 h    0.881 --   301 o    0.797
   304   8 o    1.852 --   306 h    0.882   305 h    0.830
   305   1 h    0.887 --   304 o    0.830
   306   1 h    0.903 --   304 o    0.882
   307   8 o    1.853 --   308 h    0.888   309 h    0.832
   308   1 h    0.902 --   307 o    0.888
   309   1 h    0.884 --   307 o    0.832
   310   8 o    1.873 --   312 h    0.871   311 h    0.840
   311   1 h    0.888 --   310 o    0.840
   312   1 h    0.883 --   310 o    0.871
   313   8 o    1.853 --   314 h    0.869   315 h    0.795
   314   1 h    0.902 --   313 o    0.869
   315   1 h    0.879 --   313 o    0.795
   316   8 o    1.852 --   317 h    0.834   318 h    0.831
   317   1 h    0.884 --   316 o    0.834
   318   1 h    0.883 --   316 o    0.831
   319   8 o    1.885 --   320 h    0.819   321 h    0.818
   320   1 h    0.890 --   319 o    0.819
   321   1 h    0.886 --   319 o    0.818
   322   8 o    1.844 --   324 h    0.836   323 h    0.828
   323   1 h    0.890 --   322 o    0.828
   324   1 h    0.892 --   322 o    0.836
   325   8 o    1.867 --   326 h    0.846   327 h    0.807    38 h    0.103
   326   1 h    0.893 --   325 o    0.846
   327   1 h    0.876 --   325 o    0.807
   328   8 o    1.877 --   329 h    0.893   330 h    0.832
   329   1 h    0.905 --   328 o    0.893
   330   1 h    0.883 --   328 o    0.832
   331   8 o    1.857 --   332 h    0.862   333 h    0.830
   332   1 h    0.898 --   331 o    0.862
   333   1 h    0.885 --   331 o    0.830
   334   8 o    1.862 --   336 h    0.917   335 h    0.797
   335   1 h    0.880 --   334 o    0.797
   336   1 h    0.921 --   334 o    0.917
   337   8 o    1.833 --   339 h    0.916   338 h    0.787
   338   1 h    0.876 --   337 o    0.787
   339   1 h    0.924 --   337 o    0.916
   340   8 o    1.858 --   342 h    0.850   341 h    0.842
   341   1 h    0.891 --   340 o    0.842
   342   1 h    0.895 --   340 o    0.850
   343   8 o    1.817 --   345 h    0.831   344 h    0.828
   344   1 h    0.888 --   343 o    0.828
   345   1 h    0.893 --   343 o    0.831
   346   8 o    1.875 --   347 h    0.825   348 h    0.823
   347   1 h    0.880 --   346 o    0.825
   348   1 h    0.892 --   346 o    0.823
   349   8 o    1.899 --   351 h    0.838   350 h    0.781
   350   1 h    0.871 --   349 o    0.781
   351   1 h    0.892 --   349 o    0.838
   352   8 o    1.887 --   353 h    0.826   354 h    0.803   519 h    0.105
   353   1 h    0.891 --   352 o    0.826
   354   1 h    0.874 --   352 o    0.803
   355   8 o    1.845 --   356 h    0.867   357 h    0.803
   356   1 h    0.897 --   355 o    0.867
   357   1 h    0.882 --   355 o    0.803
   358   8 o    1.848 --   359 h    0.868   360 h    0.821
   359   1 h    0.900 --   358 o    0.868
   360   1 h    0.883 --   358 o    0.821
   361   8 o    1.884 --   363 h    0.861   362 h    0.843
   362   1 h    0.891 --   361 o    0.843
   363   1 h    0.894 --   361 o    0.861
   364   8 o    1.861 --   365 h    0.872   366 h    0.816
   365   1 h    0.888 --   364 o    0.872
   366   1 h    0.881 --   364 o    0.816
   367   8 o    1.845 --   369 h    0.879   368 h    0.858
   368   1 h    0.892 --   367 o    0.858
   369   1 h    0.899 --   367 o    0.879
   370   8 o    1.828 --   371 h    0.846   372 h    0.811
   371   1 h    0.897 --   370 o    0.846
   372   1 h    0.878 --   370 o    0.811
   373   8 o    1.853 --   374 h    0.882   375 h    0.828
   374   1 h    0.901 --   373 o    0.882
   375   1 h    0.885 --   373 o    0.828
   376   8 o    1.856 --   377 h    0.855   378 h    0.837
   377   1 h    0.896 --   376 o    0.855
   378   1 h    0.882 --   376 o    0.837
   379   8 o    1.835 --   381 h    0.879   380 h    0.837
   380   1 h    0.892 --   379 o    0.837
   381   1 h    0.903 --   379 o    0.879
   382   8 o    1.833 --   384 h    0.865   383 h    0.861
   383   1 h    0.895 --   382 o    0.861
   384   1 h    0.895 --   382 o    0.865
   385   8 o    1.810 --   387 h    0.838   386 h    0.815
   386   1 h    0.879 --   385 o    0.815
   387   1 h    0.892 --   385 o    0.838
   388   8 o    1.859 --   389 h    0.902   390 h    0.807
   389   1 h    0.909 --   388 o    0.902
   390   1 h    0.876 --   388 o    0.807
   391   8 o    1.854 --   392 h    0.916   393 h    0.816
   392   1 h    0.921 --   391 o    0.916
   393   1 h    0.882 --   391 o    0.816
   394   8 o    1.868 --   395 h    0.840   396 h    0.782
   395   1 h    0.888 --   394 o    0.840
   396   1 h    0.886 --   394 o    0.782
   397   8 o    1.838 --   399 h    0.919   398 h    0.799
   398   1 h    0.875 --   397 o    0.799
   399   1 h    0.923 --   397 o    0.919
   400   8 o    1.830 --   401 h    0.826   402 h    0.788
   401   1 h    0.891 --   400 o    0.826
   402   1 h    0.868 --   400 o    0.788
   403   8 o    1.832 --   404 h    0.846   405 h    0.821
   404   1 h    0.892 --   403 o    0.846
   405   1 h    0.880 --   403 o    0.821
   406   8 o    1.846 --   408 h    0.868   407 h    0.850
   407   1 h    0.892 --   406 o    0.850
   408   1 h    0.898 --   406 o    0.868
   409   8 o    1.855 --   411 h    0.855   410 h    0.834
   410   1 h    0.891 --   409 o    0.834
   411   1 h    0.899 --   409 o    0.855
   412   8 o    1.848 --   413 h    0.841   414 h    0.839
   413   1 h    0.890 --   412 o    0.841
   414   1 h    0.892 --   412 o    0.839
   415   8 o    1.815 --   417 h    0.857   416 h    0.856
   416   1 h    0.892 --   415 o    0.856
   417   1 h    0.903 --   415 o    0.857
   418   8 o    1.876 --   420 h    0.911   419 h    0.816
   419   1 h    0.878 --   418 o    0.816
   420   1 h    0.916 --   418 o    0.911
   421   8 o    1.851 --   423 h    0.837   422 h    0.802
   422   1 h    0.878 --   421 o    0.802
   423   1 h    0.893 --   421 o    0.837
   424   8 o    1.849 --   426 h    0.872   425 h    0.814
   425   1 h    0.886 --   424 o    0.814
   426   1 h    0.900 --   424 o    0.872
   427   8 o    1.840 --   429 h    0.848   428 h    0.780
   428   1 h    0.865 --   427 o    0.780
   429   1 h    0.887 --   427 o    0.848
   430   8 o    1.852 --   432 h    0.908   431 h    0.813
   431   1 h    0.875 --   430 o    0.813
   432   1 h    0.914 --   430 o    0.908
   433   8 o    1.831 --   435 h    0.909   434 h    0.815
   434   1 h    0.884 --   433 o    0.815
   435   1 h    0.916 --   433 o    0.909
   436   8 o    1.845 --   437 h    0.849   438 h    0.801
   437   1 h    0.897 --   436 o    0.849
   438   1 h    0.881 --   436 o    0.801
   439   8 o    1.869 --   441 h    0.843   440 h    0.805
   440   1 h    0.876 --   439 o    0.805
   441   1 h    0.898 --   439 o    0.843
   442   8 o    1.867 --   443 h    0.833   444 h    0.793
   443   1 h    0.893 --   442 o    0.833
   444   1 h    0.875 --   442 o    0.793
   445   8 o    1.832 --   447 h    0.886   446 h    0.841
   446   1 h    0.886 --   445 o    0.841
   447   1 h    0.908 --   445 o    0.886
   448   8 o    1.867 --   450 h    0.806   449 h    0.764
   449   1 h    0.872 --   448 o    0.764
   450   1 h    0.873 --   448 o    0.806
   451   8 o    1.861 --   452 h    0.865   453 h    0.804
   452   1 h    0.898 --   451 o    0.865
   453   1 h    0.882 --   451 o    0.804
   454   8 o    1.861 --   455 h    0.842   456 h    0.832
   455   1 h    0.889 --   454 o    0.842
   456   1 h    0.893 --   454 o    0.832
   457   8 o    1.853 --   458 h    0.851   459 h    0.805
   458   1 h    0.899 --   457 o    0.851
   459   1 h    0.886 --   457 o    0.805
   460   8 o    1.836 --   462 h    0.821   461 h    0.812
   461   1 h    0.883 --   460 o    0.812
   462   1 h    0.890 --   460 o    0.821
   463   8 o    1.873 --   464 h    0.811   465 h    0.803
   464   1 h    0.882 --   463 o    0.811
   465   1 h    0.873 --   463 o    0.803
   466   8 o    1.831 --   468 h    0.882   467 h    0.809
   467   1 h    0.880 --   466 o    0.809
   468   1 h    0.904 --   466 o    0.882
   469   8 o    1.849 --   470 h    0.860   471 h    0.799
   470   1 h    0.898 --   469 o    0.860
   471   1 h    0.876 --   469 o    0.799
   472   8 o    1.844 --   474 h    0.869   473 h    0.809
   473   1 h    0.878 --   472 o    0.809
   474   1 h    0.899 --   472 o    0.869
   475   8 o    1.854 --   477 h    0.902   476 h    0.833
   476   1 h    0.889 --   475 o    0.833
   477   1 h    0.911 --   475 o    0.902
   478   8 o    1.853 --   479 h    0.820   480 h    0.812
   479   1 h    0.884 --   478 o    0.820
   480   1 h    0.877 --   478 o    0.812
   481   8 o    1.833 --   483 h    0.833   482 h    0.829
   482   1 h    0.893 --   481 o    0.829
   483   1 h    0.884 --   481 o    0.833
   484   8 o    1.871 --   486 h    0.843   485 h    0.784
   485   1 h    0.872 --   484 o    0.784
   486   1 h    0.882 --   484 o    0.843
   487   8 o    1.880 --   488 h    0.867   489 h    0.829
   488   1 h    0.900 --   487 o    0.867
   489   1 h    0.882 --   487 o    0.829
   490   8 o    1.883 --   492 h    0.834   491 h    0.809
   491   1 h    0.888 --   490 o    0.809
   492   1 h    0.886 --   490 o    0.834
   493   8 o    1.867 --   495 h    0.839   494 h    0.809
   494   1 h    0.881 --   493 o    0.809
   495   1 h    0.881 --   493 o    0.839
   496   8 o    1.848 --   497 h    0.861   498 h    0.832
   497   1 h    0.893 --   496 o    0.861
   498   1 h    0.892 --   496 o    0.832
   499   8 o    1.849 --   500 h    0.874   501 h    0.807
   500   1 h    0.900 --   499 o    0.874
   501   1 h    0.878 --   499 o    0.807
   502   8 o    1.860 --   503 h    0.859   504 h    0.853
   503   1 h    0.892 --   502 o    0.859
   504   1 h    0.894 --   502 o    0.853
   505   8 o    1.845 --   506 h    0.835   507 h    0.790
   506   1 h    0.892 --   505 o    0.835
   507   1 h    0.874 --   505 o    0.790
   508   8 o    1.873 --   510 h    0.912   509 h    0.808
   509   1 h    0.875 --   508 o    0.808
   510   1 h    0.915 --   508 o    0.912
   511   8 o    1.852 --   512 h    0.854   513 h    0.842
   512   1 h    0.895 --   511 o    0.854
   513   1 h    0.894 --   511 o    0.842
   514   8 o    1.857 --   515 h    0.846   516 h    0.843
   515   1 h    0.892 --   514 o    0.846
   516   1 h    0.894 --   514 o    0.843
   517   8 o    1.863 --   518 h    0.921   519 h    0.765
   518   1 h    0.925 --   517 o    0.921
   519   1 h    0.873 --   517 o    0.765   352 o    0.105
   520   8 o    1.864 --   522 h    0.896   521 h    0.850
   521   1 h    0.888 --   520 o    0.850
   522   1 h    0.906 --   520 o    0.896
   523   8 o    1.869 --   525 h    0.891   524 h    0.796
   524   1 h    0.883 --   523 o    0.796
   525   1 h    0.904 --   523 o    0.891
   526   8 o    1.779 --   528 h    0.902   527 h    0.835
   527   1 h    0.883 --   526 o    0.835
   528   1 h    0.914 --   526 o    0.902
   529   8 o    1.810 --   530 h    0.859   531 h    0.852
   530   1 h    0.895 --   529 o    0.859
   531   1 h    0.891 --   529 o    0.852
 ---------------------------------------------------------------------------

Topologies differ in total number of bonds
Writing topology from bond orders to xtbtopo.mol

molecular dipole:
                 x           y           z       tot (Debye)
 q only:        2.522       2.294      -2.376
   full:        4.062       3.588      -3.166      15.953
molecular quadrupole (traceless):
                xx          xy          yy          xz          yz          zz
 q only:      128.181     -12.290     -75.275      -3.872      23.686     -52.907
  q+dip:      184.875     -27.626    -117.776     -15.326      31.812     -67.099
   full:      186.250     -27.663    -118.693     -16.581      31.672     -67.557


           -------------------------------------------------
          | TOTAL ENERGY             -901.199013881581 Eh   |
          | GRADIENT NORM               0.102170675528 Eh/α |
          | HOMO-LUMO GAP               5.962996568518 eV   |
           -------------------------------------------------

------------------------------------------------------------------------
 * finished run on 2022/11/17 at 06:55:18.387     
------------------------------------------------------------------------
 total:
 * wall-time:     0 d,  0 h,  0 min, 18.650 sec
 *  cpu-time:     0 d,  0 h,  0 min, 25.078 sec
 * ratio c/w:     1.345 speedup
 SCF:
 * wall-time:     0 d,  0 h,  0 min, 18.054 sec
 *  cpu-time:     0 d,  0 h,  0 min, 24.030 sec
 * ratio c/w:     1.331 speedup

