531
 energy: -901.191740910788 gnorm: 0.025599220955 xtb: 6.5.1 (579679a)
o           -1.85369168331976       -3.09386553666040       -0.00180248523298
h           -2.27115508578897       -2.86089330717481        0.86120245379995
h           -1.24410582667539       -3.83516769048461        0.14194619533075
o            2.55358059618625       -4.51459763514915        1.94987398939626
h            3.27515606284065       -5.14430655912616        1.76823806014808
h            1.72126045580670       -5.04808880125317        1.98995373367784
o            2.63018947417860       -0.30765104765685        3.21099053809385
h            2.56047440694659       -1.21546990693233        3.55658981273011
h            2.07528244066144        0.26294739150458        3.76838413558014
o            0.88718404468941       -2.55641230492345       -2.97738166936709
h            1.50182438226493       -3.04638859546501       -2.39640731836820
h            0.46438419361603       -3.18520384878628       -3.58035942272479
o           -3.85736216312515       -0.86908994146857        4.57605215374735
h           -4.07949924201604       -0.23661000464806        5.28891064761062
h           -4.22993008335931       -0.51466069575153        3.75565914936086
o            3.05760168602450       -3.97973512667162       -4.89433970811759
h            3.21082042900936       -3.43778006115296       -4.10059059045946
h            3.94273476710468       -4.20895647020520       -5.20653998895273
o           -0.30681616823467       -2.96772066556334        3.89913936724929
h           -0.58832128061748       -2.09699342134720        4.24256856908686
h            0.65427327319843       -2.93780123693960        3.82110189648954
o            4.47608855132166       -6.17966013756917        0.99214168315188
h            4.21803178606318       -6.21760266974927        0.05090128727745
h            5.39357554390014       -5.88859753857299        1.01958278010629
o           -4.97703157724566       -2.84802661926844       -0.45543463514633
h           -4.90596612613910       -2.78158222593275       -1.42838180897888
h           -5.85360059282018       -2.47165116798771       -0.23583429882016
o           -0.79066867384400        2.90708615038934        4.65497715402481
h           -1.39016988212387        2.49435740298069        3.99989704020110
h           -0.03844946503271        2.28140382933793        4.70923317049101
o           -3.30881588081759       -0.81858628035409       -0.07520284832308
h           -3.85358414167591       -1.63215344827362       -0.08807181202907
h           -3.49287526124123       -0.38703689699210       -0.92283307638204
o            1.35296850747541        6.93243374352898        1.34942844250417
h            1.91932324663104        6.14730314267115        1.53109722704931
h            1.92712763710692        7.69875829893188        1.38876127525470
o            2.67205421269455        2.94432030743479        3.21116827277700
h            1.84950116810868        2.47352601511335        2.91285329045425
h            2.46507884929709        3.42686643886542        4.03699921285910
o           -2.01987547760164        1.20985010115379        3.16214687032504
h           -2.93663027364805        0.90014559838699        3.10566175386594
h           -1.75350679361464        1.30785312056127        2.22000112263497
o           -0.57643466901998        3.75768394717317       -3.67137355868089
h           -0.58799853614723        3.67452594758815       -4.65138879355784
h           -0.49758890003538        4.71879127860449       -3.50666122916250
o           -2.01758576021422        6.09056207233560       -5.45708195140779
h           -1.58033981758062        5.38431034925956       -5.95334765916603
h           -1.37593052404525        6.38743145849265       -4.79867878109289
o           -3.60132977557894        2.48139259138349       -0.93130319009665
h           -3.97706617181923        3.32397821561082       -0.64304913414005
h           -3.39550035147543        2.57357997623059       -1.87453450148629
o           -1.35656845794144       -1.01880572347842       -3.99325431331785
h           -1.65640429782369       -1.72231264680892       -3.39323420478559
h           -2.09367355525535       -0.85409158045967       -4.60381826887133
o            4.49899144069654        1.29709273355964        4.23357529842156
h            4.09926568378204        0.90402944472662        5.03407604575331
h            3.80576123941268        1.88198427389489        3.84793252700019
o            5.66270524763070       -2.91736099883591       -0.57062740605895
h            4.84648009875798       -2.72740836495882       -0.04978041438142
h            6.14260401670717       -2.06946125660166       -0.59930623609835
o           -4.37915529341489        5.12814516632585       -4.59116527464509
h           -3.93023823916429        4.50077851863074       -3.99673058159525
h           -3.64699393214255        5.61060025986494       -5.01918066353508
o            0.27218214434767        1.21463589000974       -4.44385032131241
h            0.93805186467010        0.86034293947995       -3.81732018664022
h           -0.18664197178406        0.44792870894242       -4.81579549260445
o            5.02632313267235        4.98491676091427        5.06677408851938
h            5.24261116090612        5.00401727944219        4.12089744167511
h            5.57832075335959        4.26795333433195        5.42843021626608
o           10.21818266628684        0.83232978027910        1.45198046608956
h            9.96685646000423       -0.02303926256232        1.04886564998942
h           10.86929835687832        1.23842605520261        0.85011649092890
o           -5.63410791998416        0.76046080874690       -0.61496127244545
h           -4.77877194163934        1.20800928062447       -0.76493089653208
h           -6.26846492243010        1.50319816203766       -0.55665302845527
o            2.26726349774974       -3.73879405812580       -1.04444673089939
h            2.71007369606727       -3.21961488679373       -0.36340304118457
h            1.45794214803660       -4.13826619076387       -0.63471526851274
o           -2.88890279667616       -1.49767522004992        7.55681532810066
h           -3.33681587372007       -0.65245062766735        7.41676666439435
h           -3.51350404832742       -2.16520240501878        7.22466179961723
o           -3.10506722582118        2.86019518413951       -3.62577960901091
h           -2.21454625574092        3.25734662719306       -3.50763084897255
h           -3.04994301763523        2.41192441302862       -4.49013062301886
o           -5.23667155985719        3.11658673585249       -6.16630837860776
h           -6.19824551874500        3.05812664067590       -6.09874716517603
h           -4.97887091787482        3.92507014044366       -5.66801062953837
o            6.22529596673532        0.32386098105297        6.86022912742812
h            5.26348780896904        0.33388996142271        6.98024838869305
h            6.45743600149783        1.20700933301704        6.52019007637617
o            4.71939237144869       -1.35150306901164       -5.87750482270221
h            5.08955409340588       -2.21868686105672       -5.65744412641876
h            3.76935773109010       -1.39826240027333       -5.69979449178987
o           -9.70687537172474       -3.57940041401375       -3.29495877680351
h           -9.64190142455255       -4.28334980350329       -2.61416898256526
h          -10.29337611701058       -2.90669038142565       -2.92261291784877
o           -1.18262764357924        1.26788282516930       -2.18826662777897
h           -1.15532035601271        2.12715219914917       -1.74980188485840
h           -0.72557238288347        1.36239717660098       -3.04678501792816
o            0.07112865340103       -4.92129983831648       -0.30024412234443
h            0.43681177747373       -5.76866490130021        0.03279193675774
h           -0.30332157195854       -5.13453956003273       -1.17415070056549
o            1.16243592425236        1.13802541411759        4.95830252128306
h            1.43898138909530        1.60470346802031        5.77289946510749
h            0.86598924375599        0.26548323026902        5.27371178222066
o            1.52516693109955       -5.80021055487367       -3.54375406222109
h            1.97686801419192       -5.21580477289306       -4.17437373161385
h            2.19783455989116       -6.07284865557913       -2.90251583501322
o            5.16501449360522       -1.07418460224056        2.84771559549714
h            4.52614756137741       -0.40321464209108        3.15572234832113
h            5.95476152133484       -0.61505747593686        2.48984711099924
o           -5.53118148263332       -2.10902024793116        2.46837177899146
h           -5.90603853145529       -1.25268828567921        2.17086244459364
h           -6.06683811213634       -2.79147009661547        2.01958545542865
o            3.60673659097769       -2.32827564988959        0.94706303023432
h            4.06482223687776       -1.77529141459365        1.60233873523984
h            3.27878828490372       -3.10874511127953        1.43808118687931
o            2.40976716302880        5.73184758441627       -4.57378473025768
h            2.66783469838604        5.54867988870983       -5.48032627815161
h            2.33708663857206        4.84517665447898       -4.14614302693291
o            3.57062516682795       -5.96369523870586       -1.59000383638423
h            3.11430069436441       -5.11501013594414       -1.37421130440454
h            4.36262028424879       -5.68395378795930       -2.08599121486811
o            1.41699768633502       -1.30696586364337        6.08435077081203
h            0.75966480652075       -1.75597725468578        6.66808840035428
h            1.69157398236057       -1.97714555606646        5.44820794683141
o            4.27121810122892       -3.02912657356670        6.10171287060074
h            5.13849879226513       -2.67172900152506        5.81767281475359
h            4.03033126187783       -2.56918041443924        6.90645094633986
o           -0.71513636235168        0.43293806103322        7.38298132192848
h           -0.85752589804117        0.01400471620051        6.50330723194208
h           -1.03243349071383       -0.21324185131586        8.01699381490687
o            3.08239132232452        3.60943019192741       -0.88631691766997
h            2.77356131607734        3.65753315526463       -1.81646923537317
h            3.91079245686799        3.08769615483247       -0.88605907519393
o           -0.01040707743454        6.38273178312896       -3.50171761022096
h            0.30477758472365        6.36144311470401       -2.57845783337820
h            0.80560004765864        6.33069388285664       -4.03260816746639
o           -3.81190657654259       -5.00637157652367        0.67330572423269
h           -3.79940306800230       -5.67351962992756       -0.03257644167742
h           -4.22097441689023       -4.20857034114105        0.28253976118695
o           -4.29122457217274        0.35753951922833        2.12593166526230
h           -3.96977439889591       -0.07775111398670        1.30962198409734
h           -4.34421798715615        1.30699520174072        1.91603104693610
o            9.76234849887805        3.80081266137157       -0.93001754391579
h           10.52961250699363        3.21051190663810       -0.90982181008919
h            9.07322382341294        3.34207676193211       -0.41300643418250
o           -2.79191024717494        1.92653561716158       -6.19509176623750
h           -3.63212832302173        2.32521006657383       -6.47169630427499
h           -2.88499403853880        0.97189317353058       -6.28880331944343
o           -6.76267333147910        5.43001509961927       -3.05805053858305
h           -6.19344971399005        5.87293001792687       -3.69395931658514
h           -6.37476435086783        4.52826392118104       -2.98917025917370
o            1.46181444307695        2.15549294151984        7.40068875648581
h            0.81066591858897        1.47135739189163        7.63372598276507
h            0.96716919996865        2.99676936566851        7.53875730057625
o           -9.04828865592646        3.57434881218234       -2.84953150522887
h           -8.46743598731636        4.29094659269881       -3.13463420177767
h           -9.33544415358514        3.83944980318738       -1.96013991954416
o           -1.20107470286779       -0.61491243615018        4.92392320007267
h           -2.12814676435653       -0.90390667753831        5.00181401694623
h           -1.24740842506925        0.07451612908684        4.22849424909282
o            6.42993225534972       -1.68199956574894        5.18740047082798
h            5.91555149427238       -1.39883344302018        4.40597181032692
h            6.41941865202533       -0.92884903022418        5.83142874767706
o            8.87751808806980        4.51132125185300        1.86118443102459
h            8.20066833006589        5.10604939637592        1.51104319470978
h            9.55549607406940        4.48048264211387        1.17944002527492
o           -9.37891116825241       -0.50936982004222        2.35303994439200
h           -8.50139962186520       -0.37768400225951        1.93719776687232
h           -9.30978084426579       -1.38789647803530        2.78994808675673
o           -0.33564894615954       -0.63505866468086       -6.49350758585119
h           -1.28882712392632       -0.70004404965175       -6.61209736854894
h            0.06145550309854       -0.45373667450368       -7.34667709529681
o           -1.93440828443128       -4.90596217373939        2.67321694648670
h           -1.77311207649574       -4.01371838571922        3.01194428306071
h           -2.49602689872607       -4.80859448347265        1.88929840791670
o            3.53870328238974        6.17695483842005       -2.09869488588913
h            2.69581033829080        5.88355473844082       -1.70350011395412
h            3.33966794375540        6.27542242908448       -3.04189017328243
o           -4.02126123371941        3.00305314828562        1.99442431006292
h           -4.48343812294003        3.57150813174613        1.36613056845448
h           -4.46460030268756        3.09014763130498        2.85761235117900
o           -6.86016343383401        0.05846511917603        1.68092243304887
h           -6.44896074078447        0.09990894413069        0.79658964129490
h           -6.67597617522271        0.91448743515630        2.08693864518019
o           -4.58178991331512        4.88899900351310       -0.00507288772913
h           -5.52432041026993        5.14209532983132       -0.13306688735465
h           -4.23758460294950        5.42233989183120        0.74128683412543
o           -7.34837620473927        2.77114335490166       -0.66091147108254
h           -8.08846360027597        2.15656901481983       -0.79551971119410
h           -6.98478976407184        2.98361003108927       -1.53598043489609
o            8.11694459773363        2.13428042928765        0.41233909254417
h            7.32517567309196        2.19030062669020        0.97182653833654
h            8.81565679760927        1.70680273854807        0.94638270799755
o            3.23091836954486        1.10581797290532        0.99646235125115
h            2.90943200767164        0.58575757425502        1.75044598009852
h            4.03372943366227        1.55689113665608        1.29758286741393
o            3.79680672784323       -2.16770241468709       -2.98040316128679
h            3.36203592887995       -1.53464100452042       -3.56310000822601
h            3.77965631943444       -1.74717701720198       -2.10155423522372
o           -0.12871759535782        4.28989029889676        7.55784307100567
h           -0.99010423904088        3.84066338747461        7.52218403981377
h           -0.09850727556057        4.87182913030593        6.78144333023758
o           -4.23315702146031        0.81213063445278        6.61106088184514
h           -3.65608012939954        1.60043216921683        6.68239343492717
h           -5.14445536121253        1.09971950397120        6.49689184723737
o           -1.68230017072105        1.25528400313853        0.54726670522625
h           -2.33963922913540        1.81240774214989        0.10193791634261
h           -2.00811884499253        0.35215441342838        0.45002624704774
o            6.33604100576051       -1.47640713482351       -3.23193346005084
h            6.06504628280304       -0.54583780995893       -3.06820408494091
h            5.48641222408693       -1.96200553577080       -3.25316507168083
o           -4.50834986462876       -3.06747855930832        5.99820359800427
h           -4.17387328546047       -2.41959884281664        5.34971984566893
h           -4.05107079025360       -3.90697391352248        5.82645758873841
o            4.97219379849461        1.21744047184938       -6.72086550455769
h            5.79087280574003        1.56501244470281       -6.34895404246253
h            4.98285620160503        0.26201652229074       -6.53130554154456
o            2.29057950188650       -0.27073476568186       -7.58871072124188
h            3.17151932515553       -0.12692657902434       -7.93450987815952
h            1.95787588345382        0.61941228373297       -7.33407107036620
o           -7.84533469123298       -0.27554136053582       -5.61036590188669
h           -8.51936228779851       -0.59930983199773       -5.00757132721212
h           -7.09116012360284       -0.89280448216848       -5.56455914213658
o            3.97752491257679       -0.35448727431153       -1.04033884028029
h            3.60496587924205        0.12939678339480       -0.26738589709262
h            4.93422682761706       -0.35025078460454       -0.89647794492721
o            5.66291122101167       -4.62466961393696       -2.65966839824395
h            6.54131831081545       -4.98688137103191       -2.39256786542448
h            5.51241864057380       -3.89905597775705       -2.02100841689697
o          -10.65546802211690       -1.36435063871959       -1.85942128238861
h          -11.38939919022496       -0.94502689432295       -1.40073289654429
h          -10.19413414081804       -0.65087073541413       -2.35513663869727
o           -2.23288395743934        2.60559232236099        6.85482916942888
h           -1.73458211067034        1.85129553064240        7.22741694406126
h           -1.79888060920509        2.75191162898566        5.98159150224553
o            3.29748832546864        1.32119908072313       -4.61100684240429
h            3.77907189418857        1.43433136202708       -5.45279255050605
h            2.79664923423520        0.48502444810096       -4.67780678520677
o           -0.89214366232970        3.86470150284443       -0.79251882217261
h           -1.15510268033281        3.84992748231508        0.16064453899582
h           -1.59485735033395        4.32884534948262       -1.28524208615882
o            7.71509743191614       -0.75288486224942       -5.36358083828248
h            7.17430193148919       -1.11399151064699       -4.61415973001185
h            7.31751699890239       -1.10489929689064       -6.16044379185225
o            0.42057330638038       -5.98427411659686        2.26326502832099
h            0.72197696281731       -6.30590347535703        3.14544430697484
h           -0.39358623388423       -5.46516341545808        2.44295459725004
o           -7.41599694206578       -1.76153888266936       -0.33034891525109
h           -7.46602176072461       -2.02168787143394       -1.27691260183201
h           -8.12655500464201       -2.26338881740924        0.10587587947708
o           -7.54848252637408        2.29576560190561       -4.98415161988502
h           -7.67811471424691        1.35634603086244       -5.25347862019794
h           -8.38650038112490        2.59493388154960       -4.62095779948109
o            2.08022449750308        3.39996926966096       -3.33742556456362
h            2.48285158184834        2.63575900746222       -3.78987435868649
h            1.10647299744452        3.31894119177864       -3.40644173796028
o            7.50478641842797       -0.06272332288088        2.17650953096979
h            7.67922053674456        0.80500448261387        2.58861013453658
h            8.03801154435694       -0.70810943770371        2.68208164616447
o           11.74760910489128        1.86087861725324       -0.52818471719677
h           11.72514393897549        0.96004736772975       -0.95675543903493
h           12.66597705468801        2.12849438142466       -0.51564203276002
o            1.00605454816097        5.75409433725219       -1.09057055322021
h            0.98913962913035        6.26722087124545       -0.26715632661394
h            0.39135981039080        5.00032125618463       -0.96727841025860
o            5.69186082542591        2.07173624519021        1.81219631006998
h            5.65312312751971        3.04077352368622        2.01240742069480
h            5.59254546633984        1.65284933105338        2.67511338861094
o           -0.98515890079994       -5.66308193439590       -2.72934624647947
h           -0.10977861461521       -5.75953549774737       -3.16221066841961
h           -1.13299724598401       -6.50122648263520       -2.22647973083353
o            6.93025047553197       -4.66239162103697        0.94074117212094
h            7.72507321039028       -4.25463467596760        1.31937199559263
h            6.50094286056160       -3.98206574655543        0.36425385000552
o            2.58417044064830       -7.94824213818541        2.09888425247159
h            2.29037768840569       -7.76064463179003        2.99489229904293
h            3.39776240076569       -7.44682208940595        1.95269341393487
o           -9.24338327212596       -5.16591212162174       -1.16941104840568
h           -9.46442684141826       -4.48934887979123       -0.50966097451526
h           -8.32872363598574       -5.42235095073002       -0.98875881576612
o           -6.64173464549946        0.84504990789856        5.14098182673498
h           -6.67870458386925       -0.13055746798735        5.07164285476764
h           -7.51534802364788        1.15963613301221        4.84489064190501
o           -3.29567709323694       -5.44769129977907        5.31236729153404
h           -3.70110187372246       -5.37375110453937        4.42166526027113
h           -3.64647862739055       -6.24332898036202        5.71088686976089
o           -2.10682883613448       -3.18195455138757       -2.58284464167121
h           -1.65098386022665       -4.00889842036640       -2.78783972165234
h           -2.16317042040738       -3.14806573083170       -1.60488786530331
o            8.01769316944178       -5.16805144302357       -1.62121624928816
h            7.77057491036877       -5.24881696522994       -0.68744510972082
h            8.34488894168587       -4.25793025536181       -1.73505616712663
o           -6.74189347060699        0.05330766295419       -2.94444153202337
h           -6.28581844672007        0.23528481997110       -2.09393269253118
h           -6.87957405253325       -0.90954445391510       -2.98856931432926
o           -3.92504075424622       -6.74400119881115       -1.43633595354098
h           -3.83758476555993       -6.35587481582043       -2.31520935500151
h           -3.20106037271512       -7.37443836072121       -1.35182439088156
o            8.74965748153268       -1.65224517470971        3.93242000446154
h            9.31256492690742       -0.94703598403682        4.28573577698181
h            7.96473376695530       -1.74170229091005        4.52671929252402
o            1.35908978760764       -7.27001230190984       -0.21465740088473
h            1.66207961109701       -7.58730183787232        0.66082433659048
h            2.16038821356560       -7.09576314577609       -0.71866583682425
o           -1.66301512401021       -7.55099596094066        1.43744706673810
h           -2.28804314592224       -6.98118159750624        1.89095354366270
h           -0.78243622700775       -7.22573887691720        1.70562884875679
o           -2.78018184156302       -2.36077638057423        2.33155159778561
h           -3.69919705259939       -2.05856224121278        2.37630266313376
h           -2.18162331309520       -1.61022595870773        2.43961865175938
o           -0.57527521222757       -4.85924919447329        5.73435202668351
h           -1.48057624573665       -5.18943882273930        5.64746503134498
h           -0.48633715577891       -4.20287906386924        5.00509347084236
o            6.63446996197355       -0.43336850389338       -0.40096769659952
h            7.18128137614159       -0.01137752814436       -1.08086712062006
h            7.05357085289026       -0.27414957396541        0.46164995036951
o            5.50502374695988        4.61150282065838        2.35242219774936
h            6.07951290016088        5.10125652112061        1.72970445442327
h            4.58725868790756        4.78338804621150        2.06626568759813
o           -8.77195484306356        1.78414420317240        3.69915214320332
h           -8.08922604930561        2.14234493693955        3.09769551790515
h           -9.04418280100711        0.91534191637713        3.34304012884242
o            0.53987972481140        1.90705416276914        2.15419844183963
h           -0.16006158794982        2.58264370858992        2.16527821451209
h            0.80308631319198        1.85566425523716        1.21187144936623
o           -9.76759087919176       -2.86513528868131        0.27180824258233
h          -10.29560467030417       -2.73380660306564        1.06068667469239
h          -10.16702332773326       -2.33850666394031       -0.44856937358331
o           -7.01886700531014       -4.18859661519408        1.61990209681038
h           -6.53345851464473       -4.74328480383175        2.24973079487638
h           -6.87688663758257       -4.59170096289526        0.74545312223905
o           -9.58301230291629        4.51709950511665       -0.27591818980104
h           -9.76776439127572        3.77083923725257        0.34496756789502
h          -10.28670188003006        5.15395772373112       -0.15682095475053
o            5.78277267629134       -3.84689957999608       -5.17689898410276
h            5.77410125279589       -4.09893191681297       -4.21737140762487
h            6.48965799280846       -4.34800178960500       -5.58040428506649
o            1.32254316729837       -6.58193025254770        4.64677546238597
h            2.21183451069267       -6.20021887436168        4.76787657545016
h            0.71374539758078       -6.05625536371823        5.19647359208646
o           -3.42029726987460       -5.45564286734129       -4.02079363566249
h           -2.51927788726857       -5.58481944305700       -3.67448213279249
h           -3.31547701789984       -4.82693179687142       -4.76138022915317
o           -1.40517800053188        3.84270842358468        1.78774696683815
h           -2.31165508773151        3.53738919441125        1.97756124692757
h           -1.32099407894220        4.74725481616383        2.15259442318872
o            5.45744769497401        1.00425391912819       -3.15546417904536
h            4.57922785105280        1.12736009740665       -3.59235138661244
h            6.09748507779314        1.40760739420654       -3.76568885713018
o           -0.47724185012267       -3.24635381751267       -5.23819653391531
h            0.17623928034910       -3.20536679381549       -5.96774435283002
h           -0.64540207932140       -2.31660488887208       -4.97217427579631
o           -1.21656607743080       -7.76122318723664       -1.15628887892307
h           -0.26884976375666       -7.94333679804049       -1.08070654453496
h           -1.48887189006667       -7.69784339781660       -0.21033154578621
o            9.72350645818142       -0.60145702579853       -3.42047683545798
h            9.30179507060664       -0.68317950511655       -4.28422330642231
h            9.19694106913497        0.06398270366362       -2.92739259220493
o           11.58965032244604       -0.59182055469262       -1.40282858884986
h           10.97539572873493       -1.01806586884669       -0.77799478512014
h           11.15324675723437       -0.63597843269558       -2.26562886670149
o           -4.83786138125717       -4.89437043111456        3.15166888129741
h           -4.75399540653830       -3.94223355295113        3.27934612115166
h           -4.44143271243699       -5.06424352595442        2.27389160763498
o           -6.44296594704034        5.44763367058478        2.42575837284502
h           -5.56153728551693        5.83832936433685        2.50543389865342
h           -6.81984752897436        5.80476352285083        1.61231331581446
o           -8.84587627180554        0.58609452942365       -0.38227583363335
h           -9.74472108291338        0.22680824325752       -0.39244496819027
h           -8.24851473362724       -0.18713069473865       -0.35886836530516
o           -6.47916175198257       -5.49640661455967       -0.73219909856880
h           -5.87470051526265       -6.23778679647645       -0.63266492660313
h           -6.25326488834062       -5.09818191620548       -1.59332766417555
o          -10.08120022989597        2.45240278807324        1.29309902532983
h           -9.84423730318036        2.42501352791449        2.23242136158240
h           -9.55561484585811        1.76000845861144        0.85591992079004
o            5.12375976443241        3.67626173192709       -4.37068643200079
h            5.35956181055563        4.20953940995115       -3.59567531040392
h            5.94032153867466        3.30611638106811       -4.71535998322284
o            4.37955879367721        7.11838862887703        0.35195827914619
h            4.14112135739871        7.04723167877877       -0.58467746205547