612
 energy: -1033.466678249375 gnorm: 0.000128099031 xtb: 6.5.1 (579679a)
H           -1.27413816400000        0.94782775900000       -0.92021831940000
C           -0.47256618750000        1.23864356270000       -0.24925218650000
H            0.24080871950000        0.41838499410000       -0.19518083590000
C           -1.03960816890000        1.57138398320000        1.12694733820000
H           -1.00910356030000        2.64737238100000        1.24732979950000
H           -0.44574619290000        1.11606653170000        1.91070812710000
O            0.18560250660000        2.40188448010000       -0.74544105560000
H            0.33516669430000        2.33507139540000       -1.71174306640000
N           -2.43360727250000        1.15513137250000        1.27066023630000
H           -2.55067206950000        0.11261833200000        1.15243877990000
H           -3.01479194050000        1.63716386830000        0.55931949960000
H           -2.75409039850000        1.39142623570000        2.23184185390000
O            2.90317538950000        4.93468687800000        1.02917277600000
H            2.38437431760000        5.58552165140000        1.54319300960000
H            2.43538621510000        4.81440865860000        0.17661239530000
O            3.54541850670000        3.26721355200000       -4.08935249030000
H            3.39329637040000        4.23335862510000       -4.21290597480000
H            3.64479950100000        2.91964815920000       -4.98659749850000
O            7.80268248940000        3.01978757650000       -0.90912871520000
H            8.38959403750000        2.39627210940000       -0.47072182160000
H            7.14950458240000        2.52579069370000       -1.43373658960000
O           -0.58445739870000        3.77883324760000        3.15090451990000
H           -0.14900050590000        2.98990874090000        3.54972760000000
H           -0.49373569640000        4.51365192770000        3.77433234080000
O           -5.38975337910000        4.25056237310000       -0.31068951780000
H           -5.50841193900000        3.60064412630000        0.40260707310000
H           -4.43215316710000        4.44627796180000       -0.29986801570000
O           -3.87587463140000       -4.91335512920000       -5.30900288720000
H           -4.68639814520000       -4.38167645800000       -5.37357717450000
H           -3.14587514850000       -4.27901616440000       -5.47045187910000
O            2.21046975700000        3.04544488810000        2.74443931960000
H            2.35299060670000        3.58728876970000        1.94269293680000
H            1.94207079870000        2.14639499930000        2.49077901550000
O            6.90621524500000        5.58558114990000       -0.96554380750000
H            6.34670716670000        5.83342552210000       -0.21548571420000
H            7.23463518570000        4.70140566280000       -0.74786163450000
O            1.84534594330000        0.47308432730000        2.01923956140000
H            2.31993411270000        0.74204607010000        1.21472651970000
H            1.25425280050000       -0.25836458900000        1.75492351220000
O           -3.26170142550000       -3.15456677170000       -2.23921052990000
H           -2.66554701520000       -2.87795314800000       -2.94438379830000
H           -3.50894821380000       -4.08797493180000       -2.39622494290000
O            2.10042810920000        4.78851058690000       -1.45619046700000
H            1.58443162160000        4.12968081040000       -1.93328195760000
H            3.04934309030000        4.63024010700000       -1.67855177050000
O            6.07607110500000        1.71753723060000       -2.62858667650000
H            6.45345329980000        0.87212883250000       -2.93095571560000
H            5.11609637510000        1.53752692650000       -2.51592212980000
O           -4.74906775310000       -0.03200411060000        2.09720284310000
H           -4.87505520740000       -0.87346985050000        2.55887685050000
H           -5.02346389450000       -0.18577698140000        1.17379080130000
O            0.49523462210000        1.70152178370000        4.38660891550000
H            0.32598477120000        2.06033590020000        5.27607527540000
H           -0.05174701660000        0.89619710860000        4.27499965420000
O            1.57423998940000        4.87463629510000        4.59196734410000
H            2.47516540780000        5.20657612330000        4.75149972310000
H            1.71964484340000        4.12928118440000        3.96929080880000
O            3.93963989950000       -0.67069157350000        0.34086253900000
H            4.69781961970000       -0.40670733480000       -0.19665461730000
H            4.10196451540000       -0.30900193960000        1.23576206650000
O           -3.96495184850000       -5.24837005500000        4.88264582860000
H           -3.03442418180000       -5.16028780730000        5.14188564040000
H           -4.44741352700000       -4.51963569250000        5.31750635990000
O            0.09571975320000       -1.43444799840000        1.56831230300000
H           -0.30038971300000       -1.64583523330000        0.69985528390000
H            0.15255062230000       -2.27777179250000        2.04263322620000
O           -1.05063445350000       -0.41344443420000        3.84107612840000
H           -1.07397717680000       -1.13357776890000        4.48904940120000
H           -0.72425220490000       -0.79764330230000        3.00544522870000
O           -1.81992255370000        0.85877442610000        6.46338347910000
H           -2.00840149750000        1.34399604250000        7.26429237190000
H           -0.88564901270000        0.56623811350000        6.52127096300000
O            6.21753338860000        2.35651125220000        5.11435509770000
H            5.75945761820000        2.59708391230000        4.27775729290000
H            7.04587061940000        2.85739580620000        5.10009307650000
O           -2.77458244190000        4.78630823140000       -0.02753288010000
H           -2.83066398780000        4.57369111580000        0.92657465250000
H           -2.85120694500000        5.75499534980000       -0.10976407110000
O           -5.42974826480000        0.92191494500000        4.66976281010000
H           -6.00935589200000        0.98941677370000        3.87391031360000
H           -5.95355294970000        0.35191579330000        5.27871574680000
O           -0.91521601620000       -2.23010867790000       -0.78838465870000
H           -1.68098070970000       -1.63309111050000       -0.91911948710000
H           -1.22616911970000       -2.99280261690000       -0.28084064940000
O            1.72016270020000       -1.06903727500000       -1.14309165680000
H            2.52002758810000       -0.85204831140000       -0.63102635950000
H            1.37529292480000       -1.88984421730000       -0.74289668790000
O           10.25322128970000        1.62900361080000       -0.14040765840000
H           10.75530252840000        1.87590284090000       -0.94054146110000
H           10.86516183970000        1.13592817000000        0.43858789210000
O           -2.88048465540000        1.60101910920000        3.89130914850000
H           -3.78125468140000        1.32590123020000        4.12812213030000
H           -2.29584389510000        0.84225753130000        4.07984561300000
O            3.57763350950000        0.88382488310000       -2.42058236890000
H            3.96125261900000       -0.01144487270000       -2.29380857390000
H            3.12449283080000        0.87712250480000       -3.29118482530000
O           -0.57323318150000       -2.27204135860000        6.01121748230000
H           -1.38564803500000       -2.61353506980000        6.41106351830000
H           -0.29576970380000       -1.50165993290000        6.52398957610000
O           -2.46573807510000       -3.04914321830000        3.37528999840000
H           -2.16707784600000       -3.41264074410000        4.21317650450000
H           -1.97775093350000       -3.53095720870000        2.66720296380000
O            0.15558399410000       -4.97717279470000       -6.73147086940000
H            0.84596977070000       -4.36003801980000       -7.03068351790000
H           -0.09221674840000       -5.53115168630000       -7.46965029220000
O            4.67807846450000        6.81841613870000       -2.63981212080000
H            5.02591843980000        5.99171443050000       -2.26978596810000
H            4.34910559120000        7.31708564540000       -1.87618375020000
O            0.50612286770000        2.27498691530000       -5.70044199610000
H            0.79936121910000        3.09776598290000       -6.12823801740000
H            1.29798668600000        1.71573536410000       -5.58475987010000
O            4.89830598130000       -1.40860721050000       -2.28684859800000
H            5.55075909860000       -1.20680947870000       -2.97101931970000
H            4.18317715400000       -1.91716078220000       -2.71320662080000
O           -1.23297887510000       -4.16189878940000        1.31273171110000
H           -0.48982110860000       -4.76600772140000        1.47136511460000
H           -1.90218066820000       -4.68687434930000        0.83216443080000
O           -9.37470384070000       -1.94592070860000       -0.91453160340000
H          -10.28042950320000       -1.62249632580000       -1.07908299160000
H           -9.42247229840000       -2.74502417980000       -0.37580720710000
O           -7.40981919030000       -1.50901277400000        1.75360019920000
H           -6.88752291070000       -2.01225393490000        2.38402418760000
H           -7.11377299720000       -1.79064209310000        0.86435558170000
O           -2.61571018590000       -1.46026050420000        1.19111486260000
H           -2.48056331680000       -1.71747394800000        2.11051245500000
H           -3.28433895240000       -2.08309251150000        0.84611082290000
O            1.08370692580000        2.86702807840000       -3.19629265530000
H            2.03737524250000        2.82338906750000       -3.43658237120000
H            0.63135451050000        2.50558757210000       -3.98610843070000
O           -1.59001473920000        6.90998669090000       -2.64580797100000
H           -2.15046962880000        7.28422481850000       -1.95975993790000
H           -2.12706305600000        6.80355495090000       -3.44438197870000
O           -7.23313429800000        0.97031244090000        2.71921787290000
H           -8.13884664830000        1.16750517240000        3.01308157950000
H           -7.26923843910000        0.07468526930000        2.32913500720000
O            9.08079499280000        1.13768524510000        3.99600661530000
H            8.47117921740000        1.14032650210000        3.22951397250000
H            9.10887560320000        2.05986352360000        4.29226960110000
O           -2.77331738140000       -5.47912221770000       -0.40151981730000
H           -3.05442900550000       -6.40364225120000       -0.28082980480000
H           -1.96608766560000       -5.48161431590000       -0.94190551370000
O            2.70083670000000        1.85616517940000       -0.12959538340000
H            1.81930403370000        2.24344251500000       -0.27601063080000
H            2.95960900090000        1.46097733410000       -0.98810658980000
O            5.15424016900000        2.60541211960000        0.37019026560000
H            5.62823455700000        1.80360332400000        0.11796301210000
H            4.20253406410000        2.38553158850000        0.29360479260000
O            0.51332921970000       -6.62577150860000        4.13556888600000
H            0.60845020150000       -6.42823374020000        3.17513846980000
H            1.36322186080000       -6.37435376090000        4.52375838050000
O           -6.18638678430000       -6.94386251280000        4.27617084120000
H           -6.10192692390000       -7.21400771250000        3.35000682730000
H           -5.32562024790000       -6.59260195770000        4.54204608590000
O            1.25503547170000       -7.53404657020000       -5.07795917350000
H            0.31205152030000       -7.33522279370000       -5.13445553600000
H            1.71882430180000       -6.77064129670000       -5.45377125420000
O            1.59053594140000        4.57122894110000       -6.72099364070000
H            1.96639412020000        5.19658621190000       -6.08922034140000
H            2.34624602240000        4.06112932730000       -7.04815446370000
O            4.64082515110000        4.19571444010000       -1.78908858690000
H            4.60017925200000        3.61709646510000       -2.56197064150000
H            4.98072012120000        3.68219701130000       -1.03438939890000
O            2.60078826320000       -2.35952754130000       -3.31128188880000
H            2.62238895000000       -3.28497503160000       -2.99325650600000
H            2.17716803650000       -1.83616153700000       -2.59594174820000
O           -1.98228894080000        1.82504089400000       -3.30865276640000
H           -1.24380693570000        1.18491772910000       -3.30022686660000
H           -1.63250917550000        2.64282462270000       -2.91924299730000
O           -1.72584706950000       -3.35218431660000       -5.68425000650000
H           -1.03771342170000       -3.97663294190000       -5.97900039150000
H           -1.39532058320000       -2.90518948920000       -4.88559702430000
O            5.50102799690000        5.61180715550000        1.37870038980000
H            4.66855372280000        5.14296717740000        1.18818196840000
H            5.22990673440000        6.41658564790000        1.85033747630000
O           -3.28574581980000        6.23684842470000       -4.77612902560000
H           -2.51599001290000        6.03112171010000       -5.32993228870000
H           -3.93876822470000        5.55691437560000       -5.01514165040000
O            4.67229388650000        0.31453558880000        2.71838420400000
H            5.54653461650000        0.73382953800000        2.63956001420000
H            4.17391267960000        0.76288734650000        3.42456844210000
O           -2.47764977210000        3.61877037790000        5.63172763920000
H           -3.33511266950000        3.56512810030000        6.07175321210000
H           -2.50629704220000        2.88654257410000        4.97223334290000
O            4.11510117300000        3.39464408930000        6.34207036040000
H            4.10402930270000        4.26312725490000        5.91966429510000
H            4.99946434820000        3.02623939890000        6.13933224080000
O            0.08980801880000        0.14744637460000       -3.03417149740000
H            0.71998690410000       -0.07686296830000       -2.33665397760000
H           -0.28949835520000       -0.69845513380000       -3.29863622600000
O           -1.04605532920000        0.07820535260000       -5.79878847750000
H           -0.78006899810000        0.99948324430000       -5.94115534550000
H           -1.47346039910000       -0.27952234410000       -6.61168240710000
O           -1.32028787160000        4.23425994330000       -2.18811609010000
H           -1.65554097560000        4.33813506940000       -1.27911650930000
H           -1.05847265320000        5.12404761380000       -2.48374736820000
O           -0.19585900440000       -5.31039938360000       -1.23590934720000
H           -0.06209343500000       -6.19523100000000       -0.84973704720000
H            0.33056775890000       -4.67237680580000       -0.71595140280000
O            5.43549575100000       -4.46473625140000        3.90561130010000
H            6.01154660160000       -4.20168547120000        4.62790748280000
H            4.94895770730000       -3.64508180740000        3.67001888340000
O            2.32696542530000       -7.41140921570000        0.00854893990000
H            2.26216912700000       -7.39126984090000       -0.96260967270000
H            3.16900256240000       -6.97055175300000        0.21189191720000
O           -7.03034872480000        3.75446626820000        3.40414929750000
H           -6.44727100840000        3.17061808300000        2.86651308030000
H           -7.34440484180000        3.22349769000000        4.15247323660000
O            8.47638337690000        3.77460678540000        4.49303973080000
H            8.10667214000000        3.89007017030000        3.58007459240000
H            9.05061345210000        4.52166744420000        4.65364185940000
O            9.92580559030000        4.71638385160000       -1.71299833400000
H            9.12735719150000        4.16758652970000       -1.64889765390000
H           10.62421108620000        4.15066052570000       -2.05150242760000
O            9.90339872400000        4.17190713360000        0.96840182300000
H           10.10544183520000        3.25017022980000        0.73584248020000
H            9.95725599370000        4.66165705390000        0.12872010660000
O           -2.82084272280000       -0.45117186720000       -1.53482689960000
H           -2.82431482710000       -0.68416428030000       -2.48507251570000
H           -3.69361894430000       -0.67067134040000       -1.18016006130000
O            3.82704558450000        3.03620036570000       -6.88446923490000
H            4.58238733980000        3.63355332690000       -6.84063504040000
H            4.16322949550000        2.14785779610000       -7.05150878550000
O           -3.47935824990000       -1.01435280540000        5.33848393130000
H           -4.23061323120000       -0.52015347410000        4.99275242280000
H           -2.90975620020000       -0.37016295620000        5.79001365690000
O           -7.77549581770000        0.03628694340000       -1.83717851450000
H           -8.18770144650000       -0.81897260730000       -1.63536874680000
H           -7.60376265630000        0.03294092040000       -2.80181097710000
O           -7.66590772070000       -0.07001189570000       -4.50441212040000
H           -6.98876777680000        0.44170422680000       -5.00341276930000
H           -8.51399456900000        0.31182469900000       -4.74398586340000
O            6.98436699440000       -4.81634259690000        1.71733994220000
H            7.82659011720000       -4.55834574950000        2.11251760240000
H            6.34839151440000       -4.75316367210000        2.45781338910000
O            8.44045742770000       -2.70346042300000       -3.81771381760000
H            8.64009968280000       -3.12976138400000       -2.95902038000000
H            7.70331034280000       -3.21647129020000       -4.19845380860000
O           -5.17173954370000        3.22086950330000        6.05979766600000
H           -5.25957913370000        2.39321919080000        5.53361112900000
H           -6.03720201280000        3.35325238330000        6.45006398660000
O            1.54684378530000        6.71210593230000        2.53511336830000
H            1.27129374490000        6.18460891290000        3.30452809300000
H            0.76343877830000        7.00278528880000        2.04167300750000
O           -8.41287014870000        4.53454957890000        1.23866914680000
H           -7.90966762510000        5.34130814740000        0.98127344820000
H           -8.06575355500000        4.31605302370000        2.12662651140000
O           -3.12495803210000        4.08529610790000        2.48813443400000
H           -2.24634529760000        3.90217861360000        2.87161145010000
H           -3.64803172540000        4.60135501920000        3.13505917190000
O            4.12255252340000        7.67801994000000        2.50555947790000
H            4.15511883100000        8.17063804610000        1.67716974910000
H            3.18506532170000        7.43713618920000        2.60455763410000
O            0.43356124130000       -3.13768689770000        3.58132721780000
H           -0.07435726470000       -3.65579206960000        4.22072156730000
H            0.81387889400000       -2.36410530380000        4.05176281660000
O            7.10304895480000       -2.48642479210000        0.13306923560000
H            7.83164132700000       -2.02951025460000        0.61361956600000
H            6.71435462990000       -3.13923844950000        0.74160750960000
O           -2.19642578950000       -1.44473695910000       -7.58874299520000
H           -3.12830126610000       -1.26493190210000       -7.39411509640000
H           -1.99420044450000       -2.21261408210000       -7.02196225060000
O           -9.80823434510000        1.51755891520000        3.43020616270000
H          -10.38463631200000        0.75234943970000        3.48099086500000
H          -10.08369279210000        2.01756906690000        2.63252801460000
O            2.55835989840000        0.69746287540000       -4.88350619900000
H            3.33617740650000        0.61120910670000       -5.47256911530000
H            2.04571359370000       -0.13024373650000       -4.97243248230000
O           -1.12768204960000        5.07454166100000       -5.98866394940000
H           -1.55902061810000        4.18559034280000       -5.96154542620000
H           -0.43119189370000        5.01801037750000       -6.64906670940000
O            7.10625247790000       -0.16992861000000        5.26548685060000
H            6.59140336480000        0.66095132850000        5.29214570110000
H            8.00432625520000        0.13238144950000        5.04104527290000
O            3.53122718580000       -0.61374597580000        6.71085914350000
H            3.36249205850000       -0.09858487570000        7.50137059530000
H            3.45612453960000        0.01667339320000        5.96142913300000
O            2.67748402580000       -5.09211567270000       -5.19493533930000
H            2.58125291040000       -4.44634414090000       -5.89768620660000
H            1.91877231690000       -4.96665677060000       -4.58862815110000
O            5.58576232900000        5.00344556910000       -5.57895767090000
H            4.77360823990000        5.46202141880000       -5.32977198230000
H            6.23410478330000        5.23017549330000       -4.89020867480000
O            2.98925933960000       -4.65450182310000       -2.08157805090000
H            3.95859133420000       -4.59804863090000       -1.94848480290000
H            2.76919177890000       -5.56591710910000       -2.35657838160000
O            4.16527894350000       -2.10010972200000        3.81442933640000
H            4.53250678940000       -1.35556634040000        3.30078649640000
H            4.65475429530000       -2.10892658330000        4.66628169150000
O           -0.42454800060000       -7.79175588160000       -0.26359292660000
H            0.41657725420000       -8.21602937930000       -0.07785086310000
H           -0.85657486400000       -7.61674119110000        0.59745297960000
O            1.80572390040000       -1.01806513510000        4.34006946140000
H            1.80253769920000       -0.38102155410000        3.60935548780000
H            2.66830547530000       -1.48218749500000        4.24901036060000
O            9.05164285500000       -0.92692081920000        0.92918888900000
H            9.57693896690000       -1.03099028290000        1.74887084720000
H            9.67447315540000       -1.02188354330000        0.19719010800000
O           -7.98767064140000        2.14644226620000        5.49223036710000
H           -7.76034441270000        1.29538134400000        5.88172046500000
H           -8.79472808510000        1.99883120530000        4.98073860910000
O           -2.99742083600000       -3.20550431040000        6.77020581950000
H           -3.33762296490000       -2.47738348220000        6.20670972540000
H           -3.71525356810000       -3.43295048350000        7.36007818880000
O          -10.11065421740000        1.64188380080000       -4.30318955420000
H          -10.73053834480000        2.12945192710000       -4.84414614150000
H           -9.23904443710000        2.13907090480000       -4.34773718070000
O           -0.43281747170000       -2.56178664680000       -3.37678920000000
H           -0.57880462290000       -2.48529712830000       -2.40768850970000
H           -0.03807596890000       -3.45490510970000       -3.50152446650000
O            4.23016375560000        5.46242518080000        4.45435075530000
H            4.39174003890000        6.31116026170000        4.03188793460000
H            4.56781800180000        4.77697454790000        3.84074726530000
O           -8.78584338700000        4.26823262030000       -1.69135692130000
H           -8.75420271800000        4.64741049650000       -0.81023230650000
H           -9.16561192620000        3.37953580450000       -1.60615609830000
O           -4.27964281940000       -3.38995305100000        0.49799624210000
H           -3.83297954330000       -3.94155370180000       -0.16067004480000
H           -5.12149144020000       -3.09461255700000        0.09320844380000
O           -6.35048628350000        2.49849423970000       -2.13254623370000
H           -5.96465228510000        3.31562569740000       -1.76739426640000
H           -6.88991309870000        2.16210659120000       -1.39419005680000
O            0.14993341250000        3.41038120490000        6.45059039670000
H            0.63457834220000        4.04660673080000        5.89059702320000
H           -0.79953379040000        3.52837570270000        6.27970386870000
O            4.58907527660000       -5.89356322720000        0.29999421370000
H            5.31096957130000       -6.10147192560000        0.89655128270000
H            4.52310330440000       -4.91500770230000        0.32529785520000
O            5.58252957600000       -4.11641995590000       -1.81551760140000
H            5.63698324440000       -3.29544622230000       -1.31031300840000
H            5.80673998420000       -3.90204076410000       -2.75088474950000
O           -7.48660635000000       -4.61554033870000        4.30968466240000
H           -7.19652538900000       -5.53737646540000        4.47252642640000
H           -7.22615032590000       -4.46195299470000        3.38647303750000
O           -0.52921490670000        7.22950350570000        0.71247850140000
H            0.01708597300000        7.47837959870000       -0.06598965850000
H           -0.45043407740000        6.24469457280000        0.69853410480000
O           -8.07467713360000       -4.29495659000000       -2.00200253010000
H           -8.21081763910000       -3.68097743350000       -2.76276629400000
H           -8.94432800430000       -4.59323552380000       -1.73831566810000
O          -11.59616333530000       -0.44597463430000       -1.16421854410000
H          -11.96362498550000       -0.40505655450000       -0.26729231900000
H          -11.07317519560000        0.37542290110000       -1.26397467200000
O          -10.01472285770000       -1.96660435680000        2.44809769850000
H          -10.76272745510000       -1.41227546490000        2.19412730250000
H           -9.20161585870000       -1.52272438850000        2.12183618040000
O           -8.78498120730000       -2.20104102420000        4.88351761890000
H           -9.34904802600000       -2.09658925100000        4.10344633300000
H           -8.43840763720000       -3.10278762810000        4.82787222220000
O           -3.75610669000000       -5.47222613780000        2.25536344670000
H           -3.86280397040000       -5.27026213740000        3.20905828940000
H           -3.92052582440000       -4.66940977460000        1.73074609470000
O           -4.55546769090000       -1.16865117840000       -6.22659458970000
H           -5.04091433170000       -0.33356656940000       -6.26260567590000
H           -5.18501072100000       -1.87370385710000       -6.00041321500000
O            8.48700647280000        0.89663533140000       -5.69831281900000
H            8.52982280460000        1.67031618850000       -5.09110071240000
H            8.05071944880000        1.21394890190000       -6.48912515730000
O           -1.47254700340000       -6.59937942120000       -4.75049341980000
H           -1.75573249530000       -7.11659845480000       -3.97952804780000
H           -2.26789503920000       -6.21731520230000       -5.13776549630000
O           -5.05453315310000       -2.55882723590000        3.13220372260000
H           -5.39826990970000       -3.24411627080000        2.53846782350000
H           -4.08931802570000       -2.73001829490000        3.23315554400000
O           11.16013926000000        2.18933520910000       -2.64557297930000
H           11.57446146080000        1.46006539580000       -3.10848255130000
H           10.33829282610000        2.39200674820000       -3.14219574090000
O           -2.25062370600000       -7.71352700160000       -2.34979007200000
H           -1.46088020370000       -7.74295048410000       -1.78537740260000
H           -2.91437074200000       -8.18284876550000       -1.82679241010000
O           -5.71500226810000        1.27592812400000       -5.72140278010000
H           -5.81974863050000        2.23184486760000       -5.80384106470000
H           -5.19863590360000        1.14832735930000       -4.88729603640000
O            0.95375545930000        7.24657213240000       -1.49478377790000
H            0.28654613980000        7.27635254430000       -2.19294552640000
H            1.31322617150000        6.33684638200000       -1.54288206250000
O            1.57397544730000       -3.57128830480000       -0.13920587780000
H            2.17533468470000       -3.96264335610000       -0.80863144310000
H            2.02647201550000       -3.64455401730000        0.70720870650000
O            0.14201248400000        4.72247564450000        0.74922165050000
H           -0.03900213560000        4.34777407880000        1.63049284870000
H            0.08648616410000        4.01014024390000        0.09708537150000
O            2.05349809300000       -3.03596920940000       -7.17798852260000
H            1.61493696910000       -2.40271883040000       -6.53826838560000