      -----------------------------------------------------------      
     |                   =====================                   |     
     |                           x T B                           |     
     |                   =====================                   |     
     |                         S. Grimme                         |     
     |          Mulliken Center for Theoretical Chemistry        |     
     |                    University of Bonn                     |     
      -----------------------------------------------------------      

   * xtb version 6.5.1 (579679a) compiled by 'ehlert@majestix' on 2022-07-11

   xtb is free software: you can redistribute it and/or modify it under
   the terms of the GNU Lesser General Public License as published by
   the Free Software Foundation, either version 3 of the License, or
   (at your option) any later version.
   
   xtb is distributed in the hope that it will be useful,
   but WITHOUT ANY WARRANTY; without even the implied warranty of
   MERCHANTABILITY or FITNESS FOR A PARTICULAR PURPOSE.  See the
   GNU Lesser General Public License for more details.
   
   Cite this work as:
   * C. Bannwarth, E. Caldeweyher, S. Ehlert, A. Hansen, P. Pracht,
     J. Seibert, S. Spicher, S. Grimme, WIREs Comput. Mol. Sci., 2020, 11,
     e01493. DOI: 10.1002/wcms.1493
   
   for GFN2-xTB:
   * C. Bannwarth, S. Ehlert and S. Grimme., J. Chem. Theory Comput., 2019,
     15, 1652-1671. DOI: 10.1021/acs.jctc.8b01176
   for GFN1-xTB:
   * S. Grimme, C. Bannwarth, P. Shushkov, J. Chem. Theory Comput., 2017,
     13, 1989-2009. DOI: 10.1021/acs.jctc.7b00118
   for GFN0-xTB:
   * P. Pracht, E. Caldeweyher, S. Ehlert, S. Grimme, ChemRxiv, 2019, preprint.
     DOI: 10.26434/chemrxiv.8326202.v1
   for GFN-FF:
   * S. Spicher and S. Grimme, Angew. Chem. Int. Ed., 2020, 59, 15665-15673.
     DOI: 10.1002/anie.202004239
   
   for ALPB and GBSA implicit solvation:
   * S. Ehlert, M. Stahn, S. Spicher, S. Grimme, J. Chem. Theory Comput.,
     2021, 17, 4250-4261. DOI: 10.1021/acs.jctc.1c00471
   
   for DFT-D4:
   * E. Caldeweyher, C. Bannwarth and S. Grimme, J. Chem. Phys., 2017,
     147, 034112. DOI: 10.1063/1.4993215
   * E. Caldeweyher, S. Ehlert, A. Hansen, H. Neugebauer, S. Spicher,
     C. Bannwarth and S. Grimme, J. Chem. Phys., 2019, 150, 154122.
     DOI: 10.1063/1.5090222
   * E. Caldeweyher, J.-M. Mewes, S. Ehlert and S. Grimme, Phys. Chem. Chem. Phys.
     2020, 22, 8499-8512. DOI: 10.1039/D0CP00502A
   
   for sTDA-xTB:
   * S. Grimme and C. Bannwarth, J. Chem. Phys., 2016, 145, 054103.
     DOI: 10.1063/1.4959605
   
   in the mass-spec context:
   * V. Asgeirsson, C. Bauer and S. Grimme, Chem. Sci., 2017, 8, 4879.
     DOI: 10.1039/c7sc00601b
   * J. Koopman and S. Grimme, ACS Omega 2019, 4, 12, 15120-15133.
     DOI: 10.1021/acsomega.9b02011
   
   for metadynamics refer to:
   * S. Grimme, J. Chem. Theory Comput., 2019, 155, 2847-2862
     DOI: 10.1021/acs.jctc.9b00143
   
   for SPH calculations refer to:
   * S. Spicher and S. Grimme, J. Chem. Theory Comput., 2021, 17, 1701-1714
     DOI: 10.1021/acs.jctc.0c01306
   
   with help from (in alphabetical order)
   P. Atkinson, C. Bannwarth, F. Bohle, G. Brandenburg, E. Caldeweyher
   M. Checinski, S. Dohm, S. Ehlert, S. Ehrlich, I. Gerasimov, C. Hölzer
   A. Katbashev, J. Koopman, C. Lavigne, S. Lehtola, F. März, M. Müller,
   F. Musil, H. Neugebauer, J. Pisarek, C. Plett, P. Pracht, F. Pultar,
   J. Seibert, P. Shushkov, S. Spicher, M. Stahn, M. Steiner, T. Strunk,
   J. Stückrath, T. Rose, and J. Unsleber
   
 * started run on 2022/11/24 at 12:04:44.001     

           -------------------------------------------------
          |                Calculation Setup                |
           -------------------------------------------------

          program call               : xtb solvent_cluster.coord --gfn2 --input xcontrol --opt 1
          hostname                   : cn0430
          coordinate file            : solvent_cluster.coord
          omp threads                :                     2

   ID    Z sym.   atoms
    1    8 o      1, 4, 7, 10, 13, 16, 19, 22, 25, 28, 31, 34, 37, 40, 43,
                  46, 49, 52, 55, 58, 61, 64, 67, 70, 73, 76, 79, 82, 85, 88,
                  91, 94, 97, 100, 103, 106, 109, 112, 115, 118, 121, 124,
                  127, 130, 133, 136, 139, 142, 145, 148, 151, 154, 157, 160,
                  163, 166, 169, 172, 175, 178, 181, 184, 187, 190, 193, 196,
                  199, 202, 205, 208, 211, 214, 217, 220, 223, 226, 229, 232,
                  235, 238, 241, 244, 247, 250, 253, 256, 259, 262, 265, 268,
                  271, 274, 277, 280, 283, 286, 289, 292, 295, 298, 301, 304,
                  307, 310, 313, 316, 319, 322, 325, 328, 331, 334, 337, 340,
                  343, 346, 349, 352, 355, 358, 361, 364, 367, 370, 373, 376,
                  379, 382, 385, 388, 391, 394, 397, 400, 403, 406, 409, 412,
                  415, 418, 421, 424, 427, 430, 433, 436, 439, 442, 445, 448,
                  451, 454, 457, 460, 463, 466, 469, 472, 475, 478, 481, 484,
                  487, 490, 493, 496, 499, 502, 505, 508, 511, 514, 517, 520,
                  523, 526, 529, 532, 535, 538, 541, 544, 547, 550, 553, 556,
                  559, 562, 565, 568, 571, 574, 577, 580, 583, 586, 589, 592,
                  595, 598, 601, 604, 607, 610, 613, 616, 619, 622, 625, 628,
                  631, 634, 637, 640, 643, 646, 649, 652, 655, 658, 661, 664,
                  667, 670, 673, 676, 679, 682, 685, 688, 691, 694, 697, 700,
                  703, 706, 709, 712, 715, 718, 721, 724, 727, 730, 733, 736,
                  739, 742, 745, 748, 751, 754
    2    1 h      2, 3, 5, 6, 8, 9, 11, 12, 14, 15, 17, 18, 20, 21, 23, 24,
                  26, 27, 29, 30, 32, 33, 35, 36, 38, 39, 41, 42, 44, 45, 47,
                  48, 50, 51, 53, 54, 56, 57, 59, 60, 62, 63, 65, 66, 68, 69,
                  71, 72, 74, 75, 77, 78, 80, 81, 83, 84, 86, 87, 89, 90, 92,
                  93, 95, 96, 98, 99, 101, 102, 104, 105, 107, 108, 110, 111,
                  113, 114, 116, 117, 119, 120, 122, 123, 125, 126, 128, 129,
                  131, 132, 134, 135, 137, 138, 140, 141, 143, 144, 146, 147,
                  149, 150, 152, 153, 155, 156, 158, 159, 161, 162, 164, 165,
                  167, 168, 170, 171, 173, 174, 176, 177, 179, 180, 182, 183,
                  185, 186, 188, 189, 191, 192, 194, 195, 197, 198, 200, 201,
                  203, 204, 206, 207, 209, 210, 212, 213, 215, 216, 218, 219,
                  221, 222, 224, 225, 227, 228, 230, 231, 233, 234, 236, 237,
                  239, 240, 242, 243, 245, 246, 248, 249, 251, 252, 254, 255,
                  257, 258, 260, 261, 263, 264, 266, 267, 269, 270, 272, 273,
                  275, 276, 278, 279, 281, 282, 284, 285, 287, 288, 290, 291,
                  293, 294, 296, 297, 299, 300, 302, 303, 305, 306, 308, 309,
                  311, 312, 314, 315, 317, 318, 320, 321, 323, 324, 326, 327,
                  329, 330, 332, 333, 335, 336, 338, 339, 341, 342, 344, 345,
                  347, 348, 350, 351, 353, 354, 356, 357, 359, 360, 362, 363,
                  365, 366, 368, 369, 371, 372, 374, 375, 377, 378, 380, 381,
                  383, 384, 386, 387, 389, 390, 392, 393, 395, 396, 398, 399,
                  401, 402, 404, 405, 407, 408, 410, 411, 413, 414, 416, 417,
                  419, 420, 422, 423, 425, 426, 428, 429, 431, 432, 434, 435,
                  437, 438, 440, 441, 443, 444, 446, 447, 449, 450, 452, 453,
                  455, 456, 458, 459, 461, 462, 464, 465, 467, 468, 470, 471,
                  473, 474, 476, 477, 479, 480, 482, 483, 485, 486, 488, 489,
                  491, 492, 494, 495, 497, 498, 500, 501, 503, 504, 506, 507,
                  509, 510, 512, 513, 515, 516, 518, 519, 521, 522, 524, 525,
                  527, 528, 530, 531, 533, 534, 536, 537, 539, 540, 542, 543,
                  545, 546, 548, 549, 551, 552, 554, 555, 557, 558, 560, 561,
                  563, 564, 566, 567, 569, 570, 572, 573, 575, 576, 578, 579,
                  581, 582, 584, 585, 587, 588, 590, 591, 593, 594, 596, 597,
                  599, 600, 602, 603, 605, 606, 608, 609, 611, 612, 614, 615,
                  617, 618, 620, 621, 623, 624, 626, 627, 629, 630, 632, 633,
                  635, 636, 638, 639, 641, 642, 644, 645, 647, 648, 650, 651,
                  653, 654, 656, 657, 659, 660, 662, 663, 665, 666, 668, 669,
                  671, 672, 674, 675, 677, 678, 680, 681, 683, 684, 686, 687,
                  689, 690, 692, 693, 695, 696, 698, 699, 701, 702, 704, 705,
                  707, 708, 710, 711, 713, 714, 716, 717, 719, 720, 722, 723,
                  725, 726, 728, 729, 731, 732, 734, 735, 737, 738, 740, 741,
                  743, 744, 746, 747, 749, 750, 752, 753, 755, 756

molecular fragmentation (1/2 indicates fragments):
111222222222222222222222222222222222222222222222222222222222222222222222
222222222222222222222222222222222222222222222222222222222222222222222222
222222222222222222222222222222222222222222222222222222222222222222222222
222222222222222222222222222222222222222222222222222222222222222222222222
222222222222222222222222222222222222222222222222222222222222222222222222
222222222222222222222222222222222222222222222222222222222222222222222222
222222222222222222222222222222222222222222222222222222222222222222222222
222222222222222222222222222222222222222222222222222222222222222222222222
222222222222222222222222222222222222222222222222222222222222222222222222
222222222222222222222222222222222222222222222222222222222222222222222222
222222222222222222222222222222222222
# atoms in fragment 1/2:     3   753
 fragment masses (1/2) :       18.02     4521.84
CMA distance (Bohr)    :  18.025
constraining FC (au)   :  0.0500

           -------------------------------------------------
          |                 G F N 2 - x T B                 |
           -------------------------------------------------

        Reference                      10.1021/acs.jctc.8b01176
      * Hamiltonian:
        H0-scaling (s, p, d)           1.850000    2.230000    2.230000
        zeta-weighting                 0.500000
      * Dispersion:
        s8                             2.700000
        a1                             0.520000
        a2                             5.000000
        s9                             5.000000
      * Repulsion:
        kExp                           1.500000    1.000000
        rExp                           1.000000
      * Coulomb:
        alpha                          2.000000
        third order                    shell-resolved
        anisotropic                    true
        a3                             3.000000
        a5                             4.000000
        cn-shift                       1.200000
        cn-exp                         4.000000
        max-rad                        5.000000


          ...................................................
          :                      SETUP                      :
          :.................................................:
          :  # basis functions                1512          :
          :  # atomic orbitals                1512          :
          :  # shells                         1008          :
          :  # electrons                      2016          :
          :  max. iterations                   250          :
          :  Hamiltonian                  GFN2-xTB          :
          :  restarted?                      false          :
          :  GBSA solvation                  false          :
          :  PC potential                    false          :
          :  electronic temp.          300.0000000     K    :
          :  accuracy                    1.0000000          :
          :  -> integral cutoff          0.2500000E+02      :
          :  -> integral neglect         0.1000000E-07      :
          :  -> SCF convergence          0.1000000E-05 Eh   :
          :  -> wf. convergence          0.1000000E-03 e    :
          :  Broyden damping             0.4000000          :
          ...................................................

 iter      E             dE          RMSdq      gap      omega  full diag
   1  -1290.9176289 -0.129092E+04  0.407E+00    8.52       0.0  T
   2  -1290.9990402 -0.814114E-01  0.241E+00    7.36       1.0  T
   3  -1291.0307319 -0.316917E-01  0.213E-01    5.63       1.0  T
   4  -1291.0363963 -0.566438E-02  0.470E-02    6.18       1.0  T
   5  -1291.0364808 -0.845244E-04  0.312E-02    6.09       1.0  T
   6  -1291.0365227 -0.418084E-04  0.481E-03    6.13       1.0  T
   7  -1291.0365258 -0.311001E-05  0.757E-04    6.13       4.8  T
   8  -1291.0365258 -0.309560E-07  0.388E-04    6.13       9.4  T
   9  -1291.0365258 -0.145392E-07  0.658E-05    6.13      55.3  T

   *** convergence criteria satisfied after 9 iterations ***

         #    Occupation            Energy/Eh            Energy/eV
      -------------------------------------------------------------
         1        2.0000           -0.6861750             -18.6718
       ...           ...                  ...                  ...
      1002        2.0000           -0.3398315              -9.2473
      1003        2.0000           -0.3382420              -9.2040
      1004        2.0000           -0.3367286              -9.1629
      1005        2.0000           -0.3297449              -8.9728
      1006        2.0000           -0.3272934              -8.9061
      1007        2.0000           -0.3165017              -8.6124
      1008        2.0000           -0.3096329              -8.4255 (HOMO)
      1009                         -0.0844954              -2.2992 (LUMO)
      1010                         -0.0720117              -1.9595
      1011                         -0.0641864              -1.7466
      1012                         -0.0545973              -1.4857
      1013                         -0.0537035              -1.4613
       ...                                ...                  ...
      1512                          0.4810591              13.0903
      -------------------------------------------------------------
                  HL-Gap            0.2251375 Eh            6.1263 eV
             Fermi-level           -0.1970642 Eh           -5.3624 eV

 SCC (total)                   0 d,  0 h,  0 min, 21.679 sec
 SCC setup                      ...        0 min,  0.042 sec (  0.195%)
 Dispersion                     ...        0 min,  0.118 sec (  0.543%)
 classical contributions        ...        0 min,  0.023 sec (  0.108%)
 integral evaluation            ...        0 min,  0.616 sec (  2.842%)
 iterations                     ...        0 min,  8.316 sec ( 38.361%)
 molecular gradient             ...        0 min, 12.491 sec ( 57.617%)
 printout                       ...        0 min,  0.072 sec (  0.334%)

         :::::::::::::::::::::::::::::::::::::::::::::::::::::
         ::                     SUMMARY                     ::
         :::::::::::::::::::::::::::::::::::::::::::::::::::::
         :: total energy           -1283.263344119591 Eh    ::
         :: gradient norm              0.105234574671 Eh/a0 ::
         :: HOMO-LUMO gap              6.126304116677 eV    ::
         ::.................................................::
         :: SCC energy             -1291.036525809451 Eh    ::
         :: -> isotropic ES            7.168424052970 Eh    ::
         :: -> anisotropic ES         -1.602350509134 Eh    ::
         :: -> anisotropic XC         -0.129489520567 Eh    ::
         :: -> dispersion             -0.787068689630 Eh    ::
         :: repulsion energy           7.620674235774 Eh    ::
         :: add. restraining           0.000000000000 Eh    ::
         :: total charge               0.000000000000 e     ::
         :::::::::::::::::::::::::::::::::::::::::::::::::::::

      ----------------------------------------------------------- 
     |                       L-ANC optimizer                     |
      ----------------------------------------------------------- 
          low memory version by Sebastian Ehlert

          ...................................................
          :                      SETUP                      :
          :.................................................:
          :   energy convergence        0.1000000E-05 Eh    :
          :   grad. convergence         0.8000000E-03 Eh/a0 :
          :   optimization log               true           :
          :   writing optlog all                1     steps :
          :   Hessian reset                    20     steps :
          :   maximium step len.        1.0000000     a0    :
          :   LBFGS images                     20           :
          ...................................................
 * calculating model hessian...
Using Lindh-Hessian (1995)
 Shifting diagonal of input Hessian by   1.000009381450639E-002
 Lowest  eigenvalues of input Hessian
    0.010000    0.010000   -0.000000   -0.000000   -0.000000   -0.000000
   -0.000000   -0.000000   -0.000000   -0.000000   -0.000000   -0.000000
   -0.000000   -0.000000   -0.000000   -0.000000   -0.000000   -0.000000
 Highest eigenvalues
    0.316794    0.321432    1.232081    1.238159    1.429028    1.448548
 

........................................................................
.............................. CYCLE    1 ..............................
........................................................................
   1  -1291.0359795 -0.129104E+04  0.312E-02    6.10       0.0  T
   2  -1291.0360089 -0.294638E-04  0.190E-02    6.10       1.0  T
   3  -1291.0360157 -0.670899E-05  0.303E-03    6.09       1.2  T
   4  -1291.0360166 -0.971190E-06  0.611E-04    6.09       6.0  T
   5  -1291.0360166 -0.758723E-08  0.859E-05    6.09      42.3  T
     SCC iter.                  ...        0 min,  3.863 sec
     gradient                   ...        0 min, 12.329 sec
 * total energy  : -1283.2680537 Eh     change       -0.4709609E-02 Eh
   gradient norm :     0.0261618 Eh/a0  converged?    E=F G=F D=F
   step length   :     0.5076042 a0

........................................................................
.............................. CYCLE    2 ..............................
........................................................................
   1  -1291.0365837 -0.129104E+04  0.226E-02    6.11       0.0  T
   2  -1291.0366021 -0.183842E-04  0.134E-02    6.11       1.0  T
   3  -1291.0366063 -0.419780E-05  0.249E-03    6.11       1.5  T
   4  -1291.0366069 -0.565527E-06  0.567E-04    6.11       6.4  T
   5  -1291.0366069 -0.890168E-08  0.738E-05    6.11      49.3  T
     SCC iter.                  ...        0 min,  3.794 sec
     gradient                   ...        0 min, 12.491 sec
 * total energy  : -1283.2694297 Eh     change       -0.1375939E-02 Eh
   gradient norm :     0.0200256 Eh/a0  converged?    E=F G=F D=F
   step length   :     0.3918715 a0

........................................................................
.............................. CYCLE    3 ..............................
........................................................................
   1  -1291.0317399 -0.129103E+04  0.232E-02    6.07       0.0  T
   2  -1291.0317479 -0.802324E-05  0.141E-02    6.07       1.0  T
   3  -1291.0317506 -0.266990E-05  0.152E-03    6.07       2.4  T
   4  -1291.0317508 -0.231807E-06  0.423E-04    6.07       8.6  T
   5  -1291.0317508 -0.349496E-08  0.477E-05    6.07      76.3  T
     SCC iter.                  ...        0 min,  3.625 sec
     gradient                   ...        0 min, 12.500 sec
 * total energy  : -1283.2695253 Eh     change       -0.9565103E-04 Eh
   gradient norm :     0.0432978 Eh/a0  converged?    E=F G=F D=F
   step length   :     0.3580244 a0

........................................................................
.............................. CYCLE    4 ..............................
........................................................................
   1  -1291.0419019 -0.129104E+04  0.140E-02    6.07       0.0  T
   2  -1291.0419053 -0.341037E-05  0.832E-03    6.07       1.0  T
   3  -1291.0419064 -0.110747E-05  0.109E-03    6.07       3.4  T
   4  -1291.0419065 -0.962498E-07  0.334E-04    6.07      10.9  T
   5  -1291.0419065 -0.188152E-08  0.291E-05    6.07     124.8  T
     SCC iter.                  ...        0 min,  3.452 sec
     gradient                   ...        0 min, 12.640 sec
 * total energy  : -1283.2708783 Eh     change       -0.1352966E-02 Eh
   gradient norm :     0.0129434 Eh/a0  converged?    E=F G=F D=F
   step length   :     0.1451020 a0

........................................................................
.............................. CYCLE    5 ..............................
........................................................................
   1  -1291.0417490 -0.129104E+04  0.210E-02    6.10       0.0  T
   2  -1291.0417573 -0.830644E-05  0.126E-02    6.10       1.0  T
   3  -1291.0417597 -0.238556E-05  0.158E-03    6.10       2.3  T
   4  -1291.0417600 -0.280991E-06  0.421E-04    6.10       8.6  T
   5  -1291.0417600 -0.535078E-08  0.473E-05    6.10      76.9  T
     SCC iter.                  ...        0 min,  3.410 sec
     gradient                   ...        0 min, 12.692 sec
 * total energy  : -1283.2713522 Eh     change       -0.4739185E-03 Eh
   gradient norm :     0.0237476 Eh/a0  converged?    E=F G=F D=F
   step length   :     0.3526098 a0

........................................................................
.............................. CYCLE    6 ..............................
........................................................................
   1  -1291.0395966 -0.129104E+04  0.210E-02    6.08       0.0  T
   2  -1291.0396010 -0.435783E-05  0.128E-02    6.08       1.0  T
   3  -1291.0396031 -0.210573E-05  0.113E-03    6.08       3.2  T
   4  -1291.0396032 -0.947173E-07  0.361E-04    6.08      10.1  T
   5  -1291.0396032 -0.559544E-08  0.562E-05    6.08      64.8  T
     SCC iter.                  ...        0 min,  3.386 sec
     gradient                   ...        0 min, 12.821 sec
 * total energy  : -1283.2723656 Eh     change       -0.1013404E-02 Eh
   gradient norm :     0.0195043 Eh/a0  converged?    E=F G=F D=F
   step length   :     0.3426951 a0

........................................................................
.............................. CYCLE    7 ..............................
........................................................................
   1  -1291.0441060 -0.129104E+04  0.154E-02    6.04       0.0  T
   2  -1291.0441100 -0.396102E-05  0.938E-03    6.04       1.0  T
   3  -1291.0441113 -0.135591E-05  0.104E-03    6.04       3.5  T
   4  -1291.0441114 -0.106808E-06  0.277E-04    6.04      13.1  T
   5  -1291.0441114 -0.958607E-09  0.259E-05    6.04     140.5  T
     SCC iter.                  ...        0 min,  3.311 sec
     gradient                   ...        0 min, 12.947 sec
 * total energy  : -1283.2726762 Eh     change       -0.3106316E-03 Eh
   gradient norm :     0.0230787 Eh/a0  converged?    E=F G=F D=F
   step length   :     0.2386387 a0

........................................................................
.............................. CYCLE    8 ..............................
........................................................................
   1  -1291.0422401 -0.129104E+04  0.138E-02    6.04       0.0  T
   2  -1291.0422427 -0.261646E-05  0.842E-03    6.04       1.0  T
   3  -1291.0422438 -0.110540E-05  0.896E-04    6.05       4.1  T
   4  -1291.0422439 -0.791226E-07  0.309E-04    6.05      11.8  T
   5  -1291.0422439 -0.422642E-08  0.381E-05    6.05      95.6  T
     SCC iter.                  ...        0 min,  3.251 sec
     gradient                   ...        0 min, 12.980 sec
 * total energy  : -1283.2733084 Eh     change       -0.6321440E-03 Eh
   gradient norm :     0.0157289 Eh/a0  converged?    E=F G=F D=F
   step length   :     0.2763219 a0

........................................................................
.............................. CYCLE    9 ..............................
........................................................................
   1  -1291.0436000 -0.129104E+04  0.128E-02    6.04       0.0  T
   2  -1291.0436033 -0.337986E-05  0.778E-03    6.04       1.0  T
   3  -1291.0436045 -0.120284E-05  0.102E-03    6.04       3.6  T
   4  -1291.0436046 -0.111091E-06  0.326E-04    6.04      11.2  T
   5  -1291.0436047 -0.371369E-08  0.363E-05    6.04     100.1  T
     SCC iter.                  ...        0 min,  3.188 sec
     gradient                   ...        0 min, 13.097 sec
 * total energy  : -1283.2736589 Eh     change       -0.3505274E-03 Eh
   gradient norm :     0.0135699 Eh/a0  converged?    E=F G=F D=F
   step length   :     0.3092127 a0

........................................................................
.............................. CYCLE   10 ..............................
........................................................................
   1  -1291.0370023 -0.129104E+04  0.212E-02    6.03       0.0  T
   2  -1291.0370063 -0.397938E-05  0.128E-02    6.03       1.0  T
   3  -1291.0370075 -0.113551E-05  0.110E-03    6.04       3.3  T
   4  -1291.0370076 -0.141715E-06  0.316E-04    6.04      11.5  T
   5  -1291.0370076 -0.363593E-08  0.480E-05    6.04      75.7  T
     SCC iter.                  ...        0 min,  3.174 sec
     gradient                   ...        0 min, 13.164 sec
 * total energy  : -1283.2735040 Eh     change        0.1549415E-03 Eh
   gradient norm :     0.0288834 Eh/a0  converged?    E=F G=F D=F
   step length   :     0.4404907 a0

........................................................................
.............................. CYCLE   11 ..............................
........................................................................
   1  -1291.0458405 -0.129105E+04  0.124E-02    6.05       0.0  T
   2  -1291.0458420 -0.153011E-05  0.739E-03    6.05       1.0  T
   3  -1291.0458425 -0.552880E-06  0.666E-04    6.05       5.5  T
   4  -1291.0458426 -0.390698E-07  0.212E-04    6.05      17.2  T
     SCC iter.                  ...        0 min,  2.532 sec
     gradient                   ...        0 min, 13.168 sec
 * total energy  : -1283.2739633 Eh     change       -0.4592837E-03 Eh
   gradient norm :     0.0143779 Eh/a0  converged?    E=F G=F D=F
   step length   :     0.1798159 a0

........................................................................
.............................. CYCLE   12 ..............................
........................................................................
   1  -1291.0461609 -0.129105E+04  0.127E-02    6.03       0.0  T
   2  -1291.0461634 -0.251065E-05  0.775E-03    6.03       1.0  T
   3  -1291.0461649 -0.148213E-05  0.922E-04    6.03       3.9  T
   4  -1291.0461649 -0.346768E-07  0.233E-04    6.03      15.6  T
   5  -1291.0461649 -0.379987E-08  0.367E-05    6.03      99.1  T
     SCC iter.                  ...        0 min,  3.147 sec
     gradient                   ...        0 min, 12.803 sec
 * total energy  : -1283.2737003 Eh     change        0.2629679E-03 Eh
   gradient norm :     0.0252023 Eh/a0  converged?    E=F G=F D=F
   step length   :     0.1457231 a0

........................................................................
.............................. CYCLE   13 ..............................
........................................................................
   1  -1291.0445632 -0.129104E+04  0.112E-02    6.04       0.0  T
   2  -1291.0445653 -0.209614E-05  0.674E-03    6.04       1.0  T
   3  -1291.0445662 -0.966154E-06  0.873E-04    6.04       4.2  T
   4  -1291.0445663 -0.581638E-07  0.284E-04    6.04      12.8  T
     SCC iter.                  ...        0 min,  2.552 sec
     gradient                   ...        0 min, 13.232 sec
 * total energy  : -1283.2741615 Eh     change       -0.4612366E-03 Eh
   gradient norm :     0.0057360 Eh/a0  converged?    E=F G=F D=F
   step length   :     0.1516434 a0

........................................................................
.............................. CYCLE   14 ..............................
........................................................................
   1  -1291.0439617 -0.129104E+04  0.893E-03    6.05       0.0  T
   2  -1291.0439630 -0.122480E-05  0.547E-03    6.05       1.0  T
   3  -1291.0439636 -0.589418E-06  0.623E-04    6.05       5.8  T
   4  -1291.0439636 -0.309244E-07  0.203E-04    6.05      17.9  T
     SCC iter.                  ...        0 min,  2.565 sec
     gradient                   ...        0 min, 12.876 sec
 * total energy  : -1283.2741562 Eh     change        0.5289036E-05 Eh
   gradient norm :     0.0149231 Eh/a0  converged?    E=F G=F D=F
   step length   :     0.1388616 a0

........................................................................
.............................. CYCLE   15 ..............................
........................................................................
   1  -1291.0447935 -0.129104E+04  0.299E-03    6.05       0.0  T
   2  -1291.0447937 -0.254331E-06  0.181E-03    6.05       2.0  T
   3  -1291.0447939 -0.108626E-06  0.296E-04    6.05      12.3  T
   4  -1291.0447939 -0.707678E-08  0.919E-05    6.05      39.6  T
     SCC iter.                  ...        0 min,  2.593 sec
     gradient                   ...        0 min, 12.951 sec
 * total energy  : -1283.2742575 Eh     change       -0.1013076E-03 Eh
   gradient norm :     0.0052462 Eh/a0  converged?    E=F G=F D=F
   step length   :     0.0258177 a0

........................................................................
.............................. CYCLE   16 ..............................
........................................................................
   1  -1291.0450288 -0.129105E+04  0.356E-03    6.06       0.0  T
   2  -1291.0450289 -0.821826E-07  0.215E-03    6.05       1.7  T
   3  -1291.0450289 -0.315256E-07  0.158E-04    6.05      23.0  T
   4  -1291.0450289 -0.273280E-08  0.511E-05    6.05      71.2  T
     SCC iter.                  ...        0 min,  2.561 sec
     gradient                   ...        0 min, 13.000 sec
 * total energy  : -1283.2743109 Eh     change       -0.5337466E-04 Eh
   gradient norm :     0.0036970 Eh/a0  converged?    E=F G=F D=F
   step length   :     0.0644058 a0

........................................................................
.............................. CYCLE   17 ..............................
........................................................................
   1  -1291.0454010 -0.129105E+04  0.921E-03    6.07       0.0  T
   2  -1291.0454014 -0.406860E-06  0.561E-03    6.07       1.0  T
   3  -1291.0454016 -0.242641E-06  0.354E-04    6.07      10.3  T
   4  -1291.0454016 -0.744603E-08  0.116E-04    6.07      31.5  T
     SCC iter.                  ...        0 min,  2.578 sec
     gradient                   ...        0 min, 12.983 sec
 * total energy  : -1283.2744128 Eh     change       -0.1019228E-03 Eh
   gradient norm :     0.0044612 Eh/a0  converged?    E=F G=F D=F
   step length   :     0.1502487 a0

........................................................................
.............................. CYCLE   18 ..............................
........................................................................
   1  -1291.0456434 -0.129105E+04  0.944E-03    6.09       0.0  T
   2  -1291.0456440 -0.629528E-06  0.577E-03    6.09       1.0  T
   3  -1291.0456444 -0.332449E-06  0.427E-04    6.09       8.5  T
   4  -1291.0456444 -0.139062E-07  0.146E-04    6.09      24.8  T
     SCC iter.                  ...        0 min,  2.576 sec
     gradient                   ...        0 min, 13.098 sec
 * total energy  : -1283.2744905 Eh     change       -0.7768455E-04 Eh
   gradient norm :     0.0044613 Eh/a0  converged?    E=F G=F D=F
   step length   :     0.1403749 a0

........................................................................
.............................. CYCLE   19 ..............................
........................................................................
   1  -1291.0467191 -0.129105E+04  0.642E-03    6.10       0.0  T
   2  -1291.0467197 -0.582195E-06  0.391E-03    6.10       1.0  T
   3  -1291.0467199 -0.197936E-06  0.415E-04    6.10       8.8  T
   4  -1291.0467199 -0.194029E-07  0.113E-04    6.10      32.1  T
     SCC iter.                  ...        0 min,  2.574 sec
     gradient                   ...        0 min, 13.011 sec
 * total energy  : -1283.2745379 Eh     change       -0.4735360E-04 Eh
   gradient norm :     0.0056391 Eh/a0  converged?    E=F G=F D=F
   step length   :     0.0964766 a0

........................................................................
.............................. CYCLE   20 ..............................
........................................................................
   1  -1291.0435777 -0.129104E+04  0.163E-02    6.13       0.0  T
   2  -1291.0435797 -0.204398E-05  0.996E-03    6.13       1.0  T
   3  -1291.0435809 -0.111070E-05  0.782E-04    6.13       4.7  T
   4  -1291.0435809 -0.398011E-07  0.252E-04    6.13      14.4  T
   5  -1291.0435809 -0.283126E-08  0.332E-05    6.13     109.7  T
     SCC iter.                  ...        0 min,  3.121 sec
     gradient                   ...        0 min, 12.523 sec
 * total energy  : -1283.2744757 Eh     change        0.6213212E-04 Eh
   gradient norm :     0.0136393 Eh/a0  converged?    E=F G=F D=F
   step length   :     0.2424229 a0
 * RMSD in coord.:     0.1180082 a0     energy gain  -0.1113162E-01 Eh
 * calculating model hessian...
Using Lindh-Hessian (1995)
 Shifting diagonal of input Hessian by   1.000004838287992E-002
 Lowest  eigenvalues of input Hessian
    0.010000   -0.000000   -0.000000   -0.000000   -0.000000   -0.000000
   -0.000000   -0.000000   -0.000000   -0.000000   -0.000000   -0.000000
   -0.000000   -0.000000   -0.000000   -0.000000   -0.000000   -0.000000
 Highest eigenvalues
    0.305625    0.315962    1.204430    1.233998    1.400416    1.436769
 

........................................................................
.............................. CYCLE   21 ..............................
........................................................................
   1  -1291.0455894 -0.129105E+04  0.868E-03    6.15       0.0  T
   2  -1291.0455902 -0.788691E-06  0.533E-03    6.15       1.0  T
   3  -1291.0455905 -0.363641E-06  0.456E-04    6.15       8.0  T
   4  -1291.0455905 -0.150942E-07  0.131E-04    6.15      27.7  T
     SCC iter.                  ...        0 min,  2.575 sec
     gradient                   ...        0 min, 13.013 sec
 * total energy  : -1283.2748777 Eh     change       -0.4019217E-03 Eh
   gradient norm :     0.0044053 Eh/a0  converged?    E=F G=F D=F
   step length   :     0.1398407 a0

........................................................................
.............................. CYCLE   22 ..............................
........................................................................
   1  -1291.0472582 -0.129105E+04  0.667E-03    6.18       0.0  T
   2  -1291.0472586 -0.421390E-06  0.406E-03    6.18       1.0  T
   3  -1291.0472588 -0.161775E-06  0.343E-04    6.18      10.6  T
   4  -1291.0472588 -0.112586E-07  0.101E-04    6.18      36.0  T
     SCC iter.                  ...        0 min,  2.558 sec
     gradient                   ...        0 min, 12.920 sec
 * total energy  : -1283.2751598 Eh     change       -0.2820974E-03 Eh
   gradient norm :     0.0045113 Eh/a0  converged?    E=F G=F D=F
   step length   :     0.2093416 a0

........................................................................
.............................. CYCLE   23 ..............................
........................................................................
   1  -1291.0467770 -0.129105E+04  0.143E-02    6.23       0.0  T
   2  -1291.0467798 -0.284428E-05  0.871E-03    6.23       1.0  T
   3  -1291.0467808 -0.933239E-06  0.877E-04    6.23       4.1  T
   4  -1291.0467808 -0.912053E-07  0.242E-04    6.23      15.0  T
     SCC iter.                  ...        0 min,  2.542 sec
     gradient                   ...        0 min, 12.811 sec
 * total energy  : -1283.2755234 Eh     change       -0.3636773E-03 Eh
   gradient norm :     0.0045998 Eh/a0  converged?    E=F G=F D=F
   step length   :     0.4198632 a0

........................................................................
.............................. CYCLE   24 ..............................
........................................................................
   1  -1291.0438920 -0.129104E+04  0.244E-02    6.27       0.0  T
   2  -1291.0439054 -0.133968E-04  0.147E-02    6.27       1.0  T
   3  -1291.0439087 -0.329142E-05  0.199E-03    6.27       1.8  T
   4  -1291.0439091 -0.480650E-06  0.508E-04    6.27       7.2  T
   5  -1291.0439091 -0.104283E-07  0.760E-05    6.27      47.8  T
     SCC iter.                  ...        0 min,  3.163 sec
     gradient                   ...        0 min, 12.672 sec
 * total energy  : -1283.2758518 Eh     change       -0.3283463E-03 Eh
   gradient norm :     0.0160351 Eh/a0  converged?    E=F G=F D=F
   step length   :     0.8411707 a0

........................................................................
.............................. CYCLE   25 ..............................
........................................................................
   1  -1291.0478919 -0.129105E+04  0.961E-03    6.24       0.0  T
   2  -1291.0478934 -0.157035E-05  0.585E-03    6.24       1.0  T
   3  -1291.0478940 -0.588265E-06  0.716E-04    6.24       5.1  T
   4  -1291.0478941 -0.445336E-07  0.190E-04    6.24      19.2  T
     SCC iter.                  ...        0 min,  2.541 sec
     gradient                   ...        0 min, 12.551 sec
 * total energy  : -1283.2759730 Eh     change       -0.1211715E-03 Eh
   gradient norm :     0.0041665 Eh/a0  converged?    E=F G=F D=F
   step length   :     0.1085632 a0

........................................................................
.............................. CYCLE   26 ..............................
........................................................................
   1  -1291.0475307 -0.129105E+04  0.499E-03    6.25       0.0  T
   2  -1291.0475310 -0.263764E-06  0.306E-03    6.25       1.2  T
   3  -1291.0475311 -0.141089E-06  0.280E-04    6.25      13.0  T
   4  -1291.0475311 -0.496766E-08  0.877E-05    6.25      41.5  T
     SCC iter.                  ...        0 min,  2.548 sec
     gradient                   ...        0 min, 12.684 sec
 * total energy  : -1283.2760300 Eh     change       -0.5700303E-04 Eh
   gradient norm :     0.0042703 Eh/a0  converged?    E=F G=F D=F
   step length   :     0.1312220 a0

........................................................................
.............................. CYCLE   27 ..............................
........................................................................
   1  -1291.0470615 -0.129105E+04  0.370E-03    6.26       0.0  T
   2  -1291.0470616 -0.136719E-06  0.225E-03    6.26       1.6  T
   3  -1291.0470617 -0.580123E-07  0.196E-04    6.26      18.6  T
   4  -1291.0470617 -0.358409E-08  0.630E-05    6.26      57.7  T
     SCC iter.                  ...        0 min,  2.543 sec
     gradient                   ...        0 min, 12.459 sec
 * total energy  : -1283.2760596 Eh     change       -0.2962317E-04 Eh
   gradient norm :     0.0040477 Eh/a0  converged?    E=F G=F D=F
   step length   :     0.0931369 a0

........................................................................
.............................. CYCLE   28 ..............................
........................................................................
   1  -1291.0474064 -0.129105E+04  0.161E-03    6.26       0.0  T
   2  -1291.0474064 -0.348948E-07  0.965E-04    6.26       3.8  T
   3  -1291.0474064 -0.910245E-08  0.102E-04    6.26      35.5  T
     SCC iter.                  ...        0 min,  1.877 sec
     gradient                   ...        0 min, 12.538 sec
 * total energy  : -1283.2760733 Eh     change       -0.1370031E-04 Eh
   gradient norm :     0.0022543 Eh/a0  converged?    E=F G=F D=F
   step length   :     0.0428796 a0

........................................................................
.............................. CYCLE   29 ..............................
........................................................................
   1  -1291.0476275 -0.129105E+04  0.217E-03    6.27       0.0  T
   2  -1291.0476276 -0.974883E-07  0.130E-03    6.27       2.8  T
   3  -1291.0476276 -0.172192E-07  0.168E-04    6.26      21.7  T
   4  -1291.0476276 -0.362525E-08  0.320E-05    6.26     113.5  T
     SCC iter.                  ...        0 min,  2.494 sec
     gradient                   ...        0 min, 12.264 sec
 * total energy  : -1283.2760835 Eh     change       -0.1023730E-04 Eh
   gradient norm :     0.0011657 Eh/a0  converged?    E=F G=F D=F
   step length   :     0.0632670 a0

........................................................................
.............................. CYCLE   30 ..............................
........................................................................
   1  -1291.0479586 -0.129105E+04  0.268E-03    6.27       0.0  T
   2  -1291.0479587 -0.122667E-06  0.163E-03    6.27       2.2  T
   3  -1291.0479587 -0.332823E-07  0.180E-04    6.27      20.2  T
   4  -1291.0479587 -0.423233E-08  0.439E-05    6.27      82.8  T
     SCC iter.                  ...        0 min,  2.500 sec
     gradient                   ...        0 min, 12.238 sec
 * total energy  : -1283.2760899 Eh     change       -0.6416996E-05 Eh
   gradient norm :     0.0009055 Eh/a0  converged?    E=F G=F D=F
   step length   :     0.0559989 a0

........................................................................
.............................. CYCLE   31 ..............................
........................................................................
   1  -1291.0476565 -0.129105E+04  0.224E-03    6.27       0.0  T
   2  -1291.0476566 -0.639641E-07  0.137E-03    6.27       2.7  T
   3  -1291.0476566 -0.205428E-07  0.134E-04    6.27      27.1  T
   4  -1291.0476566 -0.226964E-08  0.384E-05    6.27      94.8  T
     SCC iter.                  ...        0 min,  2.502 sec
     gradient                   ...        0 min, 12.228 sec
 * total energy  : -1283.2760934 Eh     change       -0.3484194E-05 Eh
   gradient norm :     0.0014917 Eh/a0  converged?    E=F G=F D=F
   step length   :     0.0426035 a0

........................................................................
.............................. CYCLE   32 ..............................
........................................................................
   1  -1291.0477177 -0.129105E+04  0.648E-04    6.27       0.0  T
   2  -1291.0477177 -0.260925E-07  0.376E-04    6.27       9.7  T
   3  -1291.0477177 -0.389150E-08  0.875E-05    6.27      41.6  T
     SCC iter.                  ...        0 min,  1.903 sec
     gradient                   ...        0 min, 12.210 sec
 * total energy  : -1283.2760979 Eh     change       -0.4459243E-05 Eh
   gradient norm :     0.0009485 Eh/a0  converged?    E=F G=F D=F
   step length   :     0.0302576 a0

........................................................................
.............................. CYCLE   33 ..............................
........................................................................
   1  -1291.0476978 -0.129105E+04  0.202E-03    6.27       0.0  T
   2  -1291.0476978 -0.549426E-07  0.122E-03    6.27       3.0  T
   3  -1291.0476979 -0.159046E-07  0.122E-04    6.27      29.9  T
   4  -1291.0476979 -0.201317E-08  0.352E-05    6.27     103.3  T
     SCC iter.                  ...        0 min,  2.531 sec
     gradient                   ...        0 min, 12.203 sec
 * total energy  : -1283.2761021 Eh     change       -0.4212206E-05 Eh
   gradient norm :     0.0010587 Eh/a0  converged?    E=F G=F D=F
   step length   :     0.0395180 a0

........................................................................
.............................. CYCLE   34 ..............................
........................................................................
   1  -1291.0479576 -0.129105E+04  0.205E-03    6.26       0.0  T
   2  -1291.0479577 -0.626671E-07  0.124E-03    6.26       2.9  T
   3  -1291.0479577 -0.177527E-07  0.133E-04    6.26      27.3  T
   4  -1291.0479577 -0.228897E-08  0.375E-05    6.26      97.0  T
     SCC iter.                  ...        0 min,  2.537 sec
     gradient                   ...        0 min, 12.199 sec
 * total energy  : -1283.2761050 Eh     change       -0.2894956E-05 Eh
   gradient norm :     0.0004611 Eh/a0  converged?    E=F G=T D=F
   step length   :     0.0406953 a0

........................................................................
.............................. CYCLE   35 ..............................
........................................................................
   1  -1291.0478145 -0.129105E+04  0.233E-03    6.26       0.0  T
   2  -1291.0478146 -0.552541E-07  0.142E-03    6.25       2.6  T
   3  -1291.0478146 -0.220605E-07  0.124E-04    6.25      29.4  T
   4  -1291.0478146 -0.168711E-08  0.412E-05    6.25      88.2  T
     SCC iter.                  ...        0 min,  2.533 sec
     gradient                   ...        0 min, 12.168 sec
 * total energy  : -1283.2761069 Eh     change       -0.1878261E-05 Eh
   gradient norm :     0.0007134 Eh/a0  converged?    E=F G=T D=F
   step length   :     0.0406557 a0

........................................................................
.............................. CYCLE   36 ..............................
........................................................................
   1  -1291.0479130 -0.129105E+04  0.521E-04    6.25       0.0  T
   2  -1291.0479130 -0.399746E-08  0.314E-04    6.25      11.6  T
   3  -1291.0479130 -0.957243E-09  0.335E-05    6.25     108.5  T
     SCC iter.                  ...        0 min,  1.910 sec
     gradient                   ...        0 min, 12.153 sec
 * total energy  : -1283.2761082 Eh     change       -0.1292792E-05 Eh
   gradient norm :     0.0004135 Eh/a0  converged?    E=F G=T D=F
   step length   :     0.0157214 a0

........................................................................
.............................. CYCLE   37 ..............................
........................................................................
   1  -1291.0479813 -0.129105E+04  0.921E-04    6.25       0.0  T
   2  -1291.0479813 -0.106629E-07  0.560E-04    6.25       6.5  T
   3  -1291.0479813 -0.477985E-08  0.569E-05    6.25      63.9  T
     SCC iter.                  ...        0 min,  1.920 sec
     gradient                   ...        0 min, 12.157 sec
 * total energy  : -1283.2761093 Eh     change       -0.1148857E-05 Eh
   gradient norm :     0.0005144 Eh/a0  converged?    E=F G=T D=F
   step length   :     0.0281612 a0

........................................................................
.............................. CYCLE   38 ..............................
........................................................................
   1  -1291.0479574 -0.129105E+04  0.881E-04    6.25       0.0  T
   2  -1291.0479574 -0.553996E-08  0.535E-04    6.24       6.8  T
   3  -1291.0479574 -0.304499E-08  0.423E-05    6.24      86.0  T
     SCC iter.                  ...        0 min,  1.918 sec
     gradient                   ...        0 min, 12.215 sec
 * total energy  : -1283.2761105 Eh     change       -0.1208993E-05 Eh
   gradient norm :     0.0004899 Eh/a0  converged?    E=F G=T D=F
   step length   :     0.0264525 a0

........................................................................
.............................. CYCLE   39 ..............................
........................................................................
   1  -1291.0475552 -0.129105E+04  0.750E-03    6.22       0.0  T
   2  -1291.0475556 -0.409261E-06  0.456E-03    6.22       1.0  T
   3  -1291.0475558 -0.224524E-06  0.364E-04    6.22      10.0  T
   4  -1291.0475559 -0.933142E-08  0.124E-04    6.22      29.3  T
     SCC iter.                  ...        0 min,  2.536 sec
     gradient                   ...        0 min, 12.129 sec
 * total energy  : -1283.2761215 Eh     change       -0.1098247E-04 Eh
   gradient norm :     0.0032075 Eh/a0  converged?    E=F G=F D=F
   step length   :     0.2384219 a0

........................................................................
.............................. CYCLE   40 ..............................
........................................................................
   1  -1291.0407526 -0.129104E+04  0.253E-02    6.08       0.0  T
   2  -1291.0407578 -0.520877E-05  0.154E-02    6.06       1.0  T
   3  -1291.0407608 -0.297162E-05  0.131E-03    6.04       2.8  T
   4  -1291.0407609 -0.104695E-06  0.432E-04    6.05       8.4  T
   5  -1291.0407609 -0.955106E-08  0.592E-05    6.05      61.4  T
     SCC iter.                  ...        0 min,  3.162 sec
     gradient                   ...        0 min, 12.119 sec
 * total energy  : -1283.2756669 Eh     change        0.4546472E-03 Eh
   gradient norm :     0.0303147 Eh/a0  converged?    E=F G=F D=F
   step length   :     0.8888953 a0

........................................................................
.............................. CYCLE   41 ..............................
........................................................................
   1  -1291.0476485 -0.129105E+04  0.244E-02    6.17       0.0  T
   2  -1291.0476534 -0.495385E-05  0.149E-02    6.19       1.0  T
   3  -1291.0476561 -0.267262E-05  0.127E-03    6.22       2.9  T
   4  -1291.0476562 -0.103709E-06  0.428E-04    6.22       8.5  T
   5  -1291.0476562 -0.854084E-08  0.550E-05    6.22      66.1  T
     SCC iter.                  ...        0 min,  3.155 sec
     gradient                   ...        0 min, 12.093 sec
 * total energy  : -1283.2761299 Eh     change       -0.4630476E-03 Eh
   gradient norm :     0.0036103 Eh/a0  converged?    E=F G=F D=F
   step length   :     0.8244084 a0

........................................................................
.............................. CYCLE   42 ..............................
........................................................................
   1  -1291.0476164 -0.129105E+04  0.596E-04    6.21       0.0  T
   2  -1291.0476164 -0.701448E-08  0.358E-04    6.21      10.2  T
   3  -1291.0476164 -0.207251E-08  0.446E-05    6.21      81.6  T
     SCC iter.                  ...        0 min,  1.872 sec
     gradient                   ...        0 min, 12.171 sec
 * total energy  : -1283.2761378 Eh     change       -0.7909061E-05 Eh
   gradient norm :     0.0034773 Eh/a0  converged?    E=F G=F D=F
   step length   :     0.0326099 a0
 * RMSD in coord.:     0.0695681 a0     energy gain  -0.1662066E-02 Eh
 * calculating model hessian...
Using Lindh-Hessian (1995)
 Shifting diagonal of input Hessian by   1.000017355495174E-002
 Lowest  eigenvalues of input Hessian
    0.010000    0.010000   -0.000000   -0.000000   -0.000000   -0.000000
   -0.000000   -0.000000   -0.000000   -0.000000   -0.000000   -0.000000
   -0.000000   -0.000000   -0.000000   -0.000000   -0.000000   -0.000000
 Highest eigenvalues
    0.303596    0.310028    1.239466    1.254520    1.385494    1.417903
 

........................................................................
.............................. CYCLE   43 ..............................
........................................................................
   1  -1291.0479330 -0.129105E+04  0.544E-03    6.19       0.0  T
   2  -1291.0479334 -0.386352E-06  0.328E-03    6.19       1.1  T
   3  -1291.0479335 -0.103518E-06  0.340E-04    6.18      10.7  T
   4  -1291.0479335 -0.147788E-07  0.912E-05    6.18      39.9  T
     SCC iter.                  ...        0 min,  2.537 sec
     gradient                   ...        0 min, 12.148 sec
 * total energy  : -1283.2763181 Eh     change       -0.1802832E-03 Eh
   gradient norm :     0.0019252 Eh/a0  converged?    E=F G=F D=F
   step length   :     0.1264224 a0

........................................................................
.............................. CYCLE   44 ..............................
........................................................................
   1  -1291.0365308 -0.129104E+04  0.403E-02    5.91       0.0  T
   2  -1291.0365455 -0.147103E-04  0.246E-02    5.86       1.0  T
   3  -1291.0365527 -0.716296E-05  0.206E-03    5.82       1.8  T
   4  -1291.0365531 -0.398509E-06  0.782E-04    5.82       4.7  T
   5  -1291.0365531 -0.287741E-07  0.891E-05    5.82      40.8  T
     SCC iter.                  ...        0 min,  3.161 sec
     gradient                   ...        0 min, 12.067 sec
 * total energy  : -1283.2752153 Eh     change        0.1102773E-02 Eh
   gradient norm :     0.0445405 Eh/a0  converged?    E=F G=F D=F
   step length   :     1.2523685 a0

........................................................................
.............................. CYCLE   45 ..............................
........................................................................
   1  -1291.0468704 -0.129105E+04  0.220E-02    5.96       0.0  T
   2  -1291.0468756 -0.515299E-05  0.134E-02    5.99       1.0  T
   3  -1291.0468783 -0.272685E-05  0.128E-03    6.02       2.8  T
   4  -1291.0468784 -0.109512E-06  0.454E-04    6.02       8.0  T
   5  -1291.0468784 -0.889327E-08  0.483E-05    6.02      75.3  T
     SCC iter.                  ...        0 min,  3.134 sec
     gradient                   ...        0 min, 12.055 sec
 * total energy  : -1283.2769045 Eh     change       -0.1689192E-02 Eh
   gradient norm :     0.0078048 Eh/a0  converged?    E=F G=F D=F
   step length   :     0.4278279 a0

........................................................................
.............................. CYCLE   46 ..............................
........................................................................
   1  -1291.0478357 -0.129105E+04  0.437E-03    6.03       0.0  T
   2  -1291.0478363 -0.586459E-06  0.263E-03    6.04       1.4  T
   3  -1291.0478364 -0.163323E-06  0.431E-04    6.05       8.4  T
   4  -1291.0478364 -0.195764E-07  0.113E-04    6.05      32.2  T
     SCC iter.                  ...        0 min,  2.512 sec
     gradient                   ...        0 min, 12.090 sec
 * total energy  : -1283.2770809 Eh     change       -0.1763385E-03 Eh
   gradient norm :     0.0039420 Eh/a0  converged?    E=F G=F D=F
   step length   :     0.1003226 a0

........................................................................
.............................. CYCLE   47 ..............................
........................................................................
   1  -1291.0473712 -0.129105E+04  0.205E-02    6.01       0.0  T
   2  -1291.0473771 -0.587795E-05  0.124E-02    6.02       1.0  T
   3  -1291.0473785 -0.138928E-05  0.130E-03    6.03       2.8  T
   4  -1291.0473787 -0.228335E-06  0.327E-04    6.03      11.1  T
   5  -1291.0473787 -0.405794E-08  0.481E-05    6.03      75.7  T
     SCC iter.                  ...        0 min,  3.117 sec
     gradient                   ...        0 min, 12.026 sec
 * total energy  : -1283.2774398 Eh     change       -0.3589319E-03 Eh
   gradient norm :     0.0071609 Eh/a0  converged?    E=F G=F D=F
   step length   :     0.4886362 a0

........................................................................
.............................. CYCLE   48 ..............................
........................................................................
   1  -1291.0474947 -0.129105E+04  0.633E-03    6.02       0.0  T
   2  -1291.0474952 -0.510572E-06  0.386E-03    6.01       1.0  T
   3  -1291.0474954 -0.224203E-06  0.385E-04    6.01       9.4  T
   4  -1291.0474954 -0.122552E-07  0.122E-04    6.01      29.9  T
     SCC iter.                  ...        0 min,  2.484 sec
     gradient                   ...        0 min, 12.005 sec
 * total energy  : -1283.2775042 Eh     change       -0.6443930E-04 Eh
   gradient norm :     0.0063628 Eh/a0  converged?    E=F G=F D=F
   step length   :     0.1232952 a0

........................................................................
.............................. CYCLE   49 ..............................
........................................................................
   1  -1291.0482947 -0.129105E+04  0.207E-03    6.01       0.0  T
   2  -1291.0482949 -0.131196E-06  0.124E-03    6.01       2.9  T
   3  -1291.0482949 -0.358564E-07  0.201E-04    6.01      18.1  T
   4  -1291.0482949 -0.382988E-08  0.547E-05    6.01      66.5  T
     SCC iter.                  ...        0 min,  2.474 sec
     gradient                   ...        0 min, 11.998 sec
 * total energy  : -1283.2775430 Eh     change       -0.3874291E-04 Eh
   gradient norm :     0.0015463 Eh/a0  converged?    E=F G=F D=F
   step length   :     0.0357519 a0

........................................................................
.............................. CYCLE   50 ..............................
........................................................................
   1  -1291.0478632 -0.129105E+04  0.517E-03    6.00       0.0  T
   2  -1291.0478635 -0.292883E-06  0.313E-03    6.00       1.2  T
   3  -1291.0478636 -0.129814E-06  0.295E-04    6.00      12.3  T
   4  -1291.0478636 -0.842806E-08  0.102E-04    6.00      35.7  T
     SCC iter.                  ...        0 min,  2.477 sec
     gradient                   ...        0 min, 11.980 sec
 * total energy  : -1283.2775611 Eh     change       -0.1813704E-04 Eh
   gradient norm :     0.0032674 Eh/a0  converged?    E=F G=F D=F
   step length   :     0.1150287 a0

........................................................................
.............................. CYCLE   51 ..............................
........................................................................
   1  -1291.0484583 -0.129105E+04  0.171E-03    6.01       0.0  T
   2  -1291.0484583 -0.308403E-07  0.103E-03    6.01       3.5  T
   3  -1291.0484583 -0.765772E-08  0.942E-05    6.01      38.6  T
   4  -1291.0484583 -0.106866E-08  0.253E-05    6.01     143.6  T
     SCC iter.                  ...        0 min,  2.475 sec
     gradient                   ...        0 min, 11.973 sec
 * total energy  : -1283.2775730 Eh     change       -0.1186856E-04 Eh
   gradient norm :     0.0020419 Eh/a0  converged?    E=F G=F D=F
   step length   :     0.0424690 a0

........................................................................
.............................. CYCLE   52 ..............................
........................................................................
   1  -1291.0484499 -0.129105E+04  0.105E-03    6.01       0.0  T
   2  -1291.0484499 -0.155824E-07  0.636E-04    6.01       5.7  T
   3  -1291.0484499 -0.520095E-08  0.672E-05    6.01      54.2  T
     SCC iter.                  ...        0 min,  1.888 sec
     gradient                   ...        0 min, 11.974 sec
 * total energy  : -1283.2775770 Eh     change       -0.4014333E-05 Eh
   gradient norm :     0.0008122 Eh/a0  converged?    E=F G=F D=F
   step length   :     0.0215027 a0

........................................................................
.............................. CYCLE   53 ..............................
........................................................................
   1  -1291.0484247 -0.129105E+04  0.885E-04    6.01       0.0  T
   2  -1291.0484247 -0.275486E-08  0.535E-04    6.01       6.8  T
   3  -1291.0484247 -0.121213E-08  0.276E-05    6.01     131.6  T
     SCC iter.                  ...        0 min,  1.890 sec
     gradient                   ...        0 min, 11.976 sec
 * total energy  : -1283.2775784 Eh     change       -0.1455843E-05 Eh
   gradient norm :     0.0008758 Eh/a0  converged?    E=F G=F D=F
   step length   :     0.0179157 a0

........................................................................
.............................. CYCLE   54 ..............................
........................................................................
   1  -1291.0484383 -0.129105E+04  0.476E-04    6.01       0.0  T
   2  -1291.0484383 -0.193154E-08  0.289E-04    6.01      12.6  T
   3  -1291.0484383 -0.829914E-09  0.245E-05    6.01     148.2  T
     SCC iter.                  ...        0 min,  1.879 sec
     gradient                   ...        0 min, 11.980 sec
 * total energy  : -1283.2775793 Eh     change       -0.8580648E-06 Eh
   gradient norm :     0.0003424 Eh/a0  converged?    E=T G=T D=F
   step length   :     0.0116954 a0

   *** GEOMETRY OPTIMIZATION CONVERGED AFTER 54 CYCLES ***

------------------------------------------------------------------------
 total energy gain   :        -0.0142352 Eh       -8.9327 kcal/mol
 total RMSD          :         0.1806323 a0        0.0956 Å
 total power (kW/mol):        -0.6921196 (step)   -0.0417 (real)
------------------------------------------------------------------------

 L-ANCopt (total)              0 d,  0 h, 14 min, 55.456 sec
 setup                          ...        0 min,  0.031 sec (  0.003%)
 model hessian                  ...        0 min, 22.362 sec (  2.497%)
 ANC generation                 ...        0 min,  7.641 sec (  0.853%)
 coordinate transformation      ...        0 min,  0.005 sec (  0.001%)
 Rational function              ...        0 min,  0.000 sec (  0.000%)
 singlepoint calculation        ...       14 min, 25.047 sec ( 96.604%)
 optimization log               ...        0 min,  0.360 sec (  0.040%)
 hessian update                 ...        0 min,  0.001 sec (  0.000%)

================
 final structure:
================
$coord
       12.02719186100300      -13.30665338737300       -1.31198525575300      o
       10.36713114505300      -13.71916319835800       -2.00369551329500      h
       11.92752874169200      -13.78070619852400        0.47861972564700      h
        1.32236950960400        4.72252425661700        9.99568736986200      o
        1.31747799820400        5.79210924861000       11.49424813284700      h
        1.53456271250200        5.85482635516100        8.56135640654700      h
        0.38873148101600       -2.03194520131100       -5.77386208507900      o
        0.43948982312700       -2.79264898703300       -7.44690057278700      h
        1.87959843418100       -0.98908035315000       -5.57258117535100      h
      -10.96042658106700       -0.17402984512200        1.24563489406200      o
      -11.17929685508400        1.63333419693800        1.58218893117200      h
       -9.18277684286700       -0.52657853589600        0.96584170944900      h
       -6.25652505325000        3.82914520533300        2.16200031157800      o
       -4.54869084775100        4.41245379950800        2.56818482959800      h
       -7.17955757471500        3.80465171462600        3.75427107185200      h
       -6.53291562925400       -7.82179902704100        0.51435208837200      o
       -6.98293168247600       -6.88696809609700       -0.99895496265300      h
       -7.23919434746700       -6.88982976309300        1.93179147021500      h
       -3.23950632799300       -6.99234527160100       -4.02920177975900      o
       -3.59435931014900       -8.66164314430300       -3.33969198770900      h
       -1.40312143590600       -6.87403492281600       -4.04800255816000      h
        1.29004083112000      -10.81136924383300       -1.39457670970200      o
       -0.04546009781300       -9.82685843076500       -0.57408610075200      h
        2.61881361568700       -9.65093784245400       -1.89812887764700      h
       -1.99982462171600       -4.40808737850900        4.81408889811300      o
       -1.91719921430500       -5.95844291400600        3.83047614801100      h
       -3.11893116816800       -4.71058160964800        6.22231451064200      h
       -0.91172090406900        6.37570456239900       -8.25172570699700      o
       -1.67707557237100        6.75164265694300       -9.86517021082900      h
        0.90458321735100        6.24211940588700       -8.59746600033400      h
       -9.51397304147200       -0.28095967956000       -4.66915609695700      o
       -8.64179778568000        0.19015231266700       -6.24876621625800      h
       -9.45672911870800        1.23715704677100       -3.61473922159800      h
       -4.25408067516000        3.93605346193400       -4.60654585157300      o
       -6.06444719468900        3.78627354622200       -4.41317554707500      h
       -3.80852000839900        5.28074546684000       -3.43913768233400      h
       -8.74458284110700       -4.99833646801100       -3.12985226802800      o
       -8.86551758970100       -3.25883448279700       -3.73908677349400      h
       -9.64180613600100       -6.06305662208500       -4.32432237375400      h
       -8.83967139650000        3.97147546929700       -2.22128206775200      o
      -10.15862068865200        5.25452412958900       -2.16042453770600      h
       -7.91997595588300        4.10911017793900       -0.63985942385400      h
       -2.97930414659200        7.36174213268300       -1.07247287610200      o
       -1.61119199944500        8.08537500969000       -2.08290844017000      h
       -2.26279800061700        6.77090672282500        0.51760513839900      h
        2.09732230254900        1.64421928145600       -9.46780171052700      o
        2.32786095192400        2.39900788329400       -7.80073761994200      h
        3.24524076714900        0.21000660289100       -9.55205284388100      h
       -3.08009933968100        1.13563099858100        5.54451402125600      o
       -2.25944741370800        0.83011219000600        7.15331775934600      h
       -4.80835833100600        1.56260021282800        5.93090955854800      h
       -3.73246120780000       -1.56977910502000       14.96692559823900      o
       -4.43584752886000       -1.11369811771600       13.31587926643000      h
       -4.93975148100700       -2.81011840947200       15.64975997834800      h
       -1.88973624490200       -8.63162112030300        1.88487171973300      o
       -1.99240442304700      -10.07451974977200        3.01828545240200      h
       -3.60320003981300       -8.35201777453600        1.20538383074100      h
       -3.83869329154500        4.69043627347100       10.44972675753300      o
       -2.10797735148300        4.06825583227100       10.33991713041500      h
       -4.64248107581200        3.95137743598400       11.93327576453300      h
       -8.05326965278100       -4.40392715571300        4.20853320700100      o
       -7.12695948820600       -4.76696667672400        5.77203291483100      h
       -7.04103961496800       -3.17922212568200        3.28257103413700      h
        6.86758492211100        0.09066847751500        5.14968854519600      o
        7.61373927481300        1.37799230356200        4.08132315436200      h
        6.68509280368500       -1.39411329579800        4.08416582866800      h
        1.81044360768600       -6.21814510491200       -3.69795396574700      o
        3.12990864308900       -6.74895452555900       -4.88338498218900      h
        1.31747417094200       -4.51878112865200       -4.28510758739000      h
        0.13570350169600        9.21035815616900       -4.40228527280300      o
       -0.43746640568000        8.11837346733300       -5.81982783254900      h
        1.92701368630200        8.81690027232100       -4.12683449077200      h
        0.99582561862200        0.64269286023400       14.51190661065100      o
        0.44287132633000        0.78784783552500       12.73707888789500      h
       -0.49790958421000        0.12693189953000       15.41691460872700      h
       -7.87695397701000        2.66563927690300        6.82958103717500      o
       -8.55169585461800        4.00575806129700        7.88897802354500      h
       -9.09564454224700        1.24828523602800        6.93674649813900      h
      -14.36911130610600       -1.08044734273000       -2.18923360765700      o
      -12.93306135849500       -1.05596654115500       -1.01797211675300      h
      -14.44739464617200        0.63312775042500       -2.90871412558400      h
        2.40980831130200        2.97051666997200        4.54702375136100      o
        2.54698389458400        1.21772796416100        5.07734558926400      h
        3.85821107600100        3.86287552983700        5.25758237721700      h
       -5.19105729694400       -2.91846615933600       -6.98204753186100      o
       -4.21727073740800       -3.86023306160200       -5.76516592209600      h
       -4.29665892124700       -1.34322067713200       -7.37851081242600      h
        8.57100603945100       -3.26038792974600       -2.06970571978100      o
        9.93326704684900       -2.09916411695400       -1.63145934634500      h
        9.26500087569900       -4.50831745623400       -3.24075166325200      h
       -5.42930820704600       -8.70808672466400       -8.31577487853500      o
       -4.95913969886000       -7.73211565119000       -6.81471453232900      h
       -5.62289963914900       -7.52217301571100       -9.69882015470600      h
      -13.45043263556000       -1.35647985799700       -7.46878933818900      o
      -12.22158905448800       -0.74795851280500       -6.21214230369600      h
      -15.09299732418600       -0.62152384930500       -7.07578182819100      h
        5.00021778524600        1.02067479827100        9.70366464292100      o
        5.57907812403000        0.82521203311000        7.95427013587100      h
        3.67587777354600        2.30462923047800        9.72731925990200      h
        7.18849737061600       -9.44054432648900        3.04032196243700      o
        6.52533445711600      -10.15860366883500        4.58591605807100      h
        7.11726445992800       -7.60903933683800        3.16826925896200      h
        2.09714609675400       -1.93290363780900        6.28431739224800      o
        0.72664475983000       -3.00945828586800        5.65009099087100      h
        3.50039857079300       -3.02671769266900        6.72279792805200      h
        6.09255790262000        7.44814045599800       10.90350700840800      o
        5.60839853965000        6.18182369004300       12.13845618101600      h
        6.14961240794800        6.65925530095500        9.23062202616200      h
       -8.22969896325500        8.72556016825100       -5.23863187450600      o
       -8.18361175875200        8.82954721051300       -3.39654015083700      h
       -6.69138529781100        9.48845817599900       -5.85858630849000      h
      -12.42367047008000        7.47350969276300       -1.60001854973900      o
      -13.77489456217400        7.71454513540500       -2.83214356886800      h
      -11.83628942691200        9.16903510385200       -1.21047482633700      h
        2.20804992999900       -7.89776894041100        5.50946047606100      o
        2.60217309904800       -9.54994728439400        4.78775026954100      h
        0.79573986758200       -8.16417452348600        6.64364216633200      h
       -9.33208923811300       -9.55465382790600        4.60407938504400      o
      -10.47217377027900      -10.99950412740700        4.40804523289600      h
      -10.40600036120200       -8.12386429983800        5.02629206496900      h
        1.98434359329800       -5.03388859358800        1.16099272652000      o
        2.01840162595000       -5.68207262515400       -0.56837492412300      h
        1.68976266761700       -6.39860556555300        2.34710793562800      h
       -1.68889925939000        5.60926064056500        3.35489912472800      o
       -2.45968374907100        6.59293658952800        4.71988509256800      h
       -0.45487418204600        4.46901728978300        4.11197373466100      h
        0.99453645665000       -0.78664439549000      -14.56996065628400      o
        1.33688232124700        1.03010274251000      -14.63793134799500      h
        0.63401614404200       -1.15260803100300      -12.82410827063900      h
        6.02363292330400       -5.17372618865000        7.43004395483700      o
        6.76702294992800       -4.80771407297400        5.79300120927300      h
        4.74782243250600       -6.47061055930500        7.08331299610300      h
       -8.95249262921800        7.63080580938000        4.61035568516300      o
       -9.70160309345100        9.07953245288700        5.47562287880600      h
       -8.64960533319200        8.13743528416200        2.85366200524200      h
      -12.34481089928200        4.47670912087200        2.44903591662300      o
      -11.28752667055300        5.45255116536900        3.59677125317100      h
      -12.58755360084800        5.59123789162800        0.99031596520200      h
      -12.98423918461700       -6.25091991859200        5.89520258164500      o
      -14.21122281048100       -7.61438992730000        5.63862729381100      h
      -13.79592664545000       -4.69478831705700        5.32880141145900      h
        1.64687854935400      -14.41992350238200        8.35417227414500      o
        1.31738322429000      -13.76170213550000       10.02989450869400      h
        0.20560811211000      -13.93884532604400        7.33483025536700      h
       10.65630919590200      -11.18468710031100        7.84707310193200      o
       10.78524735359900       -9.88596583231900        9.13224038406300      h
        8.85161133095600      -11.58094936033300        7.78906403914600      h
        1.51819106323700        3.21145512224000       -4.69244816642300      o
       -0.23713833810600        3.64739263626000       -4.87037192603500      h
        2.12631018271600        3.95208946223400       -3.12955156463100      h
        9.86831858799100       -6.59055162347700       -5.65794851974600      o
       10.65355974045400       -8.20002762477000       -5.24438961398300      h
       11.05317051208900       -5.83825601708600       -6.86749434943600      h
      -15.87043658641000        8.95115679819700       -4.95964062458000      o
      -14.69560449215100        9.98130347211100       -5.94425693405600      h
      -16.78057158729800        7.88239309527400       -6.13899866899000      h
       14.72663269015000        0.77338706636800        4.84187308010900      o
       13.83561842831300       -0.81426016832200        4.54072761025300      h
       15.98036807175000        0.39764395715000        6.15048054597100      h
       -1.64977268599900        6.96150092409500      -13.39678818927300      o
       -2.85326013461000        5.53297793314100      -13.45542801914800      h
       -0.03921659917900        6.17944939149500      -13.84299833840200      h
      -16.87138427131200       -5.81727835583900        1.64290682124200      o
      -17.63205370937500       -4.21724839990300        1.17253282104400      h
      -15.06865838018100       -5.61429748738600        1.36526672593600      h
       -4.47287754957600        8.06084659835900        6.63915166214800      o
       -6.18884991977900        7.84058732493500        5.93854067236400      h
       -4.35495229481300        6.79558468026400        7.95974807194100      h
        6.00057637529600       -9.01591472751500       -1.71671613553500      o
        7.47212545225400       -8.03144874951700       -2.16177563809100      h
        6.25863317199200       -9.38085346354500        0.09119654725900      h
       -7.94080448165900      -15.52392657103200        6.00354088023400      o
       -9.75313064832000      -15.42088833068900        5.84199328652200      h
       -7.30970536130000      -14.92939868542300        4.37282787926300      h
        5.32530204434700       -0.55415838050200       -4.62219142787800      o
        5.89150499135200        1.20332861260900       -4.49918492567100      h
        6.57915952473100       -1.61724607856400       -3.74386453284100      h
        6.18483523725100       -1.53743823704700      -14.17371224927500      o
        6.04549588034100       -1.88164390718500      -12.37064438634400      h
        4.45273115345100       -1.43448593992900      -14.75993344895400      h
       -5.54145072995000       -4.94674819794800        8.49121872394900      o
       -5.72313544671200       -3.24253802818400        9.20119530930000      h
       -6.33245857276600       -6.07635716735100        9.72445499850100      h
       -0.57515097587500       -9.95883421124300       -8.60903677455800      o
       -2.41799700690100       -9.76482006539700       -8.68280503625600      h
       -0.25886193427900      -11.31901743000100       -7.43513240988500      h
        4.25879457518600        0.18431311693200        0.39706802650600      o
        4.25899678455600       -0.09256712901800       -1.40920108963100      h
        5.60779842164800        1.33958145839400        0.77113737219200      h
       -3.97479413060900      -11.89048255134800       -2.54408507406400      o
       -5.10116767905000      -12.46102007406700       -3.86231750585800      h
       -4.96460572531000      -11.92480288967800       -0.98155229799600      h
        5.65636762301500      -11.35805992154700        7.63186048395200      o
        5.39406468713300      -10.21512420167100        9.05923718623100      h
        4.33826281745400      -12.64169377951000        7.77613854344400      h
       -9.14218182901500       -1.30030943638800      -13.23420171588600      o
       -9.02073275635500       -2.77003035958100      -12.12067814270800      h
       -7.78453488250800       -1.41009303838900      -14.43685551378400      h
      -12.07467484487100       -8.01595505143200       -5.43103975405100      o
      -13.64325966917000       -7.11229341374200       -5.63809585033900      h
      -12.07129286866900       -9.44416949398000       -6.63009598012600      h
       -2.92391213314800        1.20624520278900       -8.70977142177300      o
       -1.10169467769600        1.35705513233900       -8.91898445674000      h
       -3.41116503494500        2.42072172885900       -7.41741850358400      h
      -19.93349037825200       10.98117190391000        3.43874844829900      o
      -18.69739227551100       11.35755954706000        2.13660664103400      h
      -21.45842834705300       10.58864052794000        2.52537517352900      h
        4.68505345637900       -8.40274903384900       11.63206605287600      o
        4.39049092699100       -6.62342645203600       11.87576828244700      h
        3.26441668185100       -9.32609484825600       12.31659437350000      h
       -3.76915542421500        9.47215118144000       12.07850579444800      o
       -3.87376082260200        7.70281615880500       11.50991567324700      h
       -2.98070270555500       10.39349366448600       10.68615701079100      h
       11.98761276665600       -0.09725140702400       -0.02155232558600      o
       13.70851246234600        0.28328353527500       -0.56728511765600      h
       12.04358770178400       -1.28063119095500        1.38634747060000      h
        6.52643692588000        5.57323052638400        6.20086004451500      o
        8.12842194560700        4.69754777633500        6.44685379829100      h
        6.74798523523100        6.62606671855100        4.70577514706500      h
       -8.03789860754800        1.51916650594500       -9.00129774888700      o
       -8.45389441092000        0.75719295194200      -10.61441055365800      h
[...]
   385   8 o      386   1 h                                       0.9592708
   385   8 o      387   1 h                                       0.9834898
   388   8 o      389   1 h                                       0.9683454
   388   8 o      390   1 h                                       0.9740387
   391   8 o      392   1 h                                       0.9640231
   391   8 o      393   1 h                                       0.9847660
   394   8 o      395   1 h                                       0.9826599
   394   8 o      396   1 h                                       0.9561038
   397   8 o      398   1 h                                       0.9646231
   397   8 o      399   1 h                                       0.9741582
   400   8 o      401   1 h                                       0.9579324
   400   8 o      402   1 h                                       0.9832633
   403   8 o      404   1 h                                       0.9713699
   403   8 o      405   1 h                                       0.9850042
   406   8 o      407   1 h                                       0.9570030
   406   8 o      408   1 h                                       0.9815781
   409   8 o      410   1 h                                       0.9772095
   409   8 o      411   1 h                                       0.9789651
   412   8 o      413   1 h                                       0.9763976
   412   8 o      414   1 h                                       0.9876082
   415   8 o      416   1 h                                       0.9658747
   415   8 o      417   1 h                                       0.9790099
   418   8 o      419   1 h                                       0.9811179
   418   8 o      420   1 h                                       0.9556738
   421   8 o      422   1 h                                       0.9764774
   421   8 o      423   1 h                                       0.9759431
   424   8 o      425   1 h                                       0.9711123
   424   8 o      426   1 h                                       0.9688319
   427   8 o      428   1 h                                       0.9749558
   427   8 o      429   1 h                                       0.9605465
   430   8 o      431   1 h                                       0.9885084
   430   8 o      432   1 h                                       0.9813774
   433   8 o      434   1 h                                       0.9849880
   433   8 o      435   1 h                                       0.9679626
   436   8 o      437   1 h                                       0.9715366
   436   8 o      438   1 h                                       0.9699860
   439   8 o      440   1 h                                       0.9765193
   439   8 o      441   1 h                                       0.9565552
   442   8 o      443   1 h                                       0.9783923
   442   8 o      444   1 h                                       0.9743366
   445   8 o      446   1 h                                       0.9802884
   445   8 o      447   1 h                                       0.9770227
   448   8 o      449   1 h                                       0.9694378
   448   8 o      450   1 h                                       0.9806622
   451   8 o      452   1 h                                       0.9658768
   451   8 o      453   1 h                                       0.9772213
   454   8 o      455   1 h                                       0.9707085
   454   8 o      456   1 h                                       0.9752472
   457   8 o      458   1 h                                       0.9787673
   457   8 o      459   1 h                                       0.9725952
   460   8 o      461   1 h                                       0.9618311
   460   8 o      462   1 h                                       0.9704553
   463   8 o      464   1 h                                       0.9707138
   463   8 o      465   1 h                                       0.9648531
   466   8 o      467   1 h                                       0.9654174
   466   8 o      468   1 h                                       0.9856229
   469   8 o      470   1 h                                       0.9557965
   469   8 o      471   1 h                                       0.9904814
   472   8 o      473   1 h                                       0.9743430
   472   8 o      474   1 h                                       0.9584845
   475   8 o      476   1 h                                       0.9777095
   475   8 o      477   1 h                                       0.9832996
   478   8 o      479   1 h                                       0.9740377
   478   8 o      480   1 h                                       0.9769542
   481   8 o      482   1 h                                       0.9763674
   481   8 o      483   1 h                                       0.9882676
   484   8 o      485   1 h                                       0.9668879
   484   8 o      486   1 h                                       0.9927059
   487   8 o      488   1 h                                       0.9598422
   487   8 o      489   1 h                                       0.9739490
   490   8 o      491   1 h                                       0.9758802
   490   8 o      492   1 h                                       0.9653909
   493   8 o      494   1 h                                       0.9711292
   493   8 o      495   1 h                                       0.9798779
   496   8 o      497   1 h                                       0.9976480 (max)
   496   8 o      498   1 h                                       0.9585641
   499   8 o      500   1 h                                       0.9747059
   499   8 o      501   1 h                                       0.9701912
   502   8 o      503   1 h                                       0.9575510
   502   8 o      504   1 h                                       0.9847975
   505   8 o      506   1 h                                       0.9708319
   505   8 o      507   1 h                                       0.9673115
   508   8 o      509   1 h                                       0.9743028
   508   8 o      510   1 h                                       0.9871203
   511   8 o      512   1 h                                       0.9787142
   511   8 o      513   1 h                                       0.9652964
   514   8 o      515   1 h                                       0.9734457
   514   8 o      516   1 h                                       0.9635660
   517   8 o      518   1 h                                       0.9792699
   517   8 o      519   1 h                                       0.9793420
   520   8 o      521   1 h                                       0.9832220
   520   8 o      522   1 h                                       0.9645715
   523   8 o      524   1 h                                       0.9637095
   523   8 o      525   1 h                                       0.9762372
   526   8 o      527   1 h                                       0.9679470
   526   8 o      528   1 h                                       0.9741065
   529   8 o      530   1 h                                       0.9815529
   529   8 o      531   1 h                                       0.9575897
   532   8 o      533   1 h                                       0.9666660
   532   8 o      534   1 h                                       0.9809906
   535   8 o      536   1 h                                       0.9759121
   535   8 o      537   1 h                                       0.9721328
   538   8 o      539   1 h                                       0.9740457
   538   8 o      540   1 h                                       0.9689313
   541   8 o      542   1 h                                       0.9647948
   541   8 o      543   1 h                                       0.9847268
   544   8 o      545   1 h                                       0.9726214
   544   8 o      546   1 h                                       0.9838121
   547   8 o      548   1 h                                       0.9620820
   547   8 o      549   1 h                                       0.9746673
   550   8 o      551   1 h                                       0.9861723
   550   8 o      552   1 h                                       0.9582303
   553   8 o      554   1 h                                       0.9849817
   553   8 o      555   1 h                                       0.9575054
   556   8 o      557   1 h                                       0.9734026
   556   8 o      558   1 h                                       0.9767196
   559   8 o      560   1 h                                       0.9648324
   559   8 o      561   1 h                                       0.9697951
   562   8 o      563   1 h                                       0.9809601
   562   8 o      564   1 h                                       0.9708775
   565   8 o      566   1 h                                       0.9773702
   565   8 o      567   1 h                                       0.9722697
   568   8 o      569   1 h                                       0.9656043
   568   8 o      570   1 h                                       0.9709123
   571   8 o      572   1 h                                       0.9656100
   571   8 o      573   1 h                                       0.9640612
   574   8 o      575   1 h                                       0.9643645
   574   8 o      576   1 h                                       0.9838024
   577   8 o      578   1 h                                       0.9626836
   577   8 o      579   1 h                                       0.9808534
   580   8 o      581   1 h                                       0.9560408
   580   8 o      582   1 h                                       0.9853743
   583   8 o      584   1 h                                       0.9787392
   583   8 o      585   1 h                                       0.9835698
   586   8 o      587   1 h                                       0.9830122
   586   8 o      588   1 h                                       0.9953881
   589   8 o      590   1 h                                       0.9868952
   589   8 o      591   1 h                                       0.9702757
   592   8 o      593   1 h                                       0.9594001
   592   8 o      594   1 h                                       0.9855733
   595   8 o      596   1 h                                       0.9797570
   595   8 o      597   1 h                                       0.9637823
   598   8 o      599   1 h                                       0.9901129
   598   8 o      600   1 h                                       0.9668589
   601   8 o      602   1 h                                       0.9842614
   601   8 o      603   1 h                                       0.9681706
   604   8 o      605   1 h                                       0.9718156
   604   8 o      606   1 h                                       0.9647307
   607   8 o      608   1 h                                       0.9943959
   607   8 o      609   1 h                                       0.9570627
   610   8 o      611   1 h                                       0.9750987
   610   8 o      612   1 h                                       0.9672987
   613   8 o      614   1 h                                       0.9640377
   613   8 o      615   1 h                                       0.9803931
   616   8 o      617   1 h                                       0.9805294
   616   8 o      618   1 h                                       0.9690028
   619   8 o      620   1 h                                       0.9736735
   619   8 o      621   1 h                                       0.9914868
   622   8 o      623   1 h                                       0.9706985
   622   8 o      624   1 h                                       0.9601350
   625   8 o      626   1 h                                       0.9605330
   625   8 o      627   1 h                                       0.9789114
   628   8 o      629   1 h                                       0.9773352
   628   8 o      630   1 h                                       0.9739638
   631   8 o      632   1 h                                       0.9888744
   631   8 o      633   1 h                                       0.9865949
   634   8 o      635   1 h                                       0.9677206
   634   8 o      636   1 h                                       0.9756620
   637   8 o      638   1 h                                       0.9706920
   637   8 o      639   1 h                                       0.9714008
   640   8 o      641   1 h                                       0.9822014
   640   8 o      642   1 h                                       0.9802124
   643   8 o      644   1 h                                       0.9684013
   643   8 o      645   1 h                                       0.9763707
   646   8 o      647   1 h                                       0.9741357
   646   8 o      648   1 h                                       0.9713069
   649   8 o      650   1 h                                       0.9631030
   649   8 o      651   1 h                                       0.9722771
   652   8 o      653   1 h                                       0.9556531 (min)
   652   8 o      654   1 h                                       0.9722182
   655   8 o      656   1 h                                       0.9653269
   655   8 o      657   1 h                                       0.9809323
   658   8 o      659   1 h                                       0.9680590
   658   8 o      660   1 h                                       0.9783129
   661   8 o      662   1 h                                       0.9722502
   661   8 o      663   1 h                                       0.9639018
   664   8 o      665   1 h                                       0.9564918
   664   8 o      666   1 h                                       0.9799689
   667   8 o      668   1 h                                       0.9803573
   667   8 o      669   1 h                                       0.9599925
   670   8 o      671   1 h                                       0.9694458
   670   8 o      672   1 h                                       0.9698451
   673   8 o      674   1 h                                       0.9706233
   673   8 o      675   1 h                                       0.9827293
   676   8 o      677   1 h                                       0.9753704
   676   8 o      678   1 h                                       0.9574313
   679   8 o      680   1 h                                       0.9669328
   679   8 o      681   1 h                                       0.9743244
   682   8 o      683   1 h                                       0.9787994
   682   8 o      684   1 h                                       0.9745040
   685   8 o      686   1 h                                       0.9635281
   685   8 o      687   1 h                                       0.9816210
   688   8 o      689   1 h                                       0.9617557
   688   8 o      690   1 h                                       0.9798357
   691   8 o      692   1 h                                       0.9687150
   691   8 o      693   1 h                                       0.9724472
   694   8 o      695   1 h                                       0.9561278
   697   8 o      698   1 h                                       0.9778354
   697   8 o      699   1 h                                       0.9802371
   700   8 o      701   1 h                                       0.9718659
   700   8 o      702   1 h                                       0.9922731
   703   8 o      704   1 h                                       0.9729173
   703   8 o      705   1 h                                       0.9714366
   706   8 o      707   1 h                                       0.9771417
   706   8 o      708   1 h                                       0.9723833
   709   8 o      710   1 h                                       0.9675767
   709   8 o      711   1 h                                       0.9710462
   712   8 o      713   1 h                                       0.9701520
   712   8 o      714   1 h                                       0.9634708
   715   8 o      716   1 h                                       0.9788184
   715   8 o      717   1 h                                       0.9723424
   718   8 o      719   1 h                                       0.9643084
   718   8 o      720   1 h                                       0.9783781
   721   8 o      722   1 h                                       0.9753180
   721   8 o      723   1 h                                       0.9826141
   724   8 o      725   1 h                                       0.9928036
   724   8 o      726   1 h                                       0.9569011
   727   8 o      728   1 h                                       0.9719523
   727   8 o      729   1 h                                       0.9762803
   730   8 o      731   1 h                                       0.9811568
   730   8 o      732   1 h                                       0.9746549
   733   8 o      734   1 h                                       0.9639793
   733   8 o      735   1 h                                       0.9811367
   736   8 o      737   1 h                                       0.9796774
   736   8 o      738   1 h                                       0.9687835
   739   8 o      740   1 h                                       0.9826393
   739   8 o      741   1 h                                       0.9737824
   742   8 o      743   1 h                                       0.9683524
   742   8 o      744   1 h                                       0.9769643
   745   8 o      746   1 h                                       0.9771301
   745   8 o      747   1 h                                       0.9709331
   748   8 o      749   1 h                                       0.9750047
   748   8 o      750   1 h                                       0.9733057
   751   8 o      752   1 h                                       0.9600623
   751   8 o      753   1 h                                       0.9778831
   754   8 o      755   1 h                                       0.9617103
   754   8 o      756   1 h                                       0.9600974

 * 1 distinct bonds (by element types)

   Z      Z             #   av. dist./Å        max./Å        min./Å
   1 H    8 O         503     0.9737990     0.9976480     0.9556531


optimized geometry written to: xtbopt.coord


           -------------------------------------------------
          | TOTAL ENERGY            -1283.277579299147 Eh   |
          | GRADIENT NORM               0.003156546097 Eh/α |
          | HOMO-LUMO GAP               6.008713662004 eV   |
           -------------------------------------------------

------------------------------------------------------------------------
 * finished run on 2022/11/24 at 12:20:16.922     
------------------------------------------------------------------------
 total:
 * wall-time:     0 d,  0 h, 15 min, 32.921 sec
 *  cpu-time:     0 d,  0 h, 23 min,  2.818 sec
 * ratio c/w:     1.482 speedup
 SCF:
 * wall-time:     0 d,  0 h,  0 min, 21.688 sec
 *  cpu-time:     0 d,  0 h,  0 min, 35.109 sec
 * ratio c/w:     1.619 speedup
 ANC optimizer:
 * wall-time:     0 d,  0 h, 15 min, 10.161 sec
 *  cpu-time:     0 d,  0 h, 22 min, 25.942 sec
 * ratio c/w:     1.479 speedup

