      -----------------------------------------------------------      
     |                   =====================                   |     
     |                           x T B                           |     
     |                   =====================                   |     
     |                         S. Grimme                         |     
     |          Mulliken Center for Theoretical Chemistry        |     
     |                    University of Bonn                     |     
      -----------------------------------------------------------      

   * xtb version 6.5.1 (579679a) compiled by 'ehlert@majestix' on 2022-07-11

   xtb is free software: you can redistribute it and/or modify it under
   the terms of the GNU Lesser General Public License as published by
   the Free Software Foundation, either version 3 of the License, or
   (at your option) any later version.
   
   xtb is distributed in the hope that it will be useful,
   but WITHOUT ANY WARRANTY; without even the implied warranty of
   MERCHANTABILITY or FITNESS FOR A PARTICULAR PURPOSE.  See the
   GNU Lesser General Public License for more details.
   
   Cite this work as:
   * C. Bannwarth, E. Caldeweyher, S. Ehlert, A. Hansen, P. Pracht,
     J. Seibert, S. Spicher, S. Grimme, WIREs Comput. Mol. Sci., 2020, 11,
     e01493. DOI: 10.1002/wcms.1493
   
   for GFN2-xTB:
   * C. Bannwarth, S. Ehlert and S. Grimme., J. Chem. Theory Comput., 2019,
     15, 1652-1671. DOI: 10.1021/acs.jctc.8b01176
   for GFN1-xTB:
   * S. Grimme, C. Bannwarth, P. Shushkov, J. Chem. Theory Comput., 2017,
     13, 1989-2009. DOI: 10.1021/acs.jctc.7b00118
   for GFN0-xTB:
   * P. Pracht, E. Caldeweyher, S. Ehlert, S. Grimme, ChemRxiv, 2019, preprint.
     DOI: 10.26434/chemrxiv.8326202.v1
   for GFN-FF:
   * S. Spicher and S. Grimme, Angew. Chem. Int. Ed., 2020, 59, 15665-15673.
     DOI: 10.1002/anie.202004239
   
   for ALPB and GBSA implicit solvation:
   * S. Ehlert, M. Stahn, S. Spicher, S. Grimme, J. Chem. Theory Comput.,
     2021, 17, 4250-4261. DOI: 10.1021/acs.jctc.1c00471
   
   for DFT-D4:
   * E. Caldeweyher, C. Bannwarth and S. Grimme, J. Chem. Phys., 2017,
     147, 034112. DOI: 10.1063/1.4993215
   * E. Caldeweyher, S. Ehlert, A. Hansen, H. Neugebauer, S. Spicher,
     C. Bannwarth and S. Grimme, J. Chem. Phys., 2019, 150, 154122.
     DOI: 10.1063/1.5090222
   * E. Caldeweyher, J.-M. Mewes, S. Ehlert and S. Grimme, Phys. Chem. Chem. Phys.
     2020, 22, 8499-8512. DOI: 10.1039/D0CP00502A
   
   for sTDA-xTB:
   * S. Grimme and C. Bannwarth, J. Chem. Phys., 2016, 145, 054103.
     DOI: 10.1063/1.4959605
   
   in the mass-spec context:
   * V. Asgeirsson, C. Bauer and S. Grimme, Chem. Sci., 2017, 8, 4879.
     DOI: 10.1039/c7sc00601b
   * J. Koopman and S. Grimme, ACS Omega 2019, 4, 12, 15120-15133.
     DOI: 10.1021/acsomega.9b02011
   
   for metadynamics refer to:
   * S. Grimme, J. Chem. Theory Comput., 2019, 155, 2847-2862
     DOI: 10.1021/acs.jctc.9b00143
   
   for SPH calculations refer to:
   * S. Spicher and S. Grimme, J. Chem. Theory Comput., 2021, 17, 1701-1714
     DOI: 10.1021/acs.jctc.0c01306
   
   with help from (in alphabetical order)
   P. Atkinson, C. Bannwarth, F. Bohle, G. Brandenburg, E. Caldeweyher
   M. Checinski, S. Dohm, S. Ehlert, S. Ehrlich, I. Gerasimov, C. Hölzer
   A. Katbashev, J. Koopman, C. Lavigne, S. Lehtola, F. März, M. Müller,
   F. Musil, H. Neugebauer, J. Pisarek, C. Plett, P. Pracht, F. Pultar,
   J. Seibert, P. Shushkov, S. Spicher, M. Stahn, M. Steiner, T. Strunk,
   J. Stückrath, T. Rose, and J. Unsleber
   
 * started run on 2022/11/24 at 12:21:40.832     

           -------------------------------------------------
          |                Calculation Setup                |
           -------------------------------------------------

          program call               : xtb solvent_cluster.coord --gfn2 --sp --lmo --chrg 0
          hostname                   : cn0430
          coordinate file            : solvent_cluster.coord
          omp threads                :                     2

   ID    Z sym.   atoms
    1    8 o      1, 4, 7, 10, 13, 16, 19, 22, 25, 28, 31, 34, 37, 40, 43,
                  46, 49, 52, 55, 58, 61, 64, 67, 70, 73, 76, 79, 82, 85, 88,
                  91, 94, 97, 100, 103, 106, 109, 112, 115, 118, 121, 124,
                  127, 130, 133, 136, 139, 142, 145, 148, 151, 154, 157, 160,
                  163, 166, 169, 172, 175, 178, 181, 184, 187, 190, 193, 196,
                  199, 202, 205, 208, 211, 214, 217, 220, 223, 226, 229, 232,
                  235, 238, 241, 244, 247, 250, 253, 256, 259, 262, 265, 268,
                  271, 274, 277, 280, 283, 286, 289, 292, 295, 298, 301, 304,
                  307, 310, 313, 316, 319, 322, 325, 328, 331, 334, 337, 340,
                  343, 346, 349, 352, 355, 358, 361, 364, 367, 370, 373, 376,
                  379, 382, 385, 388, 391, 394, 397, 400, 403, 406, 409, 412,
                  415, 418, 421, 424, 427, 430, 433, 436, 439, 442, 445, 448,
                  451, 454, 457, 460, 463, 466, 469, 472, 475, 478, 481, 484,
                  487, 490, 493, 496, 499, 502, 505, 508, 511, 514, 517, 520,
                  523, 526, 529, 532, 535, 538, 541, 544, 547, 550, 553, 556,
                  559, 562, 565, 568, 571, 574, 577, 580, 583, 586, 589, 592,
                  595, 598, 601, 604, 607, 610, 613, 616, 619, 622, 625, 628,
                  631, 634, 637, 640, 643, 646, 649, 652, 655, 658, 661, 664,
                  667, 670, 673, 676, 679, 682, 685, 688, 691, 694, 697, 700,
                  703, 706, 709, 712, 715, 718, 721, 724, 727, 730, 733, 736,
                  739, 742, 745, 748, 751, 754
    2    1 h      2, 3, 5, 6, 8, 9, 11, 12, 14, 15, 17, 18, 20, 21, 23, 24,
                  26, 27, 29, 30, 32, 33, 35, 36, 38, 39, 41, 42, 44, 45, 47,
                  48, 50, 51, 53, 54, 56, 57, 59, 60, 62, 63, 65, 66, 68, 69,
                  71, 72, 74, 75, 77, 78, 80, 81, 83, 84, 86, 87, 89, 90, 92,
                  93, 95, 96, 98, 99, 101, 102, 104, 105, 107, 108, 110, 111,
                  113, 114, 116, 117, 119, 120, 122, 123, 125, 126, 128, 129,
                  131, 132, 134, 135, 137, 138, 140, 141, 143, 144, 146, 147,
                  149, 150, 152, 153, 155, 156, 158, 159, 161, 162, 164, 165,
                  167, 168, 170, 171, 173, 174, 176, 177, 179, 180, 182, 183,
                  185, 186, 188, 189, 191, 192, 194, 195, 197, 198, 200, 201,
                  203, 204, 206, 207, 209, 210, 212, 213, 215, 216, 218, 219,
                  221, 222, 224, 225, 227, 228, 230, 231, 233, 234, 236, 237,
                  239, 240, 242, 243, 245, 246, 248, 249, 251, 252, 254, 255,
                  257, 258, 260, 261, 263, 264, 266, 267, 269, 270, 272, 273,
                  275, 276, 278, 279, 281, 282, 284, 285, 287, 288, 290, 291,
                  293, 294, 296, 297, 299, 300, 302, 303, 305, 306, 308, 309,
                  311, 312, 314, 315, 317, 318, 320, 321, 323, 324, 326, 327,
                  329, 330, 332, 333, 335, 336, 338, 339, 341, 342, 344, 345,
                  347, 348, 350, 351, 353, 354, 356, 357, 359, 360, 362, 363,
                  365, 366, 368, 369, 371, 372, 374, 375, 377, 378, 380, 381,
                  383, 384, 386, 387, 389, 390, 392, 393, 395, 396, 398, 399,
                  401, 402, 404, 405, 407, 408, 410, 411, 413, 414, 416, 417,
                  419, 420, 422, 423, 425, 426, 428, 429, 431, 432, 434, 435,
                  437, 438, 440, 441, 443, 444, 446, 447, 449, 450, 452, 453,
                  455, 456, 458, 459, 461, 462, 464, 465, 467, 468, 470, 471,
                  473, 474, 476, 477, 479, 480, 482, 483, 485, 486, 488, 489,
                  491, 492, 494, 495, 497, 498, 500, 501, 503, 504, 506, 507,
                  509, 510, 512, 513, 515, 516, 518, 519, 521, 522, 524, 525,
                  527, 528, 530, 531, 533, 534, 536, 537, 539, 540, 542, 543,
                  545, 546, 548, 549, 551, 552, 554, 555, 557, 558, 560, 561,
                  563, 564, 566, 567, 569, 570, 572, 573, 575, 576, 578, 579,
                  581, 582, 584, 585, 587, 588, 590, 591, 593, 594, 596, 597,
                  599, 600, 602, 603, 605, 606, 608, 609, 611, 612, 614, 615,
                  617, 618, 620, 621, 623, 624, 626, 627, 629, 630, 632, 633,
                  635, 636, 638, 639, 641, 642, 644, 645, 647, 648, 650, 651,
                  653, 654, 656, 657, 659, 660, 662, 663, 665, 666, 668, 669,
                  671, 672, 674, 675, 677, 678, 680, 681, 683, 684, 686, 687,
                  689, 690, 692, 693, 695, 696, 698, 699, 701, 702, 704, 705,
                  707, 708, 710, 711, 713, 714, 716, 717, 719, 720, 722, 723,
                  725, 726, 728, 729, 731, 732, 734, 735, 737, 738, 740, 741,
                  743, 744, 746, 747, 749, 750, 752, 753, 755, 756

molecular fragmentation (1/2 indicates fragments):
111222222222222222222222222222222222222222222222222222222222222222222222
222222222222222222222222222222222222222222222222222222222222222222222222
222222222222222222222222222222222222222222222222222222222222222222222222
222222222222222222222222222222222222222222222222222222222222222222222222
222222222222222222222222222222222222222222222222222222222222222222222222
222222222222222222222222222222222222222222222222222222222222222222222222
222222222222222222222222222222222222222222222222222222222222222222222222
222222222222222222222222222222222222222222222222222222222222222222222222
222222222222222222222222222222222222222222222222222222222222222222222222
222222222222222222222222222222222222222222222222222222222222222222222222
222222222222222222222222222222222222
# atoms in fragment 1/2:     3   753
 fragment masses (1/2) :       18.02     4521.84
CMA distance (Bohr)    :  18.024
constraining FC (au)   :  0.0500

           -------------------------------------------------
          |                 G F N 2 - x T B                 |
           -------------------------------------------------

        Reference                      10.1021/acs.jctc.8b01176
      * Hamiltonian:
        H0-scaling (s, p, d)           1.850000    2.230000    2.230000
        zeta-weighting                 0.500000
      * Dispersion:
        s8                             2.700000
        a1                             0.520000
        a2                             5.000000
        s9                             5.000000
      * Repulsion:
        kExp                           1.500000    1.000000
        rExp                           1.000000
      * Coulomb:
        alpha                          2.000000
        third order                    shell-resolved
        anisotropic                    true
        a3                             3.000000
        a5                             4.000000
        cn-shift                       1.200000
        cn-exp                         4.000000
        max-rad                        5.000000


          ...................................................
          :                      SETUP                      :
          :.................................................:
          :  # basis functions                1512          :
          :  # atomic orbitals                1512          :
          :  # shells                         1008          :
          :  # electrons                      2016          :
          :  max. iterations                   250          :
          :  Hamiltonian                  GFN2-xTB          :
          :  restarted?                      false          :
          :  GBSA solvation                  false          :
          :  PC potential                    false          :
          :  electronic temp.          300.0000000     K    :
          :  accuracy                    1.0000000          :
          :  -> integral cutoff          0.2500000E+02      :
          :  -> integral neglect         0.1000000E-07      :
          :  -> SCF convergence          0.1000000E-05 Eh   :
          :  -> wf. convergence          0.1000000E-03 e    :
          :  Broyden damping             0.4000000          :
          ...................................................

 iter      E             dE          RMSdq      gap      omega  full diag
   1  -1290.9323252 -0.129093E+04  0.406E+00    8.52       0.0  T
   2  -1291.0112614 -0.789362E-01  0.241E+00    7.29       1.0  T
   3  -1291.0428096 -0.315481E-01  0.211E-01    5.55       1.0  T
   4  -1291.0483143 -0.550470E-02  0.465E-02    6.04       1.0  T
   5  -1291.0483946 -0.803612E-04  0.310E-02    5.97       1.0  T
   6  -1291.0484355 -0.408457E-04  0.454E-03    6.01       1.0  T
   7  -1291.0484382 -0.276578E-05  0.756E-04    6.01       4.8  T
   8  -1291.0484383 -0.308582E-07  0.389E-04    6.01       9.3  T
   9  -1291.0484383 -0.146990E-07  0.617E-05    6.01      58.9  T

   *** convergence criteria satisfied after 9 iterations ***

         #    Occupation            Energy/Eh            Energy/eV
      -------------------------------------------------------------
         1        2.0000           -0.6865544             -18.6821
       ...           ...                  ...                  ...
      1002        2.0000           -0.3516057              -9.5677
      1003        2.0000           -0.3474550              -9.4547
      1004        2.0000           -0.3460838              -9.4174
      1005        2.0000           -0.3393086              -9.2331
      1006        2.0000           -0.3288129              -8.9475
      1007        2.0000           -0.3143430              -8.5537
      1008        2.0000           -0.3055430              -8.3142 (HOMO)
      1009                         -0.0847301              -2.3056 (LUMO)
      1010                         -0.0706357              -1.9221
      1011                         -0.0635857              -1.7303
      1012                         -0.0566444              -1.5414
      1013                         -0.0530604              -1.4438
       ...                                ...                  ...
      1512                          0.4848266              13.1928
      -------------------------------------------------------------
                  HL-Gap            0.2208129 Eh            6.0086 eV
             Fermi-level           -0.1951365 Eh           -5.3099 eV
 
 localization/xTB-IFF output generation
 averaging CT terms over            2  occ. levels
 averaging CT terms over            1  virt. levels
 dipole moment from electron density (au)
     X       Y       Z   
   1.6404   2.9616   1.5240  total (Debye):    9.437
cpu  time for init local    0.78 s
wall time for init local    0.40 s
 doing rotations ...
 initialization of trafo matrix to unity

 converged in     16 iterations, threshold :   0.99998699D-06
 doing transformations ...
 lmo centers(Z=2) and atoms on file <lmocent.coord>
 LMO Fii/eV  ncent    charge center   contributions...
    1 LP   *******   0.00  -7.44327  -8.32010  13.40625  493O : 64.01  451O : 45.59  178O : 39.84  289O : 29.99  166O : 27.52  205O : 27.43   82O : 26.94  430O : 26.89   49O : 26.71  505O : 25.81  709O : 25.76  103O : 25.50
  229O : 23.76  544O : 23.72   76O : 23.01  268O : 22.54  301O : 21.38  262O : 21.02  499O : 20.81  532O : 19.89  181O : 19.54  751O : 19.17  424O : 18.46  148O : 18.12
  322O : 17.77  433O : 17.56  379O : 17.44  727O : 17.33  106O : 17.25  214O : 17.10  361O : 15.98   55O : 15.97   70O : 15.89  151O : 15.83  340O : 15.69  346O : 15.45
   79O : 15.36  280O : 15.20  397O : 14.92   19O : 14.88  589O : 14.30   58O : 14.16   16O : 14.06  235O : 14.05  631O : 13.56   28O : 13.51  118O : 13.14  463O : 13.12
  445O : 13.09  100O : 12.95  412O : 12.84  133O : 12.80  607O : 12.78  550O : 12.59  715O : 12.40   31O : 12.24  559O : 12.23  664O : 12.16  625O : 11.95  676O : 11.94
  172O : 11.89  208O : 11.77  193O : 11.71   85O : 11.68  454O : 11.60  592O : 11.55  670O : 11.44  310O : 11.42  562O : 11.39   40O : 11.21  202O : 11.20  754O : 11.10
  307O : 11.06  319O : 11.05  121O : 10.45  748O : 10.26   43O : 10.20  334O : 10.18   34O : 10.11  349O :  9.76    7O :  9.70  703O :  9.66    1O :  9.64  658O :  9.52
  292O :  9.28  490O :  8.92  508O :  8.82   13O :  8.78  547O :  8.65  529O :  8.53  124O :  8.41  358O :  8.38  175O :  8.37  637O :  8.34  661O :  8.30  145O :  8.23
  481O :  8.22  688O :  8.13  520O :  8.08  511O :  8.04  187O :  8.01  244O :  7.93  679O :  7.74   61O :  7.70  274O :  7.68  304O :  7.67  238O :  7.65  427O :  7.59
  169O :  7.58   37O :  7.57  382O :  7.47  697O :  7.47  586O :  7.43  466O :  7.41  139O :  7.24  601O :  7.13  157O :  7.12  460O :  7.01  655O :  6.85  580O :  6.84
  496O :  6.78  613O :  6.75  130O :  6.64  487O :  6.61  535O :  6.57  250O :  6.55   25O :  6.52  469O :  6.52  373O :  6.47  418O :  6.40  256O :  6.34  220O :  6.33
  507H :  6.26  247O :  6.21  313O :  6.17  616O :  5.96  163O :  5.93  211O :  5.92  745O :  5.86  718O :  5.78  154O :  5.77  652O :  5.66  742O :  5.44  421O :  5.44
  442O :  5.44  232O :  5.42  643O :  5.36  622O :  5.31  475O :  5.26  478O :  5.24  352O :  5.24  277O :  5.09  376O :  5.02  583O :  5.00  394O :  4.92  439O :  4.89
  568O :  4.87  196O :  4.83   73O :  4.82  391O :  4.82  367O :  4.75  316O :  4.72  241O :  4.66  184O :  4.63  538O :  4.62  105H :  4.50  109O :  4.48   78H :  4.42
  355O :  4.40  541O :  4.34  328O :  4.34  640O :  4.23    4O :  4.21  739O :  4.21  598O :  4.16  127O :  3.98   52O :  3.98  455H :  3.92   94O :  3.92  502O :  3.83
  217O :  3.82  142O :  3.68  406O :  3.68   97O :  3.49   88O :  3.47  167H :  3.42  619O :  3.37  385O :  3.36  710H :  3.34  226O :  3.32  265O :  3.32  694O :  3.31
  331O :  3.18  259O :  3.12  337O :  3.03  182H :  3.02  448O :  2.86  574O :  2.85  190O :  2.84  595O :  2.83  413H :  2.77  436O :  2.61   10O :  2.58  388O :  2.55
   83H :  2.55  730O :  2.55  298O :  2.55  706O :  2.54   64O :  2.49  415O :  2.43  472O :  2.33  429H :  2.29  526O :  2.28  364O :  2.21  153H :  2.17  571O :  2.14
  484O :  2.05   22O :  2.05  431H :  2.05   80H :  2.04   67O :  2.03  419H :  2.01  195H :  2.00  565O :  1.99  556O :  1.95  646O :  1.84  286O :  1.82  290H :  1.81
  682O :  1.79  179H :  1.79  733O :  1.78  112O :  1.76  659H :  1.74  546H :  1.72  223O :  1.70   41H :  1.70  370O :  1.69  691O :  1.68  158H :  1.65  320H :  1.61
  295O :  1.61  673O :  1.59  108H :  1.59  457O :  1.59  610O :  1.58  728H :  1.58  581H :  1.57   29H :  1.54  700O :  1.52  171H :  1.52  712O :  1.49  149H :  1.49
  378H :  1.46  494H :  1.45  744H :  1.45  517O :  1.43  510H :  1.41  122H :  1.40  522H :  1.37  698H :  1.37  514O :  1.35  409O :  1.29  271O :  1.28  662H :  1.28
  666H :  1.28   99H :  1.28  156H :  1.26  736O :  1.26  160O :  1.26  303H :  1.25  446H :  1.25  513H :  1.24   44H :  1.24   63H :  1.18  357H :  1.18  705H :  1.18
   20H :  1.17  746H :  1.16  325O :  1.16  545H :  1.15  219H :  1.14  604O :  1.14  638H :  1.10  308H :  1.10  216H :  1.09  724O :  1.08  384H :  1.06  660H :  1.05
  628O :  1.03  191H :  1.01  531H :  1.00  323H :  0.99  717H :  0.98  667O :  0.98  671H :  0.97  553O :  0.97  434H :  0.97  634O :  0.94  242H :  0.92  542H :  0.91
  183H :  0.90  672H :  0.90   36H :  0.89  527H :  0.89   60H :  0.87   72H :  0.86  603H :  0.86  400O :  0.85  258H :  0.84  614H :  0.82  136O :  0.82  632H :  0.81
  146H :  0.81  399H :  0.80  685O :  0.80  354H :  0.79  437H :  0.78   56H :  0.77  351H :  0.76  102H :  0.75  720H :  0.74  198H :  0.74  143H :  0.74  443H :  0.74
   71H :  0.73  620H :  0.73   74H :  0.73  276H :  0.71   27H :  0.71   26H :  0.70   17H :  0.69  140H :  0.68   33H :  0.68  721O :  0.67  278H :  0.66  362H :  0.65
  101H :  0.65  128H :  0.65  549H :  0.64  602H :  0.64  180H :  0.64  681H :  0.64   81H :  0.64   21H :  0.63  188H :  0.63  125H :  0.62  407H :  0.62  390H :  0.61
  177H :  0.60  649O :  0.60   50H :  0.59   48H :  0.59  212H :  0.58  596H :  0.58  587H :  0.58  462H :  0.58  168H :  0.57  150H :  0.57  480H :  0.56  300H :  0.56
  644H :  0.55  365H :  0.55  343O :  0.54  495H :  0.54  377H :  0.54  467H :  0.53  215H :  0.53  453H :  0.53   95H :  0.53  563H :  0.52  115O :  0.52  318H :  0.52
  523O :  0.52  225H :  0.51  543H :  0.51  134H :  0.51  403O :  0.50  263H :  0.49   46O :  0.49  564H :  0.49  588H :  0.48  461H :  0.48   14H :  0.47  432H :  0.47
   84H :  0.46  398H :  0.45  449H :  0.45   45H :  0.45  132H :  0.44  569H :  0.44  452H :  0.43  251H :  0.43    3H :  0.42  170H :  0.42  335H :  0.42  261H :  0.40
  345H :  0.40  309H :  0.39  314H :  0.39  570H :  0.39  483H :  0.38  473H :  0.38  680H :  0.38   91O :  0.38   92H :  0.38   77H :  0.38  233H :  0.37  269H :  0.37
  213H :  0.37   62H :  0.37  566H :  0.36  426H :  0.36  332H :  0.36  536H :  0.36  282H :  0.35  341H :  0.35  503H :  0.35  651H :  0.34  677H :  0.34  255H :  0.33
  283O :  0.33  617H :  0.33  321H :  0.33  189H :  0.32   35H :  0.32  131H :  0.32  199O :  0.31   38H :  0.31  201H :  0.31  422H :  0.29  141H :  0.29  654H :  0.29
  326H :  0.29  245H :  0.28  653H :  0.28  107H :  0.28  209H :  0.27  291H :  0.27  674H :  0.26  239H :  0.26   86H :  0.26  114H :  0.26  312H :  0.25  690H :  0.25
  104H :  0.25  552H :  0.25   89H :  0.25  135H :  0.24  257H :  0.24  371H :  0.24  723H :  0.24  402H :  0.24  173H :  0.24  497H :  0.24  692H :  0.23  441H :  0.23
  599H :  0.23  456H :  0.23  731H :  0.23  450H :  0.22  528H :  0.22  464H :  0.22  572H :  0.21  642H :  0.21  476H :  0.21  558H :  0.21  615H :  0.20  732H :  0.20
  498H :  0.20  645H :  0.20  741H :  0.20  425H :  0.20   69H :  0.19  530H :  0.19  228H :  0.19  504H :  0.19  470H :  0.19  534H :  0.19   53H :  0.19    2H :  0.18
   96H :  0.18  246H :  0.18  404H :  0.18  204H :  0.18  330H :  0.18  665H :  0.18  609H :  0.18  471H :  0.17  117H :  0.17  237H :  0.17  288H :  0.17  684H :  0.16
  725H :  0.16  479H :  0.16  482H :  0.16  693H :  0.16   23H :  0.16  393H :  0.16   54H :  0.16  582H :  0.16  359H :  0.15  699H :  0.15  366H :  0.15  623H :  0.15
  230H :  0.14  512H :  0.14  521H :  0.14  159H :  0.14  590H :  0.14  372H :  0.14  594H :  0.14  111H :  0.14  192H :  0.14  281H :  0.14    9H :  0.13   42H :  0.13
  579H :  0.13  708H :  0.13  627H :  0.13  417H :  0.13  387H :  0.13  585H :  0.13  348H :  0.13  248H :  0.13  749H :  0.12  249H :  0.12  350H :  0.12  438H :  0.11
  264H :  0.11   11H :  0.11  155H :  0.11  636H :  0.11  577O :  0.11  294H :  0.11  253O :  0.11  203H :  0.11  686H :  0.11  302H :  0.10  743H :  0.10  380H :  0.10
  381H :  0.10  447H :  0.10  704H :  0.10  386H :  0.09    6H :  0.09  218H :  0.09  540H :  0.09  735H :  0.09   18H :  0.09  695H :  0.09  200H :  0.09  668H :  0.08
  363H :  0.08  164H :  0.08  266H :  0.08   39H :  0.08  410H :  0.08  224H :  0.08  657H :  0.08  605H :  0.08  537H :  0.07  119H :  0.07  600H :  0.07
    2 LP   *******   0.00  21.22479  48.12478 -22.20133  493O : 47.88  451O : 43.01  178O : 33.53  289O : 25.24  166O : 23.14  205O : 23.09   82O : 22.69  430O : 22.63   49O : 22.48  709O : 22.02  505O : 21.72  103O : 21.45
  229O : 19.99  544O : 19.97   76O : 19.36  268O : 18.97  301O : 17.99  262O : 17.69  499O : 17.51  532O : 16.74  181O : 16.48  751O : 16.13  424O : 15.54  148O : 15.28
  322O : 14.96  433O : 14.78  379O : 14.68  727O : 14.59  106O : 14.52  214O : 14.39   55O : 13.49  361O : 13.45   70O : 13.39  151O : 13.33  340O : 13.21  346O : 13.00
   79O : 12.93  280O : 12.80  397O : 12.56   19O : 12.52  589O : 12.04   58O : 11.92   16O : 11.83  235O : 11.83  631O : 11.41   28O : 11.37  118O : 11.05  445O : 11.02
  463O : 10.92  100O : 10.90  412O : 10.81  133O : 10.77  607O : 10.75  550O : 10.60  715O : 10.44   31O : 10.30  559O : 10.29  664O : 10.23  454O : 10.11  625O : 10.06
  676O : 10.05  172O : 10.04  208O :  9.90  193O :  9.85   85O :  9.83  592O :  9.72  670O :  9.63  310O :  9.61  562O :  9.58   40O :  9.44  202O :  9.43  754O :  9.35
  307O :  9.31  319O :  9.21  121O :  8.79  748O :  8.64  334O :  8.57   34O :  8.51   43O :  8.46  349O :  8.21    7O :  8.17  703O :  8.13    1O :  8.11  658O :  8.02
  292O :  7.81  490O :  7.51  508O :  7.42   13O :  7.39  547O :  7.28  529O :  7.18  124O :  7.09  358O :  7.05  175O :  7.05  637O :  7.02  661O :  6.99  145O :  6.93
  481O :  6.91  688O :  6.84  520O :  6.80  511O :  6.77  187O :  6.73  244O :  6.68  679O :  6.51   61O :  6.51  274O :  6.46  304O :  6.45  238O :  6.44  427O :  6.39
  169O :  6.38   37O :  6.37  382O :  6.29  697O :  6.29  586O :  6.27  466O :  6.24  139O :  6.09  601O :  6.00  157O :  5.99  460O :  5.90  655O :  5.77  580O :  5.75
  496O :  5.71  613O :  5.67  130O :  5.58  487O :  5.56  535O :  5.53  250O :  5.51  469O :  5.48  373O :  5.45   25O :  5.42  418O :  5.39  256O :  5.34  220O :  5.33
  507H :  5.27  247O :  5.23  313O :  5.19  616O :  5.01  163O :  4.99  211O :  4.99  745O :  4.93  718O :  4.86  154O :  4.86  652O :  4.76  742O :  4.58  421O :  4.58
  442O :  4.58  232O :  4.56  643O :  4.51  622O :  4.47  475O :  4.43  478O :  4.41  352O :  4.41  277O :  4.29  376O :  4.22  583O :  4.21  394O :  4.14  439O :  4.11
  568O :  4.10  196O :  4.07   73O :  4.06  391O :  4.06  367O :  4.00  316O :  3.97  241O :  3.92  184O :  3.89  538O :  3.89  105H :  3.79  109O :  3.77  455H :  3.77
   78H :  3.72  355O :  3.71  541O :  3.66  328O :  3.65  640O :  3.56  739O :  3.54    4O :  3.53  598O :  3.50   52O :  3.35  127O :  3.35   94O :  3.30  502O :  3.22
  217O :  3.22  142O :  3.10  406O :  3.09  710H :  3.09   97O :  2.93   88O :  2.92  167H :  2.88  619O :  2.84  385O :  2.83  226O :  2.80  265O :  2.79  694O :  2.79
  331O :  2.68  259O :  2.63  337O :  2.54  182H :  2.53  448O :  2.41  574O :  2.40  190O :  2.39  595O :  2.38  413H :  2.33  436O :  2.20   10O :  2.17  388O :  2.15
  730O :  2.14  298O :  2.14   83H :  2.14  706O :  2.13   64O :  2.09  415O :  2.05  472O :  1.96  429H :  1.93  526O :  1.92  364O :  1.85  153H :  1.82  571O :  1.80
  484O :  1.73   22O :  1.72  431H :  1.72   80H :  1.71   67O :  1.71  419H :  1.69  195H :  1.68  565O :  1.68  556O :  1.64  646O :  1.54  286O :  1.53  290H :  1.53
  682O :  1.51  179H :  1.50  733O :  1.49  112O :  1.49  659H :  1.46  546H :  1.45  223O :  1.43   41H :  1.43  370O :  1.43  691O :  1.41  158H :  1.39  295O :  1.35
  320H :  1.34  673O :  1.34  108H :  1.34  457O :  1.33  728H :  1.33  610O :  1.33  581H :  1.32  494H :  1.30   29H :  1.29  700O :  1.28  171H :  1.28  712O :  1.25
  149H :  1.25  378H :  1.23  744H :  1.22  517O :  1.20  510H :  1.19  122H :  1.18  522H :  1.15  698H :  1.15  514O :  1.13  409O :  1.09  271O :  1.08  662H :  1.08
  666H :  1.07   99H :  1.07  156H :  1.06  736O :  1.06  160O :  1.06  303H :  1.05  446H :  1.05  513H :  1.04   44H :  1.00   63H :  0.99  357H :  0.99  705H :  0.99
   20H :  0.99  746H :  0.98  325O :  0.97  545H :  0.97  219H :  0.96  604O :  0.96  638H :  0.92  308H :  0.92  216H :  0.92  724O :  0.91  384H :  0.89  660H :  0.88
  628O :  0.87  191H :  0.85  531H :  0.84  323H :  0.83  717H :  0.83  667O :  0.82  671H :  0.82  553O :  0.82  434H :  0.82  634O :  0.79  242H :  0.78  542H :  0.77
  672H :  0.76   36H :  0.75  527H :  0.75   72H :  0.74   60H :  0.73  603H :  0.72  400O :  0.72  258H :  0.71  614H :  0.69  136O :  0.69  183H :  0.69  632H :  0.68
  146H :  0.68  399H :  0.68  685O :  0.68  354H :  0.66  437H :  0.65   56H :  0.64  351H :  0.64  102H :  0.63  720H :  0.62  198H :  0.62  143H :  0.62  443H :  0.62
  620H :  0.61   71H :  0.61   74H :  0.61  276H :  0.60   27H :  0.59   26H :  0.58   17H :  0.58  140H :  0.57   33H :  0.57  721O :  0.56  278H :  0.55  362H :  0.55
  101H :  0.55  128H :  0.54  549H :  0.54  602H :  0.54  180H :  0.54  681H :  0.54   81H :  0.54   21H :  0.53  188H :  0.53  125H :  0.52  407H :  0.52  495H :  0.51
  177H :  0.51  390H :  0.51  649O :  0.51   50H :  0.50   48H :  0.50  587H :  0.50  212H :  0.49  596H :  0.49  462H :  0.49  150H :  0.48  168H :  0.48  480H :  0.47
  300H :  0.47  644H :  0.46  365H :  0.46  343O :  0.46  377H :  0.45  467H :  0.45  215H :  0.45   95H :  0.44  563H :  0.44  115O :  0.44  318H :  0.44  523O :  0.44
  225H :  0.43  543H :  0.43  134H :  0.43  403O :  0.42   46O :  0.42  263H :  0.41  564H :  0.41  461H :  0.40   14H :  0.40  588H :  0.40  432H :  0.39   84H :  0.39
  398H :  0.38  449H :  0.38  453H :  0.38  132H :  0.37  569H :  0.37  251H :  0.36    3H :  0.36  170H :  0.35   45H :  0.35  335H :  0.35  261H :  0.34  345H :  0.33
  309H :  0.33  314H :  0.33  570H :  0.33  483H :  0.32  473H :  0.32  680H :  0.32   91O :  0.32   92H :  0.32   77H :  0.32  233H :  0.31  269H :  0.31   62H :  0.31
  213H :  0.31  332H :  0.31  255H :  0.31  566H :  0.31  426H :  0.30  536H :  0.30  282H :  0.30  341H :  0.30  503H :  0.29  651H :  0.29  452H :  0.28  677H :  0.28
  283O :  0.28  617H :  0.28  189H :  0.27   35H :  0.27  321H :  0.27  131H :  0.27  199O :  0.26   38H :  0.26  201H :  0.26  422H :  0.25  141H :  0.25  654H :  0.25
  326H :  0.24  245H :  0.24  653H :  0.23  107H :  0.23  209H :  0.23  291H :  0.23  674H :  0.22  239H :  0.22  114H :  0.22   86H :  0.22  312H :  0.21  690H :  0.21
  104H :  0.21  552H :  0.21   89H :  0.21  257H :  0.21  135H :  0.21  371H :  0.20  723H :  0.20  402H :  0.20  173H :  0.20  497H :  0.20  692H :  0.20  456H :  0.20
  441H :  0.20  599H :  0.19  731H :  0.19  528H :  0.19  450H :  0.18  572H :  0.18  642H :  0.18  476H :  0.17  558H :  0.17  615H :  0.17  732H :  0.17  464H :  0.17
  498H :  0.17  645H :  0.17  741H :  0.17  425H :  0.16   69H :  0.16  530H :  0.16  228H :  0.16  504H :  0.16  470H :  0.16  534H :  0.16   53H :  0.16    2H :  0.15
   96H :  0.15  404H :  0.15  246H :  0.15  204H :  0.15  330H :  0.15  665H :  0.15  609H :  0.15  471H :  0.15  117H :  0.15  237H :  0.15  288H :  0.14  684H :  0.14
  725H :  0.14  479H :  0.13  482H :  0.13  693H :  0.13   23H :  0.13  393H :  0.13   54H :  0.13  582H :  0.13  359H :  0.13  699H :  0.13  366H :  0.13  623H :  0.13
  230H :  0.12  512H :  0.12  253O :  0.12  521H :  0.12  159H :  0.12  590H :  0.12  372H :  0.12  594H :  0.12  111H :  0.12  192H :  0.12  281H :  0.12   42H :  0.11
    9H :  0.11  708H :  0.11  579H :  0.11  627H :  0.11  417H :  0.11  387H :  0.11  585H :  0.11  348H :  0.11  248H :  0.10  249H :  0.10  749H :  0.10  350H :  0.10
  438H :  0.10  264H :  0.10  577O :  0.09   11H :  0.09  155H :  0.09  636H :  0.09  294H :  0.09  203H :  0.09  686H :  0.09  302H :  0.09  743H :  0.09  380H :  0.09
  381H :  0.08  447H :  0.08  704H :  0.08  386H :  0.08    6H :  0.08  218H :  0.08  540H :  0.08  735H :  0.08   18H :  0.07  695H :  0.07  200H :  0.07  668H :  0.07
  363H :  0.07  164H :  0.07  266H :  0.07
    3 LP   *******   0.00  37.80471  11.62640 -71.89501  493O : 34.95  451O : 28.01  178O : 27.43  289O : 18.42  166O : 16.91  205O : 16.85   82O : 16.55   49O : 16.41  430O : 16.10  709O : 16.07  505O : 15.86  103O : 15.67
  229O : 14.60  544O : 14.57   76O : 14.14  268O : 13.85  301O : 13.13  262O : 12.91  499O : 12.78  532O : 12.22  181O : 12.02  751O : 11.77  424O : 11.34  148O : 11.14
  322O : 10.92  433O : 10.79  379O : 10.71  727O : 10.65  106O : 10.60  214O : 10.50   55O :  9.84  361O :  9.82   70O :  9.76  151O :  9.72  340O :  9.64  346O :  9.49
   79O :  9.44  280O :  9.34  397O :  9.17   19O :  9.14  589O :  8.79   58O :  8.70   16O :  8.64  235O :  8.63  631O :  8.33   28O :  8.30  118O :  8.07  463O :  8.06
  445O :  8.04  100O :  7.95  412O :  7.89  133O :  7.86  607O :  7.79  550O :  7.74  715O :  7.62   31O :  7.52  559O :  7.51  664O :  7.47  676O :  7.34  172O :  7.33
  625O :  7.29  208O :  7.23  193O :  7.19   85O :  7.18  454O :  7.12  592O :  7.09  670O :  7.03  310O :  7.02  562O :  6.96   40O :  6.89  202O :  6.88  754O :  6.83
  307O :  6.79  319O :  6.79  121O :  6.42  748O :  6.30   43O :  6.26  334O :  6.25   34O :  6.21  349O :  5.99    7O :  5.96  703O :  5.94    1O :  5.92  658O :  5.85
  292O :  5.70  490O :  5.48  508O :  5.42   13O :  5.39  547O :  5.31  529O :  5.24  124O :  5.17  175O :  5.15  358O :  5.15  637O :  5.12  661O :  5.10  145O :  5.06
  481O :  5.05  688O :  5.00  520O :  4.97  511O :  4.94  187O :  4.92  244O :  4.87  679O :  4.76   61O :  4.75  274O :  4.72  238O :  4.70  304O :  4.68  427O :  4.66
  169O :  4.65   37O :  4.65  382O :  4.59  697O :  4.59  586O :  4.57  466O :  4.55  139O :  4.45  157O :  4.37  601O :  4.36  460O :  4.31  655O :  4.21  580O :  4.20
  496O :  4.17  613O :  4.15  130O :  4.07  487O :  4.06  535O :  4.04  250O :  4.02  469O :  4.00  373O :  3.98   25O :  3.96  418O :  3.93  256O :  3.90  220O :  3.89
  507H :  3.85  247O :  3.82  313O :  3.79  616O :  3.66  163O :  3.64  211O :  3.64  745O :  3.60  718O :  3.55  154O :  3.55  652O :  3.48  742O :  3.34  442O :  3.34
  421O :  3.34  232O :  3.33  643O :  3.30  622O :  3.26  475O :  3.23  478O :  3.22  352O :  3.22  277O :  3.13  376O :  3.08  583O :  3.06  394O :  3.02  439O :  3.00
  568O :  2.99  196O :  2.97   73O :  2.96  391O :  2.96  367O :  2.92  316O :  2.90  241O :  2.86  184O :  2.84  538O :  2.84  105H :  2.77  109O :  2.75   78H :  2.71
  355O :  2.70  328O :  2.67  541O :  2.67  640O :  2.60    4O :  2.59  739O :  2.59  598O :  2.55   52O :  2.45  455H :  2.41   94O :  2.41  502O :  2.35  217O :  2.35
  127O :  2.33  142O :  2.26  406O :  2.26  710H :  2.26   97O :  2.14   88O :  2.13  167H :  2.10  619O :  2.07  385O :  2.06  226O :  2.04  265O :  2.04  694O :  2.03
  331O :  1.95  259O :  1.91  337O :  1.86  182H :  1.84  448O :  1.76  574O :  1.75  190O :  1.75  595O :  1.74  413H :  1.70  436O :  1.61   10O :  1.59  388O :  1.57
  298O :  1.56  730O :  1.56   83H :  1.56  706O :  1.56   64O :  1.53  415O :  1.50  472O :  1.43  429H :  1.41  526O :  1.40  364O :  1.36  153H :  1.33  571O :  1.32
  484O :  1.26   22O :  1.26   80H :  1.25   67O :  1.25  431H :  1.25  419H :  1.23  195H :  1.23  565O :  1.22  556O :  1.20  646O :  1.13  286O :  1.11  290H :  1.11
  682O :  1.10  733O :  1.09  112O :  1.08  659H :  1.07  546H :  1.06  223O :  1.05   41H :  1.05  370O :  1.04  691O :  1.03  158H :  1.01  320H :  0.99  295O :  0.99
  179H :  0.98  673O :  0.98  108H :  0.98  457O :  0.97  728H :  0.97  610O :  0.97  581H :  0.97  494H :  0.95   29H :  0.95  700O :  0.93  171H :  0.93  149H :  0.91
  712O :  0.91  378H :  0.89  744H :  0.89  517O :  0.88  510H :  0.87  122H :  0.86  522H :  0.84  698H :  0.84  514O :  0.83  409O :  0.79  271O :  0.79  662H :  0.79
   99H :  0.78  666H :  0.78  156H :  0.77  736O :  0.77  160O :  0.77  303H :  0.77  446H :  0.77  513H :  0.76   44H :  0.76   63H :  0.73  357H :  0.72  705H :  0.72
   20H :  0.72  746H :  0.71  325O :  0.71  545H :  0.71  219H :  0.70  604O :  0.70  638H :  0.67  308H :  0.67  216H :  0.67  724O :  0.66  384H :  0.65  660H :  0.64
  628O :  0.63  191H :  0.62  531H :  0.62  323H :  0.61  717H :  0.60  667O :  0.60  671H :  0.60  553O :  0.60  434H :  0.60  634O :  0.58  242H :  0.57  542H :  0.56
  672H :  0.55   36H :  0.55  527H :  0.55   60H :  0.53   72H :  0.53  603H :  0.53  400O :  0.53  258H :  0.52  614H :  0.51  136O :  0.50  183H :  0.50  632H :  0.50
  146H :  0.50  399H :  0.49  685O :  0.49  354H :  0.49  437H :  0.48   56H :  0.47  351H :  0.47  102H :  0.46  720H :  0.46  198H :  0.46  143H :  0.45  443H :  0.45
   71H :  0.45  620H :  0.45   74H :  0.45  180H :  0.44  276H :  0.44   27H :  0.43   26H :  0.43   17H :  0.42  140H :  0.42   33H :  0.41  721O :  0.41  278H :  0.40
  362H :  0.40  101H :  0.40  549H :  0.40  602H :  0.40  681H :  0.39   81H :  0.39  128H :  0.39   21H :  0.39  188H :  0.38  125H :  0.38  407H :  0.38  495H :  0.38
  390H :  0.37   48H :  0.37  177H :  0.37  649O :  0.37   50H :  0.36  587H :  0.36  212H :  0.36  596H :  0.36  462H :  0.35  150H :  0.35  168H :  0.35  480H :  0.34
  300H :  0.34  644H :  0.34  365H :  0.34  343O :  0.33  377H :  0.33  467H :  0.33  215H :  0.33  453H :  0.32   95H :  0.32  115O :  0.32  318H :  0.32  225H :  0.32
  543H :  0.32  523O :  0.31  563H :  0.31  134H :  0.31  403O :  0.31   46O :  0.31  564H :  0.30  263H :  0.30  461H :  0.29   14H :  0.29  588H :  0.29   84H :  0.28
  398H :  0.28  449H :  0.28   45H :  0.28  132H :  0.27  569H :  0.27  452H :  0.27  251H :  0.26    3H :  0.26  432H :  0.26  170H :  0.26  335H :  0.26  261H :  0.25
  345H :  0.24  309H :  0.24  314H :  0.24  570H :  0.24  483H :  0.24  473H :  0.24  680H :  0.23   91O :  0.23   92H :  0.23   77H :  0.23  233H :  0.23  269H :  0.23
   62H :  0.23  213H :  0.23  332H :  0.22  566H :  0.22  426H :  0.22  536H :  0.22  282H :  0.22  341H :  0.22  503H :  0.21  651H :  0.21  677H :  0.21  255H :  0.21
  283O :  0.20  617H :  0.20  321H :  0.20  189H :  0.20   35H :  0.20  131H :  0.19  199O :  0.19   38H :  0.19  201H :  0.19  422H :  0.18  141H :  0.18  654H :  0.18
  326H :  0.18  245H :  0.17  653H :  0.17  107H :  0.17  209H :  0.17  291H :  0.17  674H :  0.16  239H :  0.16   86H :  0.16  114H :  0.16  312H :  0.15  690H :  0.15
  104H :  0.15  552H :  0.15   89H :  0.15  135H :  0.15  257H :  0.15  371H :  0.15  723H :  0.15  402H :  0.15  173H :  0.15  497H :  0.14  692H :  0.14  441H :  0.14
  456H :  0.14  599H :  0.14  731H :  0.14  450H :  0.14  528H :  0.14  464H :  0.13  572H :  0.13  642H :  0.13  476H :  0.13  558H :  0.13  615H :  0.13  732H :  0.13
  498H :  0.12  645H :  0.12  741H :  0.12  425H :  0.12   69H :  0.12  530H :  0.12  228H :  0.12  504H :  0.12  470H :  0.12  534H :  0.12   53H :  0.11    2H :  0.11
   96H :  0.11  404H :  0.11  246H :  0.11  204H :  0.11  330H :  0.11  665H :  0.11  471H :  0.11  117H :  0.11  237H :  0.11  288H :  0.11  609H :  0.10  684H :  0.10
  725H :  0.10  479H :  0.10  482H :  0.10  693H :  0.10   23H :  0.10  393H :  0.10   54H :  0.10  582H :  0.10  359H :  0.09  699H :  0.09  366H :  0.09  623H :  0.09
  230H :  0.09  512H :  0.09  521H :  0.09  159H :  0.09  372H :  0.09  590H :  0.09  594H :  0.09  111H :  0.08  192H :  0.08  281H :  0.08    9H :  0.08   42H :  0.08
  579H :  0.08  708H :  0.08  417H :  0.08  387H :  0.08  585H :  0.08  348H :  0.08  248H :  0.08  749H :  0.08  249H :  0.07  350H :  0.07  627H :  0.07  438H :  0.07
    4 LP   *******   0.00 -28.82049  16.91773 -65.57514  493O : 29.96  451O : 24.01  178O : 20.98  289O : 20.03  166O : 14.49  205O : 14.45   82O : 14.18  430O : 14.16   49O : 14.07  709O : 13.78  505O : 13.60  103O : 13.43
  229O : 12.51  544O : 12.49   76O : 12.12  268O : 11.87  301O : 11.23  262O : 11.07  499O : 10.96  532O : 10.45  181O : 10.31  751O : 10.09  424O :  9.72  148O :  9.54
  322O :  9.35  433O :  9.25  379O :  9.18  727O :  9.13  106O :  9.08  214O :  9.00   55O :  8.44  361O :  8.42   70O :  8.37  151O :  8.34  340O :  8.26  346O :  8.14
   79O :  8.10  280O :  8.01  397O :  7.86   19O :  7.84  589O :  7.53   58O :  7.46  235O :  7.40   16O :  7.40  631O :  7.14   28O :  7.12  118O :  6.92  463O :  6.91
  445O :  6.90  100O :  6.82  412O :  6.76  133O :  6.74  607O :  6.73  550O :  6.63  715O :  6.53  559O :  6.44   31O :  6.43  664O :  6.40  625O :  6.29  676O :  6.29
  172O :  6.28  208O :  6.20  193O :  6.17   85O :  6.15  454O :  6.11  592O :  6.08  670O :  6.02  310O :  6.01  562O :  6.00   40O :  5.90  202O :  5.90  754O :  5.85
  307O :  5.82  319O :  5.82  121O :  5.50  748O :  5.40   43O :  5.37  334O :  5.36   34O :  5.33  349O :  5.14    7O :  5.11  703O :  5.09    1O :  5.08  658O :  5.02
  292O :  4.89  490O :  4.70  508O :  4.64   13O :  4.62  547O :  4.55  529O :  4.49  124O :  4.43  358O :  4.41  175O :  4.41  637O :  4.39  661O :  4.37  145O :  4.34
  481O :  4.32  688O :  4.28  520O :  4.26  511O :  4.24  187O :  4.22  244O :  4.18  679O :  4.08   61O :  4.07  274O :  4.04  304O :  4.04  238O :  4.03  427O :  4.00
  169O :  3.99   37O :  3.99  382O :  3.93  697O :  3.93  586O :  3.92  466O :  3.90  139O :  3.81  601O :  3.75  157O :  3.75  460O :  3.69  655O :  3.61  580O :  3.60
  496O :  3.57  613O :  3.55  130O :  3.49  487O :  3.48  535O :  3.46  250O :  3.45  469O :  3.43  373O :  3.41   25O :  3.40  418O :  3.37  220O :  3.35  256O :  3.34
  507H :  3.31  247O :  3.27  313O :  3.25  616O :  3.14  163O :  3.12  211O :  3.12  745O :  3.08  718O :  3.04  154O :  3.04  652O :  2.98  742O :  2.87  421O :  2.87
  442O :  2.87  232O :  2.86  643O :  2.82  622O :  2.80  475O :  2.77  352O :  2.76  277O :  2.68  478O :  2.66  376O :  2.64  583O :  2.63  394O :  2.59  439O :  2.57
  568O :  2.57   73O :  2.54  391O :  2.54  367O :  2.50  196O :  2.50  316O :  2.49  241O :  2.45  184O :  2.44  538O :  2.43  105H :  2.37  109O :  2.36   78H :  2.33
  355O :  2.32  541O :  2.31  328O :  2.29  640O :  2.23    4O :  2.22  739O :  2.22  598O :  2.19   52O :  2.10  127O :  2.10  455H :  2.07   94O :  2.02  502O :  2.02
  217O :  2.01  142O :  1.94  406O :  1.94  710H :  1.94   97O :  1.84   88O :  1.83  167H :  1.80  619O :  1.77  385O :  1.77  226O :  1.75  265O :  1.75  694O :  1.74
  331O :  1.67  259O :  1.64  337O :  1.59  182H :  1.58  448O :  1.51  574O :  1.50  190O :  1.50  595O :  1.49  413H :  1.46  436O :  1.38   10O :  1.36  388O :  1.34
   83H :  1.34  298O :  1.34  730O :  1.34  706O :  1.34   64O :  1.31  415O :  1.28  472O :  1.23  429H :  1.21  526O :  1.20  364O :  1.16  153H :  1.14  571O :  1.13
  484O :  1.08   22O :  1.08  431H :  1.08   80H :  1.07   67O :  1.07  419H :  1.06  195H :  1.05  565O :  1.05  556O :  1.03  646O :  0.97  286O :  0.95  682O :  0.94
  179H :  0.94  733O :  0.93  112O :  0.93  659H :  0.92  546H :  0.91  223O :  0.90   41H :  0.90  370O :  0.89  691O :  0.88  158H :  0.87  290H :  0.86  320H :  0.85
  295O :  0.85  673O :  0.84  108H :  0.84  457O :  0.84  728H :  0.83  610O :  0.83  581H :  0.83  494H :  0.81   29H :  0.81  700O :  0.80  171H :  0.80  712O :  0.78
  149H :  0.78  378H :  0.77  744H :  0.76  517O :  0.75  510H :  0.74  122H :  0.74  522H :  0.72  698H :  0.72  514O :  0.71  409O :  0.68  271O :  0.68  662H :  0.67
   99H :  0.67  666H :  0.67  156H :  0.66  736O :  0.66  160O :  0.66  446H :  0.66  303H :  0.66  513H :  0.65   44H :  0.65   63H :  0.62  357H :  0.62  705H :  0.62
   20H :  0.62  746H :  0.61  325O :  0.61  545H :  0.61  219H :  0.60  604O :  0.60  638H :  0.58  308H :  0.58  216H :  0.58  724O :  0.57  384H :  0.56  660H :  0.55
  628O :  0.54  191H :  0.53  531H :  0.53  323H :  0.52  717H :  0.52  667O :  0.52  671H :  0.51  553O :  0.51  434H :  0.51  634O :  0.49  242H :  0.49  542H :  0.48
  672H :  0.47   36H :  0.47  527H :  0.47   60H :  0.46   72H :  0.46  543H :  0.45  603H :  0.45  400O :  0.45  258H :  0.44  614H :  0.43  136O :  0.43  183H :  0.43
  632H :  0.43  146H :  0.42  399H :  0.42  685O :  0.42  354H :  0.42  437H :  0.41   56H :  0.40  351H :  0.40  102H :  0.39  720H :  0.39  143H :  0.39  443H :  0.39
   71H :  0.38  620H :  0.38   74H :  0.38  198H :  0.38  276H :  0.38   27H :  0.37   26H :  0.37   17H :  0.36  140H :  0.36   33H :  0.36  721O :  0.35  278H :  0.35
  362H :  0.34  101H :  0.34  128H :  0.34  549H :  0.34  602H :  0.34  180H :  0.34  681H :  0.34   81H :  0.34   21H :  0.33  188H :  0.33  125H :  0.33  407H :  0.33
  495H :  0.32  390H :  0.32  177H :  0.32  649O :  0.32   50H :  0.31   48H :  0.31  587H :  0.31  212H :  0.31  596H :  0.31  462H :  0.30  168H :  0.30  150H :  0.30
  300H :  0.29  644H :  0.29  365H :  0.29  343O :  0.28  377H :  0.28  467H :  0.28  215H :  0.28  453H :  0.28  563H :  0.28  115O :  0.27  318H :  0.27  523O :  0.27
  225H :  0.27   95H :  0.27  134H :  0.27  403O :  0.26  480H :  0.26  263H :  0.26   46O :  0.26  564H :  0.26  461H :  0.25   14H :  0.25  588H :  0.25  432H :  0.25
   84H :  0.24  398H :  0.24  449H :  0.24   45H :  0.24  132H :  0.23  569H :  0.23  452H :  0.23  251H :  0.23    3H :  0.22  170H :  0.22  335H :  0.22  261H :  0.21
  345H :  0.21  309H :  0.21  570H :  0.20  314H :  0.20  483H :  0.20  473H :  0.20  680H :  0.20   91O :  0.20   92H :  0.20   77H :  0.20  233H :  0.20  269H :  0.20
   62H :  0.19  213H :  0.19  332H :  0.19  426H :  0.19  566H :  0.19  536H :  0.19  282H :  0.19  341H :  0.19  503H :  0.18  651H :  0.18  677H :  0.18  255H :  0.18
  283O :  0.18  617H :  0.17  321H :  0.17  189H :  0.17   35H :  0.17  131H :  0.17  199O :  0.16   38H :  0.16  201H :  0.16  422H :  0.15  141H :  0.15  654H :  0.15
  326H :  0.15  245H :  0.15  653H :  0.15  107H :  0.15  209H :  0.14  674H :  0.14  239H :  0.14  114H :  0.14   86H :  0.14  312H :  0.13  690H :  0.13  104H :  0.13
  552H :  0.13   89H :  0.13  135H :  0.13  257H :  0.13  371H :  0.13  723H :  0.13  402H :  0.12  173H :  0.12  497H :  0.12  692H :  0.12  441H :  0.12  456H :  0.12
  599H :  0.12  731H :  0.12  450H :  0.12  528H :  0.12  464H :  0.11  572H :  0.11  642H :  0.11  476H :  0.11  558H :  0.11  291H :  0.11  615H :  0.11  732H :  0.11
  498H :  0.11  645H :  0.10  741H :  0.10  425H :  0.10   69H :  0.10  530H :  0.10  228H :  0.10  504H :  0.10  470H :  0.10  534H :  0.10   96H :  0.10   53H :  0.10
    2H :  0.10  404H :  0.10  246H :  0.10  204H :  0.10  330H :  0.10  665H :  0.09  609H :  0.09  471H :  0.09  117H :  0.09  237H :  0.09  288H :  0.09  684H :  0.09
  725H :  0.08  479H :  0.08  482H :  0.08  693H :  0.08   23H :  0.08  393H :  0.08   54H :  0.08  582H :  0.08  359H :  0.08  699H :  0.08  366H :  0.08  623H :  0.08
  230H :  0.08  512H :  0.08  521H :  0.08  159H :  0.07  372H :  0.07  590H :  0.07  594H :  0.07  111H :  0.07  192H :  0.07  281H :  0.07   42H :  0.07    9H :  0.07
  579H :  0.07
    5 LP   *******   0.00   7.32529  19.98708  -8.92788  493O : 29.47  451O : 23.62  178O : 20.64  289O : 15.54   49O : 15.52  166O : 14.28  205O : 14.21   82O : 13.94  430O : 13.93  709O : 13.56  505O : 13.37  103O : 13.22
  229O : 12.31  544O : 12.29   76O : 11.85  268O : 11.68  301O : 11.08  262O : 10.89  499O : 10.78  532O : 10.31  181O : 10.15  751O :  9.94  424O :  9.56  148O :  9.39
  322O :  9.21  433O :  9.10  379O :  9.03  727O :  8.98  106O :  8.94  214O :  8.86   55O :  8.31  361O :  8.28   70O :  8.23  151O :  8.20  340O :  8.13  346O :  8.01
   79O :  7.96  280O :  7.88  397O :  7.73   19O :  7.71  589O :  7.48   58O :  7.37   16O :  7.28  235O :  7.28  631O :  7.02   28O :  7.00  118O :  6.80  463O :  6.80
  445O :  6.78  100O :  6.71  412O :  6.65  133O :  6.63  607O :  6.62  550O :  6.52  715O :  6.43   31O :  6.34  559O :  6.33  664O :  6.30  625O :  6.19  676O :  6.19
  172O :  6.18  208O :  6.10  193O :  6.07   85O :  6.05  454O :  6.00  592O :  5.98  310O :  5.91  562O :  5.90  670O :  5.89   40O :  5.81  202O :  5.80  754O :  5.76
  307O :  5.73  319O :  5.72  121O :  5.42  748O :  5.32   43O :  5.27  334O :  5.27   34O :  5.24  349O :  5.06    7O :  5.03  703O :  5.01    1O :  4.99  658O :  4.93
  292O :  4.81  490O :  4.62  508O :  4.57   13O :  4.55  547O :  4.48  529O :  4.42  124O :  4.35  358O :  4.34  175O :  4.34  637O :  4.33  661O :  4.30  145O :  4.27
  481O :  4.26  688O :  4.21  520O :  4.19  511O :  4.16  187O :  4.15  244O :  4.11  679O :  4.01   61O :  4.01  274O :  3.98  304O :  3.97  238O :  3.97  427O :  3.93
  169O :  3.93   37O :  3.92  382O :  3.87  697O :  3.87  586O :  3.86  466O :  3.84  139O :  3.75  601O :  3.69  157O :  3.69  460O :  3.63  655O :  3.55  580O :  3.54
  496O :  3.51  613O :  3.50  130O :  3.44  487O :  3.42  535O :  3.40  250O :  3.39  469O :  3.38  373O :  3.35  418O :  3.32   25O :  3.31  256O :  3.29  220O :  3.28
  507H :  3.25  247O :  3.22  313O :  3.20  616O :  3.09  163O :  3.07  211O :  3.07  745O :  3.03  718O :  2.99  154O :  2.99  652O :  2.93  742O :  2.82  421O :  2.82
  442O :  2.82  232O :  2.81  643O :  2.78  622O :  2.75  475O :  2.73  478O :  2.72  352O :  2.71  277O :  2.64  376O :  2.60  583O :  2.59  394O :  2.55  439O :  2.53
  568O :  2.53  196O :  2.50  391O :  2.50   73O :  2.49  367O :  2.46  316O :  2.44  241O :  2.41  184O :  2.40  538O :  2.39  105H :  2.33  109O :  2.32  355O :  2.28
   78H :  2.27  541O :  2.25  328O :  2.25  640O :  2.19    4O :  2.18  739O :  2.18  598O :  2.15   52O :  2.07  127O :  2.06  455H :  2.03   94O :  2.03  502O :  1.99
  217O :  1.98  142O :  1.91  406O :  1.90  710H :  1.90   97O :  1.81   88O :  1.80  167H :  1.77  619O :  1.75  385O :  1.74  226O :  1.72  265O :  1.72  694O :  1.72
  331O :  1.65  259O :  1.62  337O :  1.57  182H :  1.56  448O :  1.48  574O :  1.48  190O :  1.47  595O :  1.46  413H :  1.43  436O :  1.35   10O :  1.34  388O :  1.32
  298O :  1.32  730O :  1.32  706O :  1.31   83H :  1.31   64O :  1.29  415O :  1.26  472O :  1.21  429H :  1.19  526O :  1.18  364O :  1.14  153H :  1.12  571O :  1.11
  484O :  1.06   22O :  1.06  431H :  1.06   80H :  1.05   67O :  1.05  419H :  1.04  195H :  1.03  565O :  1.03  556O :  1.01  646O :  0.95  290H :  0.94  286O :  0.94
  682O :  0.93  179H :  0.93  733O :  0.92  112O :  0.91  659H :  0.90  546H :  0.89  223O :  0.88   41H :  0.88  370O :  0.88  691O :  0.87  158H :  0.85  320H :  0.84
  295O :  0.83  673O :  0.83  108H :  0.82  457O :  0.82  728H :  0.82  610O :  0.82  581H :  0.81  494H :  0.80   29H :  0.80  700O :  0.79  171H :  0.79  149H :  0.77
  712O :  0.77  378H :  0.75  744H :  0.75  517O :  0.74  510H :  0.73  122H :  0.73  522H :  0.71  698H :  0.71  514O :  0.70  409O :  0.67  271O :  0.66  662H :  0.66
   99H :  0.66  666H :  0.66  156H :  0.65  736O :  0.65  160O :  0.65  303H :  0.65  446H :  0.65  513H :  0.64   44H :  0.64   63H :  0.61  357H :  0.61  705H :  0.61
   20H :  0.61  746H :  0.60  325O :  0.60  545H :  0.60  219H :  0.59  604O :  0.59  638H :  0.57  308H :  0.57  216H :  0.57  724O :  0.56  384H :  0.55  660H :  0.54
  628O :  0.53  191H :  0.53  531H :  0.52  323H :  0.51  717H :  0.51  667O :  0.51  553O :  0.50  434H :  0.50  671H :  0.50  634O :  0.49  242H :  0.48  542H :  0.47
  672H :  0.47   36H :  0.46  527H :  0.46   60H :  0.45   72H :  0.45  603H :  0.45  400O :  0.44  258H :  0.44  614H :  0.43  136O :  0.42  183H :  0.42  632H :  0.42
  146H :  0.42  399H :  0.42  685O :  0.41  354H :  0.41  437H :  0.40   56H :  0.40  351H :  0.40  102H :  0.39  720H :  0.38  198H :  0.38  143H :  0.38  443H :  0.38
   74H :  0.38   71H :  0.38  620H :  0.38  276H :  0.37   27H :  0.36   17H :  0.36   26H :  0.36  140H :  0.35   33H :  0.35  721O :  0.35  278H :  0.34  362H :  0.34
  101H :  0.34  128H :  0.33  549H :  0.33  602H :  0.33  180H :  0.33  681H :  0.33   81H :  0.33   21H :  0.33  188H :  0.32  125H :  0.32  407H :  0.32  495H :  0.32
  390H :  0.32  177H :  0.31  649O :  0.31   48H :  0.31  587H :  0.31  212H :  0.30  596H :  0.30  168H :  0.30  462H :  0.30  150H :  0.30  480H :  0.29  300H :  0.29
  644H :  0.29  365H :  0.28  343O :  0.28  377H :  0.28  467H :  0.28  215H :  0.28  453H :  0.27   95H :  0.27  563H :  0.27  115O :  0.27  318H :  0.27  523O :  0.27
  225H :  0.27  543H :  0.27  134H :  0.26  263H :  0.26   46O :  0.26  564H :  0.25  403O :  0.25  461H :  0.25   14H :  0.25  588H :  0.24  432H :  0.24   84H :  0.24
  398H :  0.24  449H :  0.23   45H :  0.23  132H :  0.23  569H :  0.23  452H :  0.23  251H :  0.22    3H :  0.22  170H :  0.22  335H :  0.22  261H :  0.21  345H :  0.21
   77H :  0.21  309H :  0.20  314H :  0.20  570H :  0.20  483H :  0.20  473H :  0.20  680H :  0.20   91O :  0.20   92H :  0.20  233H :  0.19  269H :  0.19   62H :  0.19
  213H :  0.19  332H :  0.19  566H :  0.19  426H :  0.19  536H :  0.19  282H :  0.18  341H :  0.18  503H :  0.18  651H :  0.18  677H :  0.17  255H :  0.17  283O :  0.17
  617H :  0.17  321H :  0.17   50H :  0.17  189H :  0.17   35H :  0.17  131H :  0.16  199O :  0.16   38H :  0.16  201H :  0.16  422H :  0.15  141H :  0.15  654H :  0.15
  326H :  0.15  245H :  0.15  653H :  0.14  107H :  0.14  209H :  0.14  291H :  0.14  674H :  0.14  239H :  0.13   86H :  0.13  114H :  0.13  104H :  0.13  312H :  0.13
  690H :  0.13  552H :  0.13   89H :  0.13  135H :  0.13  257H :  0.13  371H :  0.13  723H :  0.12  402H :  0.12  173H :  0.12  497H :  0.12  692H :  0.12  441H :  0.12
  456H :  0.12  599H :  0.12  731H :  0.12  450H :  0.12  528H :  0.11  464H :  0.11  572H :  0.11  642H :  0.11  476H :  0.11  558H :  0.11  615H :  0.11  732H :  0.11
  498H :  0.11  645H :  0.10  741H :  0.10  425H :  0.10   69H :  0.10  530H :  0.10  228H :  0.10  504H :  0.10  470H :  0.10  534H :  0.10  404H :  0.10   53H :  0.10
    2H :  0.10   96H :  0.10  246H :  0.09  204H :  0.09  330H :  0.09  665H :  0.09  609H :  0.09  471H :  0.09  117H :  0.09  237H :  0.09  288H :  0.09  684H :  0.08
  725H :  0.08  479H :  0.08  482H :  0.08  693H :  0.08   23H :  0.08  393H :  0.08   54H :  0.08  582H :  0.08  359H :  0.08  699H :  0.08  366H :  0.08  623H :  0.08
  230H :  0.07  512H :  0.07  521H :  0.07  159H :  0.07  372H :  0.07  594H :  0.07  111H :  0.07  192H :  0.07  281H :  0.07  590H :  0.07
    6 LP   *******   0.00  25.05186  27.45424 -13.00612  493O : 25.27  451O : 20.27  178O : 17.69  289O : 13.32   82O : 13.05  205O : 12.18  166O : 12.18  430O : 11.94   49O : 11.85  709O : 11.62  505O : 11.46  103O : 11.42
  229O : 10.55  544O : 10.53   76O : 10.22  268O : 10.01  301O :  9.49  262O :  9.34  499O :  9.24  532O :  8.83  181O :  8.69  751O :  8.51  424O :  8.20  148O :  8.06
  322O :  7.89  433O :  7.80  379O :  7.74  727O :  7.70  106O :  7.67  214O :  7.59   55O :  7.10  361O :  7.10   70O :  7.07  151O :  7.03  340O :  6.98  346O :  6.87
   79O :  6.82  280O :  6.76  397O :  6.62   19O :  6.61  589O :  6.35   58O :  6.29   16O :  6.24  235O :  6.24  631O :  6.02   28O :  6.00  118O :  5.83  463O :  5.83
  445O :  5.82  100O :  5.75  412O :  5.70  133O :  5.69  607O :  5.67  550O :  5.59  715O :  5.51   31O :  5.43  559O :  5.43  664O :  5.40  625O :  5.31  676O :  5.30
  172O :  5.30  208O :  5.22  193O :  5.20   85O :  5.19  592O :  5.13  670O :  5.08  310O :  5.07  562O :  5.06   40O :  4.98  202O :  4.97  754O :  4.94  454O :  4.93
  307O :  4.91  319O :  4.90  121O :  4.64  748O :  4.56  334O :  4.52   43O :  4.49   34O :  4.49  349O :  4.33    7O :  4.31  703O :  4.29    1O :  4.28  658O :  4.23
  292O :  4.12  490O :  3.96  508O :  3.92   13O :  3.91  547O :  3.84  529O :  3.79  124O :  3.72  358O :  3.72  175O :  3.71  637O :  3.70  661O :  3.69  145O :  3.66
  481O :  3.65  688O :  3.61  520O :  3.59  511O :  3.57  244O :  3.52  187O :  3.49  679O :  3.44   61O :  3.44  274O :  3.41  304O :  3.40  238O :  3.40  427O :  3.37
  169O :  3.36   37O :  3.36  382O :  3.32  697O :  3.32  586O :  3.31  466O :  3.29  139O :  3.21  157O :  3.17  601O :  3.16  460O :  3.11  655O :  3.04  580O :  3.03
  496O :  3.01  613O :  3.00  130O :  2.94  487O :  2.93  535O :  2.92  250O :  2.91  469O :  2.89  373O :  2.87   25O :  2.87  418O :  2.84  256O :  2.82  220O :  2.81
  507H :  2.78  247O :  2.76  313O :  2.74  616O :  2.65  163O :  2.63  211O :  2.63  745O :  2.60  718O :  2.57  154O :  2.56  652O :  2.51  421O :  2.42  742O :  2.42
  442O :  2.42  232O :  2.41  643O :  2.38  622O :  2.36  475O :  2.34  478O :  2.33  352O :  2.33  277O :  2.26  376O :  2.23  583O :  2.22  394O :  2.18  439O :  2.17
  568O :  2.16  196O :  2.14  391O :  2.14   73O :  2.14  367O :  2.11  316O :  2.10  241O :  2.07  184O :  2.05  538O :  2.05  105H :  2.02  109O :  1.99   78H :  1.96
  355O :  1.96  541O :  1.93  328O :  1.93  640O :  1.88  739O :  1.87  598O :  1.84    4O :  1.84   52O :  1.77  127O :  1.77   94O :  1.74  455H :  1.74  502O :  1.70
  217O :  1.68  142O :  1.63  406O :  1.63  710H :  1.63   88O :  1.54   97O :  1.52  167H :  1.52  619O :  1.50  385O :  1.49  226O :  1.47  265O :  1.47  694O :  1.47
  331O :  1.41  259O :  1.38  337O :  1.34  182H :  1.33  448O :  1.27  574O :  1.26  190O :  1.26  595O :  1.25  413H :  1.23  436O :  1.16   10O :  1.15  730O :  1.13
  388O :  1.13  298O :  1.13  706O :  1.13  415O :  1.08   64O :  1.08  472O :  1.04  429H :  1.02  526O :  1.01  364O :  0.98   83H :  0.98  153H :  0.96  571O :  0.95
  484O :  0.91   22O :  0.91  431H :  0.91   80H :  0.90   67O :  0.90  419H :  0.89  195H :  0.89  565O :  0.89  556O :  0.87  646O :  0.81  286O :  0.81  290H :  0.80
  179H :  0.79  682O :  0.79  733O :  0.79  112O :  0.78  659H :  0.77  546H :  0.76  223O :  0.76   41H :  0.76  370O :  0.75  691O :  0.75  158H :  0.73  320H :  0.72
  295O :  0.71  673O :  0.71  108H :  0.71  457O :  0.70  728H :  0.70  610O :  0.70  581H :  0.70  494H :  0.68   29H :  0.68  700O :  0.68  171H :  0.67  149H :  0.66
  712O :  0.66  378H :  0.65  744H :  0.64  517O :  0.64  510H :  0.63  122H :  0.62  522H :  0.61  698H :  0.61  514O :  0.60  409O :  0.57  271O :  0.57  662H :  0.57
  666H :  0.57  156H :  0.56  736O :  0.56  160O :  0.56  303H :  0.55   99H :  0.55  446H :  0.55  513H :  0.55   44H :  0.55   63H :  0.52  357H :  0.52  705H :  0.52
   20H :  0.52  746H :  0.52  325O :  0.51  545H :  0.51  604O :  0.50  219H :  0.50  638H :  0.49  308H :  0.49  216H :  0.49  724O :  0.48  384H :  0.47  660H :  0.46
  628O :  0.46  191H :  0.45  531H :  0.45  323H :  0.44  717H :  0.44  667O :  0.43  671H :  0.43  553O :  0.43  434H :  0.43  634O :  0.42  242H :  0.41  542H :  0.40
  672H :  0.40   36H :  0.39  527H :  0.39   60H :  0.39   72H :  0.38  603H :  0.38  400O :  0.38  258H :  0.37  614H :  0.37  136O :  0.36  183H :  0.36  632H :  0.36
  146H :  0.36  399H :  0.36  685O :  0.36  354H :  0.35  437H :  0.34   56H :  0.34  351H :  0.34  102H :  0.33  720H :  0.33  198H :  0.33  143H :  0.33  443H :  0.33
   71H :  0.32  620H :  0.32   74H :  0.32  276H :  0.32   27H :  0.31   26H :  0.31   17H :  0.31  140H :  0.30   33H :  0.30  721O :  0.30  278H :  0.29  362H :  0.29
  101H :  0.29  128H :  0.29  549H :  0.29  602H :  0.29  180H :  0.28  681H :  0.28   81H :  0.28   21H :  0.28  125H :  0.28  407H :  0.27  188H :  0.27  495H :  0.27
  390H :  0.27  177H :  0.27  649O :  0.27   50H :  0.27   48H :  0.26  587H :  0.26  212H :  0.26  596H :  0.26  462H :  0.26  168H :  0.25  150H :  0.25  480H :  0.25
  300H :  0.25  644H :  0.24  365H :  0.24  343O :  0.24  377H :  0.24  467H :  0.24  215H :  0.24  453H :  0.23   95H :  0.23  563H :  0.23  115O :  0.23  318H :  0.23
  523O :  0.23  225H :  0.23  543H :  0.23  134H :  0.23  403O :  0.22  263H :  0.22   46O :  0.22  564H :  0.22  461H :  0.21   14H :  0.21  588H :  0.21  432H :  0.21
  398H :  0.20  449H :  0.20  132H :  0.20   45H :  0.20  569H :  0.19  452H :  0.19  251H :  0.19    3H :  0.19  170H :  0.19  335H :  0.18  261H :  0.18  345H :  0.18
  309H :  0.17  314H :  0.17  570H :  0.17  483H :  0.17  473H :  0.17  680H :  0.17   91O :  0.17   92H :  0.17   77H :  0.17  233H :  0.16  269H :  0.16   62H :  0.16
  213H :  0.16  332H :  0.16  566H :  0.16  426H :  0.16  536H :  0.16  282H :  0.16  341H :  0.16  503H :  0.15  651H :  0.15  677H :  0.15  283O :  0.15  617H :  0.15
  255H :  0.15  321H :  0.14   35H :  0.14  131H :  0.14  199O :  0.14   38H :  0.14  201H :  0.14  189H :  0.14  141H :  0.13  422H :  0.13   84H :  0.13  654H :  0.13
  326H :  0.13  245H :  0.13  653H :  0.12  107H :  0.12  209H :  0.12  291H :  0.12  674H :  0.12  239H :  0.12  104H :  0.12  114H :  0.11   86H :  0.11  312H :  0.11
  690H :  0.11  552H :  0.11   89H :  0.11  135H :  0.11  257H :  0.11  371H :  0.11  723H :  0.11  402H :  0.11  173H :  0.10  497H :  0.10  692H :  0.10  441H :  0.10
  599H :  0.10  731H :  0.10  450H :  0.10  528H :  0.10  464H :  0.10  572H :  0.09  642H :  0.09  476H :  0.09  558H :  0.09  615H :  0.09  732H :  0.09  498H :  0.09
  645H :  0.09  741H :  0.09  425H :  0.09   69H :  0.09  530H :  0.09  228H :  0.09  504H :  0.09  470H :  0.08  534H :  0.08   53H :  0.08    2H :  0.08   96H :  0.08
  404H :  0.08  246H :  0.08  204H :  0.08  330H :  0.08  665H :  0.08  609H :  0.08  471H :  0.08  117H :  0.08  237H :  0.08  288H :  0.08  684H :  0.07  725H :  0.07
  482H :  0.07  479H :  0.07  693H :  0.07   23H :  0.07
    7 LP   *******   0.00   1.09670  57.41112 -48.54433  493O : 21.77  451O : 17.45  178O : 15.25  289O : 11.48  268O : 11.37  166O : 10.53  205O : 10.50   82O : 10.31  430O : 10.29   49O : 10.22  709O : 10.01  505O :  9.88
  103O :  9.76  229O :  9.09  544O :  9.08   76O :  8.81  301O :  8.18  262O :  8.05  499O :  7.96  532O :  7.61  181O :  7.49  751O :  7.33  424O :  7.07  148O :  6.94
  322O :  6.80  433O :  6.72  379O :  6.67  727O :  6.63  106O :  6.60  214O :  6.54   55O :  6.13   70O :  6.07  151O :  6.06  340O :  6.01  361O :  6.00  346O :  5.92
   79O :  5.88  280O :  5.82  397O :  5.71   19O :  5.70  589O :  5.47   58O :  5.42   16O :  5.38  235O :  5.38  631O :  5.19   28O :  5.17  118O :  5.03  463O :  5.02
  445O :  5.01  100O :  4.96  412O :  4.92  133O :  4.90  607O :  4.89  550O :  4.82  715O :  4.75   31O :  4.69  559O :  4.68  664O :  4.65  625O :  4.57  676O :  4.57
  172O :  4.57  208O :  4.50  193O :  4.48   85O :  4.47  454O :  4.44  592O :  4.42  670O :  4.38  310O :  4.37  562O :  4.36   40O :  4.29  202O :  4.29  754O :  4.25
  307O :  4.23  319O :  4.23  121O :  4.00  748O :  3.93   43O :  3.90  334O :  3.90   34O :  3.87  349O :  3.73    7O :  3.71  703O :  3.70    1O :  3.69  658O :  3.65
  490O :  3.41  292O :  3.41  508O :  3.38   13O :  3.36  547O :  3.31  529O :  3.27  124O :  3.22  358O :  3.21  175O :  3.20  637O :  3.19  661O :  3.18  145O :  3.15
  481O :  3.15  688O :  3.11  520O :  3.09  511O :  3.08  187O :  3.06  244O :  3.04  679O :  2.96   61O :  2.96  274O :  2.94  697O :  2.94  304O :  2.93  238O :  2.93
  427O :  2.90  169O :  2.90   37O :  2.90  382O :  2.86  586O :  2.85  466O :  2.84  139O :  2.77  601O :  2.73  157O :  2.72  460O :  2.68  655O :  2.62  580O :  2.61
  496O :  2.60  613O :  2.58  130O :  2.54  487O :  2.53  535O :  2.52  250O :  2.51  469O :  2.49  373O :  2.48   25O :  2.47  418O :  2.45  256O :  2.43  220O :  2.43
  507H :  2.40  247O :  2.39  313O :  2.36  616O :  2.28  163O :  2.27  211O :  2.27  745O :  2.24  154O :  2.21  718O :  2.21  652O :  2.17  742O :  2.08  421O :  2.08
  442O :  2.08  232O :  2.08  643O :  2.05  622O :  2.03  475O :  2.01  478O :  2.01  352O :  2.00  277O :  1.95  376O :  1.92  583O :  1.91  394O :  1.88  439O :  1.87
  568O :  1.87  196O :  1.85   73O :  1.85  391O :  1.85  367O :  1.82  316O :  1.81  241O :  1.78  184O :  1.77  538O :  1.77  109O :  1.73  105H :  1.72   78H :  1.69
  355O :  1.69  541O :  1.66  328O :  1.66  640O :  1.62    4O :  1.61  739O :  1.61  598O :  1.59   52O :  1.52  127O :  1.52  455H :  1.50   94O :  1.50  502O :  1.47
  217O :  1.46  142O :  1.41  406O :  1.41  710H :  1.41   97O :  1.34   88O :  1.33  167H :  1.31  619O :  1.29  385O :  1.29  226O :  1.27  265O :  1.27  694O :  1.27
  331O :  1.22  259O :  1.19  337O :  1.16  182H :  1.15  448O :  1.10  574O :  1.09  190O :  1.09  595O :  1.08  413H :  1.06  436O :  1.00   10O :  0.99  388O :  0.98
   83H :  0.98  298O :  0.97  730O :  0.97  706O :  0.97   64O :  0.95  415O :  0.93  472O :  0.89  429H :  0.88  526O :  0.87  364O :  0.84  153H :  0.83  571O :  0.82
  484O :  0.79   22O :  0.78  431H :  0.78   80H :  0.78   67O :  0.78  419H :  0.77  565O :  0.76  195H :  0.76  556O :  0.75  646O :  0.70  286O :  0.69  290H :  0.69
  682O :  0.68  179H :  0.68  733O :  0.68  112O :  0.68  659H :  0.67  546H :  0.66  223O :  0.65   41H :  0.65  370O :  0.65  691O :  0.64  158H :  0.63  320H :  0.62
  295O :  0.61  673O :  0.61  108H :  0.61  457O :  0.61  728H :  0.60  610O :  0.60  581H :  0.60   29H :  0.59  494H :  0.59  700O :  0.58  171H :  0.58  712O :  0.57
  149H :  0.57  378H :  0.56  744H :  0.55  517O :  0.55  510H :  0.54  122H :  0.54  698H :  0.53  522H :  0.52  514O :  0.52  409O :  0.49  271O :  0.49  662H :  0.49
   99H :  0.49  666H :  0.49  156H :  0.48  160O :  0.48  736O :  0.48  303H :  0.48  446H :  0.48  513H :  0.47   44H :  0.47   63H :  0.45  357H :  0.45  705H :  0.45
   20H :  0.45  746H :  0.44  325O :  0.44  545H :  0.44  219H :  0.44  604O :  0.44  638H :  0.42  308H :  0.42  216H :  0.42  724O :  0.41  384H :  0.41  660H :  0.40
  628O :  0.39  191H :  0.39  531H :  0.38  323H :  0.38  717H :  0.38  667O :  0.37  671H :  0.37  553O :  0.37  434H :  0.37  634O :  0.36  242H :  0.35  542H :  0.35
  672H :  0.34   36H :  0.34  527H :  0.34   60H :  0.33  603H :  0.33   72H :  0.33  400O :  0.33  258H :  0.32  614H :  0.32  136O :  0.31  183H :  0.31  632H :  0.31
  146H :  0.31  399H :  0.31  685O :  0.31  354H :  0.30  437H :  0.30   56H :  0.29  351H :  0.29   71H :  0.29  102H :  0.29  720H :  0.28  198H :  0.28  143H :  0.28
  443H :  0.28  620H :  0.28   74H :  0.28  276H :  0.27   27H :  0.27   26H :  0.27   17H :  0.26  140H :  0.26   33H :  0.26  721O :  0.26  278H :  0.25  101H :  0.25
  128H :  0.25  549H :  0.25  602H :  0.25  180H :  0.25  362H :  0.24  681H :  0.24   81H :  0.24   21H :  0.24  188H :  0.24  125H :  0.24  407H :  0.24  495H :  0.23
  390H :  0.23  177H :  0.23  649O :  0.23   50H :  0.23   48H :  0.23  587H :  0.23  212H :  0.22  596H :  0.22  462H :  0.22  168H :  0.22  150H :  0.22  480H :  0.21
  300H :  0.21  644H :  0.21  365H :  0.21  343O :  0.21  377H :  0.20  467H :  0.20  215H :  0.20  453H :  0.20   95H :  0.20  563H :  0.20  115O :  0.20  318H :  0.20
  523O :  0.20  225H :  0.20  543H :  0.20  134H :  0.19  403O :  0.19  263H :  0.19   46O :  0.19  564H :  0.19  461H :  0.18   14H :  0.18  588H :  0.18  432H :  0.18
   84H :  0.18  398H :  0.17  449H :  0.17   45H :  0.17  132H :  0.17  569H :  0.17  452H :  0.17  251H :  0.16    3H :  0.16  170H :  0.16  335H :  0.16  261H :  0.15
  345H :  0.15  309H :  0.15  314H :  0.15  570H :  0.15  483H :  0.15  473H :  0.15  680H :  0.15   91O :  0.15   92H :  0.14   77H :  0.14  233H :  0.14   62H :  0.14
  213H :  0.14  332H :  0.14  566H :  0.14  426H :  0.14  536H :  0.14  282H :  0.14  341H :  0.13  503H :  0.13  651H :  0.13  677H :  0.13  255H :  0.13  283O :  0.13
  617H :  0.13  321H :  0.12  189H :  0.12   35H :  0.12  131H :  0.12  199O :  0.12   38H :  0.12  201H :  0.12  422H :  0.11  141H :  0.11  654H :  0.11  326H :  0.11
  245H :  0.11  653H :  0.11  269H :  0.11  107H :  0.11  209H :  0.10  291H :  0.10  674H :  0.10  239H :  0.10  114H :  0.10   86H :  0.10  312H :  0.10  690H :  0.10
  104H :  0.10  552H :  0.09   89H :  0.09  257H :  0.09  135H :  0.09  371H :  0.09  723H :  0.09  402H :  0.09  173H :  0.09  497H :  0.09  692H :  0.09  441H :  0.09
  456H :  0.09  599H :  0.09  731H :  0.09  450H :  0.09  528H :  0.08  464H :  0.08  572H :  0.08  642H :  0.08  476H :  0.08  558H :  0.08  615H :  0.08  732H :  0.08
  498H :  0.08  645H :  0.08  741H :  0.08  425H :  0.07   69H :  0.07  530H :  0.07  228H :  0.07  504H :  0.07  470H :  0.07  534H :  0.07   53H :  0.07    2H :  0.07
   96H :  0.07  404H :  0.07
    8 LP   *******   0.00  -5.98671  -0.31777  23.10305  493O : 21.09  451O : 17.31  178O : 15.13  709O : 13.00  289O : 11.39  166O : 10.45  205O : 10.41   82O : 10.23  430O : 10.21   49O : 10.14  505O :  9.80  103O :  9.68
  229O :  9.02  544O :  9.01   76O :  8.73  268O :  8.56  301O :  8.12  262O :  7.98  499O :  7.90  532O :  7.55  181O :  7.42  751O :  7.27  424O :  7.01  148O :  6.88
  322O :  6.75  433O :  6.67  379O :  6.62  727O :  6.58  106O :  6.55  214O :  6.49   55O :  6.08  361O :  6.07   70O :  6.03  151O :  6.01  340O :  5.96  346O :  5.87
   79O :  5.83  280O :  5.77  397O :  5.66   19O :  5.65  589O :  5.43   58O :  5.38   16O :  5.34  235O :  5.33  631O :  5.15   28O :  5.13  118O :  4.99  463O :  4.98
  445O :  4.97  100O :  4.92  412O :  4.87  133O :  4.86  607O :  4.85  550O :  4.78  715O :  4.71   31O :  4.65  559O :  4.64  664O :  4.61  625O :  4.54  676O :  4.53
  172O :  4.52  208O :  4.47  193O :  4.45   85O :  4.43  454O :  4.40  592O :  4.38  670O :  4.34  310O :  4.34  562O :  4.32   40O :  4.26  202O :  4.25  754O :  4.22
  307O :  4.20  319O :  4.19  121O :  3.97  748O :  3.90   43O :  3.87  334O :  3.86   34O :  3.84  349O :  3.70    7O :  3.68  703O :  3.67    1O :  3.66  658O :  3.62
  292O :  3.52  490O :  3.39  508O :  3.35   13O :  3.33  547O :  3.28  529O :  3.24  124O :  3.19  358O :  3.18  175O :  3.18  637O :  3.16  661O :  3.15  145O :  3.13
  481O :  3.12  688O :  3.09  520O :  3.07  511O :  3.05  187O :  3.04  244O :  3.01  679O :  2.94   61O :  2.93  274O :  2.92  304O :  2.91  238O :  2.91  427O :  2.88
  169O :  2.88   37O :  2.87  382O :  2.84  697O :  2.83  586O :  2.82  466O :  2.81  710H :  2.80  139O :  2.75  601O :  2.71  157O :  2.70  460O :  2.66  655O :  2.60
  580O :  2.59  496O :  2.57  613O :  2.56  130O :  2.52  487O :  2.51  535O :  2.49  250O :  2.49  469O :  2.47  373O :  2.46   25O :  2.45  418O :  2.43  256O :  2.41
  220O :  2.40  507H :  2.38  247O :  2.36  313O :  2.34  616O :  2.26  163O :  2.25  211O :  2.25  745O :  2.22  718O :  2.19  154O :  2.19  652O :  2.15  742O :  2.07
  421O :  2.07  442O :  2.07  232O :  2.06  643O :  2.04  622O :  2.02  475O :  2.00  478O :  1.99  352O :  1.99  277O :  1.93  376O :  1.90  583O :  1.90  394O :  1.87
  439O :  1.85  568O :  1.85  196O :  1.83   73O :  1.83  391O :  1.83  367O :  1.80  316O :  1.79  241O :  1.77  184O :  1.76  538O :  1.75  105H :  1.71  109O :  1.70
   78H :  1.68  355O :  1.67  541O :  1.65  328O :  1.65  640O :  1.61    4O :  1.60  739O :  1.60  598O :  1.58  127O :  1.51  455H :  1.49   94O :  1.49   52O :  1.49
  502O :  1.45  217O :  1.45  142O :  1.40  406O :  1.40   97O :  1.32   88O :  1.32  167H :  1.30  619O :  1.28  385O :  1.28  226O :  1.26  265O :  1.26  694O :  1.25
  331O :  1.21  259O :  1.18  337O :  1.15  182H :  1.14  448O :  1.09  574O :  1.08  190O :  1.08  595O :  1.07  413H :  1.05  436O :  0.99   10O :  0.98  388O :  0.97
   83H :  0.97  298O :  0.97  730O :  0.97  706O :  0.96   64O :  0.94  415O :  0.92  472O :  0.89  429H :  0.87  526O :  0.87  364O :  0.84  153H :  0.82  571O :  0.81
  484O :  0.78   22O :  0.78  431H :  0.78   80H :  0.77   67O :  0.77  419H :  0.76  195H :  0.76  565O :  0.76  556O :  0.74  646O :  0.70  286O :  0.69  290H :  0.69
  682O :  0.68  179H :  0.68  733O :  0.67  112O :  0.67  659H :  0.66  546H :  0.65  223O :  0.65   41H :  0.65  370O :  0.64  691O :  0.64  158H :  0.63  320H :  0.61
  295O :  0.61  673O :  0.60  108H :  0.60  457O :  0.60  610O :  0.60  728H :  0.60  581H :  0.60   29H :  0.58  700O :  0.58  171H :  0.58  494H :  0.57  712O :  0.56
  149H :  0.56  378H :  0.55  744H :  0.55  517O :  0.54  510H :  0.54  122H :  0.53  522H :  0.52  698H :  0.52  514O :  0.51  409O :  0.49  271O :  0.49  662H :  0.49
  666H :  0.48   99H :  0.48  156H :  0.48  736O :  0.48  160O :  0.48  303H :  0.47  446H :  0.47  513H :  0.47   44H :  0.47   63H :  0.45  705H :  0.45   20H :  0.45
  746H :  0.44  357H :  0.44  325O :  0.44  545H :  0.44  219H :  0.43  604O :  0.43  308H :  0.42  638H :  0.42  216H :  0.41  724O :  0.41  384H :  0.40  660H :  0.40
  628O :  0.39  191H :  0.39  531H :  0.38  323H :  0.37  717H :  0.37  667O :  0.37  671H :  0.37  553O :  0.37  434H :  0.37  634O :  0.36  242H :  0.35  542H :  0.35
  672H :  0.34   36H :  0.34  527H :  0.34   60H :  0.33   72H :  0.33  603H :  0.33  400O :  0.32  258H :  0.32  183H :  0.31  614H :  0.31  136O :  0.31  632H :  0.31
  146H :  0.31  399H :  0.31  685O :  0.30  354H :  0.30  437H :  0.29   56H :  0.29  351H :  0.29  102H :  0.28  720H :  0.28  198H :  0.28  143H :  0.28  443H :  0.28
   71H :  0.28  620H :  0.28   74H :  0.27  276H :  0.27   27H :  0.27   26H :  0.26   17H :  0.26  140H :  0.26   33H :  0.26  721O :  0.25  278H :  0.25  362H :  0.25
  101H :  0.25  128H :  0.25  549H :  0.24  602H :  0.24  180H :  0.24  681H :  0.24   81H :  0.24   21H :  0.24  188H :  0.24  495H :  0.24  125H :  0.24  407H :  0.23
  390H :  0.23  177H :  0.23  649O :  0.23   50H :  0.22   48H :  0.22  587H :  0.22  212H :  0.22  596H :  0.22  462H :  0.22  168H :  0.22  150H :  0.22  480H :  0.21
  300H :  0.21  644H :  0.21  365H :  0.21  343O :  0.21  377H :  0.20  467H :  0.20  215H :  0.20  453H :  0.20   95H :  0.20  563H :  0.20  115O :  0.20  318H :  0.20
  523O :  0.20  225H :  0.20  543H :  0.19  134H :  0.19  403O :  0.19  263H :  0.19   46O :  0.19  564H :  0.18  461H :  0.18   14H :  0.18  588H :  0.18  432H :  0.18
   84H :  0.18  398H :  0.17  449H :  0.17   45H :  0.17  132H :  0.17  569H :  0.17  452H :  0.17  251H :  0.16    3H :  0.16  170H :  0.16  335H :  0.16  261H :  0.15
  345H :  0.15  309H :  0.15  314H :  0.15  570H :  0.15  483H :  0.15  473H :  0.15  680H :  0.15   91O :  0.14   92H :  0.14   77H :  0.14  233H :  0.14  269H :  0.14
   62H :  0.14  213H :  0.14  332H :  0.14  566H :  0.14  426H :  0.14  536H :  0.14  282H :  0.13  341H :  0.13  503H :  0.13  651H :  0.13  677H :  0.13  255H :  0.13
  283O :  0.13  617H :  0.13  321H :  0.12  189H :  0.12   35H :  0.12  131H :  0.12  199O :  0.12   38H :  0.12  201H :  0.12  422H :  0.11  141H :  0.11  654H :  0.11
  326H :  0.11  245H :  0.11  653H :  0.11  107H :  0.10  209H :  0.10  291H :  0.10  674H :  0.10  239H :  0.10   86H :  0.10  114H :  0.10  312H :  0.10  690H :  0.09
  104H :  0.09  552H :  0.09   89H :  0.09  135H :  0.09  257H :  0.09  371H :  0.09  723H :  0.09  402H :  0.09  173H :  0.09  497H :  0.09  692H :  0.09  441H :  0.09
  456H :  0.09  599H :  0.09  731H :  0.09  450H :  0.08  528H :  0.08  464H :  0.08  572H :  0.08  642H :  0.08  476H :  0.08  558H :  0.08  615H :  0.08  732H :  0.08
  498H :  0.08  645H :  0.08  741H :  0.07  425H :  0.07   69H :  0.07  530H :  0.07  228H :  0.07  504H :  0.07  470H :  0.07  534H :  0.07   54H :  0.07
    9 LP   *******   0.00  23.22465  12.44134  -4.04263  493O : 21.59  451O : 17.29  178O : 15.11  289O : 11.38  103O : 10.89  166O : 10.45  205O : 10.41   82O : 10.29  430O : 10.20   49O : 10.14  709O :  9.93  505O :  9.79
  229O :  9.01  544O :  9.00   76O :  8.73  268O :  8.55  301O :  8.11  262O :  7.97  499O :  7.89  532O :  7.55  181O :  7.44  751O :  7.27  424O :  7.00  148O :  6.87
  322O :  6.74  433O :  6.66  379O :  6.61  727O :  6.58  106O :  6.55  214O :  6.49   55O :  6.08  361O :  6.06   70O :  6.03  151O :  6.00  340O :  5.96  346O :  5.86
   79O :  5.83  280O :  5.75  397O :  5.66   19O :  5.64   58O :  5.37  589O :  5.36   16O :  5.33  235O :  5.33  631O :  5.14   28O :  5.13  118O :  4.98  445O :  4.98
  463O :  4.98  100O :  4.92  412O :  4.87  133O :  4.85  607O :  4.85  550O :  4.78  715O :  4.70   31O :  4.64  559O :  4.64  664O :  4.61  625O :  4.53  676O :  4.53
  172O :  4.52  208O :  4.46  193O :  4.44   85O :  4.43  454O :  4.40  592O :  4.38  670O :  4.34  310O :  4.33  562O :  4.32   40O :  4.25  202O :  4.25  754O :  4.22
  307O :  4.20  319O :  4.19  121O :  3.94  748O :  3.89   43O :  3.87  334O :  3.86   34O :  3.84  349O :  3.70    7O :  3.68  703O :  3.67    1O :  3.66  658O :  3.61
  292O :  3.52  490O :  3.38  508O :  3.35   13O :  3.33  547O :  3.28  529O :  3.24  124O :  3.19  358O :  3.18  175O :  3.17  637O :  3.16  661O :  3.15  145O :  3.12
  481O :  3.12  688O :  3.08  520O :  3.07  511O :  3.05  187O :  3.03  244O :  3.01  679O :  2.94   61O :  2.94  274O :  2.91  304O :  2.91  238O :  2.90  427O :  2.88
  169O :  2.88   37O :  2.87  382O :  2.83  697O :  2.83  586O :  2.82  466O :  2.81  139O :  2.75  601O :  2.70  157O :  2.70  460O :  2.66  130O :  2.63  655O :  2.60
  580O :  2.59  496O :  2.57  613O :  2.56  535O :  2.51  487O :  2.51  250O :  2.48  469O :  2.47  373O :  2.46  418O :  2.43  256O :  2.41  220O :  2.40   25O :  2.40
  507H :  2.38  247O :  2.36  313O :  2.34  616O :  2.26  163O :  2.25  211O :  2.25  745O :  2.22  718O :  2.19  154O :  2.19  652O :  2.15  742O :  2.07  421O :  2.06
  442O :  2.06  232O :  2.06  643O :  2.03  622O :  2.02  475O :  2.00  478O :  1.99  352O :  1.98  277O :  1.93  376O :  1.90  583O :  1.90  394O :  1.87  439O :  1.85
  568O :  1.85  196O :  1.83  391O :  1.83   73O :  1.82  367O :  1.80  316O :  1.79  241O :  1.77  184O :  1.75  538O :  1.75  109O :  1.70  355O :  1.68   78H :  1.68
  541O :  1.65  328O :  1.65  640O :  1.61    4O :  1.60  739O :  1.60  598O :  1.58   52O :  1.51  127O :  1.51  105H :  1.50   94O :  1.49  455H :  1.49  502O :  1.45
  217O :  1.45  142O :  1.40  406O :  1.39  710H :  1.39   88O :  1.32  167H :  1.30   97O :  1.29  619O :  1.28  385O :  1.27  226O :  1.26  265O :  1.26  694O :  1.26
  331O :  1.20  259O :  1.18  337O :  1.15  182H :  1.14  448O :  1.09  574O :  1.08  190O :  1.08  595O :  1.07  413H :  1.05   83H :  1.04  436O :  0.99   10O :  0.98
  388O :  0.97  730O :  0.97  298O :  0.96  706O :  0.96   64O :  0.94  415O :  0.92  472O :  0.88  429H :  0.87  526O :  0.86  364O :  0.84  153H :  0.82  571O :  0.81
  484O :  0.78   22O :  0.78  431H :  0.78   80H :  0.77   67O :  0.77  419H :  0.76  195H :  0.76  565O :  0.76  556O :  0.74  646O :  0.70  290H :  0.69  286O :  0.69
  682O :  0.68  179H :  0.68  733O :  0.67  112O :  0.67  659H :  0.66  546H :  0.65  223O :  0.65   41H :  0.65  370O :  0.64  691O :  0.64  158H :  0.63  320H :  0.61
  295O :  0.61  673O :  0.60  108H :  0.60  457O :  0.60  610O :  0.60  728H :  0.60  581H :  0.60  494H :  0.58   29H :  0.58  700O :  0.58  171H :  0.58  149H :  0.56
  712O :  0.56  378H :  0.55  744H :  0.55  517O :  0.54  510H :  0.54  122H :  0.53  522H :  0.52  698H :  0.52  514O :  0.51  409O :  0.49  271O :  0.49  446H :  0.49
  662H :  0.49  666H :  0.48  156H :  0.48  736O :  0.48  160O :  0.48  303H :  0.47   99H :  0.47  513H :  0.47   44H :  0.47  357H :  0.45   63H :  0.45  705H :  0.45
   20H :  0.45  746H :  0.44  325O :  0.44  545H :  0.44  219H :  0.43  604O :  0.43  638H :  0.42  308H :  0.42  216H :  0.41  724O :  0.41  384H :  0.40  660H :  0.40
  628O :  0.39  191H :  0.38  531H :  0.38  323H :  0.37  717H :  0.37  667O :  0.37  671H :  0.37  553O :  0.37  434H :  0.37  634O :  0.36  242H :  0.35  542H :  0.35
  672H :  0.34   36H :  0.34  527H :  0.34   60H :  0.33   72H :  0.33  603H :  0.33  400O :  0.32  258H :  0.32  614H :  0.31  136O :  0.31  183H :  0.31  146H :  0.31
  632H :  0.31  399H :  0.30  685O :  0.30  354H :  0.30  437H :  0.29   56H :  0.29  351H :  0.29  102H :  0.28  720H :  0.28  198H :  0.28  143H :  0.28  443H :  0.28
   74H :  0.28   71H :  0.28  620H :  0.28  276H :  0.27   17H :  0.26   26H :  0.26  140H :  0.26   33H :  0.26   27H :  0.26  721O :  0.25  278H :  0.25  362H :  0.25
  101H :  0.25  128H :  0.25  549H :  0.24  602H :  0.24  180H :  0.24  681H :  0.24   81H :  0.24   50H :  0.24   21H :  0.24  188H :  0.24  125H :  0.24  407H :  0.23
  495H :  0.23  390H :  0.23  177H :  0.23  649O :  0.23   48H :  0.22  587H :  0.22  212H :  0.22  596H :  0.22  462H :  0.22  168H :  0.22  150H :  0.22  480H :  0.21
  300H :  0.21  644H :  0.21  365H :  0.21  343O :  0.21  377H :  0.20  467H :  0.20  215H :  0.20  453H :  0.20   95H :  0.20  563H :  0.20  318H :  0.20  523O :  0.20
  225H :  0.20  543H :  0.19  115O :  0.19  134H :  0.19  403O :  0.19  263H :  0.19   46O :  0.19  564H :  0.18  461H :  0.18   14H :  0.18  588H :  0.18   84H :  0.18
  432H :  0.18  398H :  0.17  449H :  0.17   45H :  0.17  569H :  0.17  452H :  0.17  132H :  0.16  251H :  0.16    3H :  0.16  170H :  0.16  335H :  0.16  261H :  0.15
  345H :  0.15  309H :  0.15  314H :  0.15  570H :  0.15  483H :  0.15  473H :  0.15  680H :  0.15   91O :  0.14   92H :  0.14   77H :  0.14  233H :  0.14  269H :  0.14
   62H :  0.14  213H :  0.14  332H :  0.14  566H :  0.14  426H :  0.14  590H :  0.14  536H :  0.13  282H :  0.13  341H :  0.13  503H :  0.13  651H :  0.13  677H :  0.13
  255H :  0.13  283O :  0.13  617H :  0.13  321H :  0.12  189H :  0.12   35H :  0.12  199O :  0.12   38H :  0.12  131H :  0.12  201H :  0.12  422H :  0.11  141H :  0.11
  654H :  0.11  326H :  0.11  245H :  0.11  653H :  0.11  107H :  0.10  209H :  0.10  291H :  0.10  674H :  0.10  239H :  0.10  114H :  0.10   86H :  0.10  312H :  0.10
[...]
   369   1 h    0.878 --   367 o    0.797
   370   8 o    1.833 --   371 h    0.866   372 h    0.832
   371   1 h    0.898 --   370 o    0.866
   372   1 h    0.889 --   370 o    0.832
   373   8 o    1.852 --   375 h    0.860   374 h    0.823
   374   1 h    0.888 --   373 o    0.823
   375   1 h    0.896 --   373 o    0.860
   376   8 o    1.858 --   378 h    0.821   377 h    0.808
   377   1 h    0.881 --   376 o    0.808
   378   1 h    0.892 --   376 o    0.821
   379   8 o    1.866 --   380 h    0.821   381 h    0.820
   380   1 h    0.879 --   379 o    0.821
   381   1 h    0.891 --   379 o    0.820
   382   8 o    1.868 --   383 h    0.845   384 h    0.809
   383   1 h    0.891 --   382 o    0.845
   384   1 h    0.883 --   382 o    0.809
   385   8 o    1.888 --   386 h    0.882   387 h    0.800
   386   1 h    0.901 --   385 o    0.882
   387   1 h    0.869 --   385 o    0.800
   388   8 o    1.860 --   390 h    0.834   389 h    0.828
   389   1 h    0.873 --   388 o    0.828
   390   1 h    0.890 --   388 o    0.834
   391   8 o    1.837 --   392 h    0.879   393 h    0.809
   392   1 h    0.904 --   391 o    0.879
   393   1 h    0.886 --   391 o    0.809
   394   8 o    1.851 --   396 h    0.916   395 h    0.813
   395   1 h    0.886 --   394 o    0.813
   396   1 h    0.921 --   394 o    0.916
   397   8 o    1.833 --   398 h    0.867   399 h    0.834
   398   1 h    0.900 --   397 o    0.867
   399   1 h    0.886 --   397 o    0.834
   400   8 o    1.858 --   401 h    0.911   402 h    0.818
   401   1 h    0.916 --   400 o    0.911
   402   1 h    0.883 --   400 o    0.818
   403   8 o    1.876 --   404 h    0.813   405 h    0.811
   404   1 h    0.874 --   403 o    0.813
   405   1 h    0.885 --   403 o    0.811
   406   8 o    1.864 --   407 h    0.915   408 h    0.807
   407   1 h    0.918 --   406 o    0.915
   408   1 h    0.878 --   406 o    0.807
   409   8 o    1.852 --   410 h    0.827   411 h    0.808
   410   1 h    0.891 --   409 o    0.827
   411   1 h    0.878 --   409 o    0.808
   412   8 o    1.855 --   413 h    0.812   414 h    0.769
   413   1 h    0.880 --   412 o    0.812
   414   1 h    0.865 --   412 o    0.769
   415   8 o    1.810 --   416 h    0.863   417 h    0.818
   416   1 h    0.902 --   415 o    0.863
   417   1 h    0.887 --   415 o    0.818
   418   8 o    1.843 --   420 h    0.917   419 h    0.805
   419   1 h    0.877 --   418 o    0.805
   420   1 h    0.920 --   418 o    0.917
   421   8 o    1.839 --   423 h    0.805   422 h    0.805
   422   1 h    0.879 --   421 o    0.805
   423   1 h    0.879 --   421 o    0.805
   424   8 o    1.856 --   426 h    0.869   425 h    0.860
   425   1 h    0.897 --   424 o    0.860
   426   1 h    0.902 --   424 o    0.869
   427   8 o    1.838 --   429 h    0.880   428 h    0.838
   428   1 h    0.889 --   427 o    0.838
   429   1 h    0.899 --   427 o    0.880
   430   8 o    1.863 --   432 h    0.828   431 h    0.795
   431   1 h    0.883 --   430 o    0.795
   432   1 h    0.892 --   430 o    0.828
   433   8 o    1.872 --   435 h    0.842   434 h    0.782
   434   1 h    0.865 --   433 o    0.782
   435   1 h    0.889 --   433 o    0.842
   436   8 o    1.837 --   438 h    0.854   437 h    0.843
   437   1 h    0.895 --   436 o    0.843
   438   1 h    0.896 --   436 o    0.854
   439   8 o    1.875 --   441 h    0.903   440 h    0.824
   440   1 h    0.883 --   439 o    0.824
   441   1 h    0.910 --   439 o    0.903
   442   8 o    1.842 --   443 h    0.807   444 h    0.799
   443   1 h    0.885 --   442 o    0.807
   444   1 h    0.875 --   442 o    0.799
   445   8 o    1.848 --   447 h    0.835   446 h    0.813
   446   1 h    0.874 --   445 o    0.813
   447   1 h    0.893 --   445 o    0.835
   448   8 o    1.861 --   449 h    0.842   450 h    0.815
   449   1 h    0.891 --   448 o    0.842
   450   1 h    0.885 --   448 o    0.815
   451   8 o    1.849 --   452 h    0.847   453 h    0.801
   452   1 h    0.887 --   451 o    0.847
   453   1 h    0.881 --   451 o    0.801
   454   8 o    1.860 --   455 h    0.831   456 h    0.805
   455   1 h    0.885 --   454 o    0.831
   456   1 h    0.868 --   454 o    0.805
   457   8 o    1.855 --   459 h    0.824   458 h    0.793
   458   1 h    0.872 --   457 o    0.793
   459   1 h    0.886 --   457 o    0.824
   460   8 o    1.815 --   461 h    0.854   462 h    0.830
   461   1 h    0.891 --   460 o    0.854
   462   1 h    0.889 --   460 o    0.830
   463   8 o    1.842 --   465 h    0.867   464 h    0.840
   464   1 h    0.889 --   463 o    0.840
   465   1 h    0.897 --   463 o    0.867
   466   8 o    1.850 --   467 h    0.856   468 h    0.813
   467   1 h    0.895 --   466 o    0.856
   468   1 h    0.886 --   466 o    0.813
   469   8 o    1.852 --   470 h    0.914   471 h    0.792
   470   1 h    0.922 --   469 o    0.914
   471   1 h    0.878 --   469 o    0.792
   472   8 o    1.855 --   474 h    0.901   473 h    0.826
   473   1 h    0.887 --   472 o    0.826
   474   1 h    0.909 --   472 o    0.901
   475   8 o    1.841 --   476 h    0.820   477 h    0.799
   476   1 h    0.884 --   475 o    0.820
   477   1 h    0.885 --   475 o    0.799
   478   8 o    1.872 --   479 h    0.837   480 h    0.834
   479   1 h    0.881 --   478 o    0.837
   480   1 h    0.885 --   478 o    0.834
   481   8 o    1.867 --   482 h    0.828   483 h    0.786
   482   1 h    0.894 --   481 o    0.828
   483   1 h    0.870 --   481 o    0.786
   484   8 o    1.873 --   485 h    0.867   486 h    0.776
   485   1 h    0.899 --   484 o    0.867
   486   1 h    0.867 --   484 o    0.776
   487   8 o    1.829 --   488 h    0.898   489 h    0.843
   488   1 h    0.907 --   487 o    0.898
   489   1 h    0.894 --   487 o    0.843
   490   8 o    1.857 --   492 h    0.869   491 h    0.829
   491   1 h    0.880 --   490 o    0.829
   492   1 h    0.897 --   490 o    0.869
   493   8 o    1.860 --   494 h    0.847   495 h    0.828
   494   1 h    0.897 --   493 o    0.847
   495   1 h    0.887 --   493 o    0.828
   496   8 o    1.851 --   498 h    0.912   497 h    0.780
   497   1 h    0.883 --   496 o    0.780
   498   1 h    0.917 --   496 o    0.912
   499   8 o    1.841 --   501 h    0.835   500 h    0.831
   500   1 h    0.888 --   499 o    0.831
   501   1 h    0.884 --   499 o    0.835
   502   8 o    1.851 --   503 h    0.911   504 h    0.797
   503   1 h    0.916 --   502 o    0.911
   504   1 h    0.872 --   502 o    0.797
   505   8 o    1.852 --   507 h    0.871   506 h    0.846
   506   1 h    0.886 --   505 o    0.846
   507   1 h    0.902 --   505 o    0.871
   508   8 o    1.834 --   509 h    0.819   510 h    0.778
   509   1 h    0.883 --   508 o    0.819
   510   1 h    0.876 --   508 o    0.778
   511   8 o    1.856 --   513 h    0.866   512 h    0.825
   512   1 h    0.883 --   511 o    0.825
   513   1 h    0.898 --   511 o    0.866
   514   8 o    1.849 --   516 h    0.874   515 h    0.837
   515   1 h    0.887 --   514 o    0.837
   516   1 h    0.901 --   514 o    0.874
   517   8 o    1.860 --   519 h    0.828   518 h    0.825
   518   1 h    0.885 --   517 o    0.825
   519   1 h    0.894 --   517 o    0.828
   520   8 o    1.824 --   522 h    0.867   521 h    0.815
   521   1 h    0.893 --   520 o    0.815
   522   1 h    0.902 --   520 o    0.867
   523   8 o    1.857 --   524 h    0.873   525 h    0.831
   524   1 h    0.897 --   523 o    0.873
   525   1 h    0.886 --   523 o    0.831
   526   8 o    1.804 --   527 h    0.860   528 h    0.831
   527   1 h    0.898 --   526 o    0.860
   528   1 h    0.885 --   526 o    0.831
   529   8 o    1.851 --   531 h    0.901   530 h    0.805
   530   1 h    0.870 --   529 o    0.805
   531   1 h    0.912 --   529 o    0.901
   532   8 o    1.845 --   533 h    0.855   534 h    0.806
   533   1 h    0.892 --   532 o    0.855
   534   1 h    0.870 --   532 o    0.806
   535   8 o    1.851 --   537 h    0.843   536 h    0.822
   536   1 h    0.880 --   535 o    0.822
   537   1 h    0.892 --   535 o    0.843
   538   8 o    1.848 --   540 h    0.861   539 h    0.841
   539   1 h    0.886 --   538 o    0.841
   540   1 h    0.892 --   538 o    0.861
   541   8 o    1.846 --   542 h    0.876   543 h    0.805
   542   1 h    0.903 --   541 o    0.876
   543   1 h    0.883 --   541 o    0.805
   544   8 o    1.880 --   545 h    0.850   546 h    0.820
   545   1 h    0.894 --   544 o    0.850
   546   1 h    0.888 --   544 o    0.820
   547   8 o    1.854 --   548 h    0.886   549 h    0.830
   548   1 h    0.907 --   547 o    0.886
   549   1 h    0.874 --   547 o    0.830
   550   8 o    1.860 --   552 h    0.886   551 h    0.802
   551   1 h    0.883 --   550 o    0.802
   552   1 h    0.904 --   550 o    0.886
   553   8 o    1.869 --   555 h    0.914   554 h    0.809
   554   1 h    0.874 --   553 o    0.809
   555   1 h    0.918 --   553 o    0.914
   556   8 o    1.865 --   557 h    0.826   558 h    0.817
   557   1 h    0.881 --   556 o    0.826
   558   1 h    0.878 --   556 o    0.817
   559   8 o    1.846 --   560 h    0.874   561 h    0.849
   560   1 h    0.898 --   559 o    0.874
   561   1 h    0.889 --   559 o    0.849
   562   8 o    1.824 --   564 h    0.825   563 h    0.789
   563   1 h    0.875 --   562 o    0.789
   564   1 h    0.881 --   562 o    0.825
   565   8 o    1.884 --   567 h    0.825   566 h    0.824
   566   1 h    0.892 --   565 o    0.824
   567   1 h    0.876 --   565 o    0.825
   568   8 o    1.877 --   569 h    0.865   570 h    0.848
   569   1 h    0.894 --   568 o    0.865
   570   1 h    0.889 --   568 o    0.848
   571   8 o    1.845 --   573 h    0.862   572 h    0.846
   572   1 h    0.882 --   571 o    0.846
   573   1 h    0.900 --   571 o    0.862
   574   8 o    1.854 --   575 h    0.870   576 h    0.799
   575   1 h    0.900 --   574 o    0.870
   576   1 h    0.876 --   574 o    0.799
   577   8 o    1.831 --   578 h    0.871   579 h    0.809
   578   1 h    0.899 --   577 o    0.871
   579   1 h    0.882 --   577 o    0.809
   580   8 o    1.834 --   581 h    0.920   582 h    0.810
   581   1 h    0.925 --   580 o    0.920
   582   1 h    0.880 --   580 o    0.810
   583   8 o    1.829 --   584 h    0.822   585 h    0.814
   584   1 h    0.890 --   583 o    0.822
   585   1 h    0.888 --   583 o    0.814
   586   8 o    1.856 --   587 h    0.822   588 h    0.780
   587   1 h    0.894 --   586 o    0.822
   588   1 h    0.875 --   586 o    0.780
   589   8 o    1.872 --   591 h    0.844   590 h    0.778
   590   1 h    0.870 --   589 o    0.778
   591   1 h    0.891 --   589 o    0.844
   592   8 o    1.845 --   593 h    0.891   594 h    0.791
   593   1 h    0.907 --   592 o    0.891
   594   1 h    0.869 --   592 o    0.791
   595   8 o    1.812 --   597 h    0.879   596 h    0.827
   596   1 h    0.892 --   595 o    0.827
   597   1 h    0.898 --   595 o    0.879
   598   8 o    1.860 --   600 h    0.867   599 h    0.786
   599   1 h    0.876 --   598 o    0.786
   600   1 h    0.903 --   598 o    0.867
   601   8 o    1.830 --   603 h    0.864   602 h    0.811
   602   1 h    0.887 --   601 o    0.811
   603   1 h    0.902 --   601 o    0.864
   604   8 o    1.817 --   606 h    0.871   605 h    0.839
   605   1 h    0.894 --   604 o    0.839
   606   1 h    0.897 --   604 o    0.871
   607   8 o    1.886 --   609 h    0.905   608 h    0.784
   608   1 h    0.880 --   607 o    0.784
   609   1 h    0.912 --   607 o    0.905
   610   8 o    1.864 --   612 h    0.861   611 h    0.822
   611   1 h    0.884 --   610 o    0.822
   612   1 h    0.891 --   610 o    0.861
   613   8 o    1.842 --   614 h    0.853   615 h    0.820
   614   1 h    0.893 --   613 o    0.853
   615   1 h    0.891 --   613 o    0.820
   616   8 o    1.860 --   618 h    0.856   617 h    0.816
   617   1 h    0.886 --   616 o    0.816
   618   1 h    0.893 --   616 o    0.856
   619   8 o    1.864 --   620 h    0.844   621 h    0.783
   620   1 h    0.892 --   619 o    0.844
   621   1 h    0.876 --   619 o    0.783
   622   8 o    1.843 --   624 h    0.896   623 h    0.853
   623   1 h    0.890 --   622 o    0.853
   624   1 h    0.905 --   622 o    0.896
   625   8 o    1.876 --   626 h    0.893   627 h    0.816
   626   1 h    0.903 --   625 o    0.893
   627   1 h    0.879 --   625 o    0.816
   628   8 o    1.855 --   630 h    0.833   629 h    0.805
   629   1 h    0.877 --   628 o    0.805
   630   1 h    0.893 --   628 o    0.833
   631   8 o    1.867 --   632 h    0.801   633 h    0.798
   632   1 h    0.888 --   631 o    0.801
   633   1 h    0.878 --   631 o    0.798
   634   8 o    1.828 --   635 h    0.861   636 h    0.835
   635   1 h    0.900 --   634 o    0.861
   636   1 h    0.892 --   634 o    0.835
   637   8 o    1.870 --   638 h    0.849   639 h    0.835
   638   1 h    0.894 --   637 o    0.849
   639   1 h    0.893 --   637 o    0.835
   640   8 o    1.860 --   642 h    0.820   641 h    0.801
   641   1 h    0.875 --   640 o    0.801
   642   1 h    0.889 --   640 o    0.820
   643   8 o    1.881 --   644 h    0.857   645 h    0.837
   644   1 h    0.890 --   643 o    0.857
   645   1 h    0.893 --   643 o    0.837
   646   8 o    1.862 --   648 h    0.860   647 h    0.845
   647   1 h    0.893 --   646 o    0.845
   648   1 h    0.898 --   646 o    0.860
   649   8 o    1.849 --   650 h    0.878   651 h    0.849
   650   1 h    0.899 --   649 o    0.878
   651   1 h    0.896 --   649 o    0.849
   652   8 o    1.862 --   653 h    0.900   654 h    0.832
   653   1 h    0.909 --   652 o    0.900
   654   1 h    0.884 --   652 o    0.832
   655   8 o    1.853 --   656 h    0.833   657 h    0.803
   656   1 h    0.880 --   655 o    0.833
   657   1 h    0.880 --   655 o    0.803
   658   8 o    1.883 --   659 h    0.849   660 h    0.828
   659   1 h    0.887 --   658 o    0.849
   660   1 h    0.888 --   658 o    0.828
   661   8 o    1.818 --   663 h    0.846   662 h    0.814
   662   1 h    0.877 --   661 o    0.814
   663   1 h    0.891 --   661 o    0.846
   664   8 o    1.850 --   665 h    0.918   666 h    0.814
   665   1 h    0.921 --   664 o    0.918
   666   1 h    0.873 --   664 o    0.814
   667   8 o    1.863 --   669 h    0.893   668 h    0.820
   668   1 h    0.885 --   667 o    0.820
   669   1 h    0.902 --   667 o    0.893
   670   8 o    1.866 --   671 h    0.847   672 h    0.835
   671   1 h    0.889 --   670 o    0.847
   672   1 h    0.883 --   670 o    0.835
   673   8 o    1.864 --   674 h    0.846   675 h    0.808
   674   1 h    0.895 --   673 o    0.846
   675   1 h    0.886 --   673 o    0.808
   676   8 o    1.864 --   678 h    0.910   677 h    0.824
   677   1 h    0.872 --   676 o    0.824
   678   1 h    0.914 --   676 o    0.910
   679   8 o    1.816 --   680 h    0.867   681 h    0.841
   680   1 h    0.901 --   679 o    0.867
   681   1 h    0.892 --   679 o    0.841
   682   8 o    1.847 --   684 h    0.829   683 h    0.812
   683   1 h    0.883 --   682 o    0.812
   684   1 h    0.888 --   682 o    0.829
   685   8 o    1.838 --   686 h    0.884   687 h    0.807
   686   1 h    0.902 --   685 o    0.884
   687   1 h    0.871 --   685 o    0.807
   688   8 o    1.836 --   689 h    0.888   690 h    0.814
   689   1 h    0.905 --   688 o    0.888
   690   1 h    0.880 --   688 o    0.814
   691   8 o    1.862 --   692 h    0.859   693 h    0.839
   692   1 h    0.894 --   691 o    0.859
   693   1 h    0.888 --   691 o    0.839
   694   8 o    1.854 --   695 h    0.915   696 h    0.758
   695   1 h    0.922 --   694 o    0.915
   696   1 h    0.869 --   694 o    0.758   343 o    0.107
   697   8 o    1.846 --   698 h    0.838   699 h    0.806
   698   1 h    0.893 --   697 o    0.838
   699   1 h    0.885 --   697 o    0.806
   700   8 o    1.867 --   701 h    0.836   702 h    0.793
   701   1 h    0.876 --   700 o    0.836
   702   1 h    0.888 --   700 o    0.793
   703   8 o    1.877 --   705 h    0.830   704 h    0.813
   704   1 h    0.873 --   703 o    0.813
   705   1 h    0.882 --   703 o    0.830
   706   8 o    1.863 --   708 h    0.832   707 h    0.807
   707   1 h    0.876 --   706 o    0.807
   708   1 h    0.889 --   706 o    0.832
   709   8 o    1.858 --   710 h    0.864   711 h    0.854
   710   1 h    0.894 --   709 o    0.864
   711   1 h    0.893 --   709 o    0.854
   712   8 o    1.836 --   714 h    0.879   713 h    0.846
   713   1 h    0.884 --   712 o    0.846
   714   1 h    0.903 --   712 o    0.879
   715   8 o    1.825 --   717 h    0.830   716 h    0.812
   716   1 h    0.881 --   715 o    0.812
   717   1 h    0.891 --   715 o    0.830
   718   8 o    1.838 --   719 h    0.867   720 h    0.823
   719   1 h    0.896 --   718 o    0.867
   720   1 h    0.885 --   718 o    0.823
   721   8 o    1.863 --   722 h    0.848   723 h    0.815
   722   1 h    0.895 --   721 o    0.848
   723   1 h    0.885 --   721 o    0.815
   724   8 o    1.872 --   726 h    0.915   725 h    0.785
   725   1 h    0.874 --   724 o    0.785
   726   1 h    0.919 --   724 o    0.915
   727   8 o    1.797 --   728 h    0.846   729 h    0.825
   728   1 h    0.898 --   727 o    0.846
   729   1 h    0.892 --   727 o    0.825
   730   8 o    1.859 --   732 h    0.843   731 h    0.817
   731   1 h    0.888 --   730 o    0.817
   732   1 h    0.891 --   730 o    0.843
   733   8 o    1.842 --   734 h    0.878   735 h    0.811
   734   1 h    0.899 --   733 o    0.878
   735   1 h    0.881 --   733 o    0.811
   736   8 o    1.810 --   738 h    0.850   737 h    0.826
   737   1 h    0.894 --   736 o    0.826
   738   1 h    0.892 --   736 o    0.850
   739   8 o    1.860 --   741 h    0.833   740 h    0.820
   740   1 h    0.889 --   739 o    0.820
   741   1 h    0.890 --   739 o    0.833
   742   8 o    1.847 --   743 h    0.858   744 h    0.837
   743   1 h    0.896 --   742 o    0.858
   744   1 h    0.895 --   742 o    0.837
   745   8 o    1.869 --   747 h    0.832   746 h    0.808
   746   1 h    0.873 --   745 o    0.808
   747   1 h    0.886 --   745 o    0.832
   748   8 o    1.865 --   750 h    0.837   749 h    0.826
   749   1 h    0.888 --   748 o    0.826
   750   1 h    0.881 --   748 o    0.837
   751   8 o    1.864 --   752 h    0.880   753 h    0.815
   752   1 h    0.894 --   751 o    0.880
   753   1 h    0.860 --   751 o    0.815
   754   8 o    1.811 --   755 h    0.872   756 h    0.866
   755   1 h    0.891 --   754 o    0.872
   756   1 h    0.893 --   754 o    0.866
 ---------------------------------------------------------------------------

Topologies differ in total number of bonds
Writing topology from bond orders to xtbtopo.mol

molecular dipole:
                 x           y           z       tot (Debye)
 q only:        1.825       2.148       0.968
   full:        1.640       2.962       1.524       9.437
molecular quadrupole (traceless):
                xx          xy          yy          xz          yz          zz
 q only:        5.376     -27.736      10.141      -0.870     -23.535     -15.517
  q+dip:       13.603     -21.777      -7.016      -2.651     -46.244      -6.587
   full:       15.390     -20.021     -10.168      -2.458     -47.330      -5.222


           -------------------------------------------------
          | TOTAL ENERGY            -1283.277579298780 Eh   |
          | GRADIENT NORM               0.099958167700 Eh/α |
          | HOMO-LUMO GAP               6.008625323724 eV   |
           -------------------------------------------------

------------------------------------------------------------------------
 * finished run on 2022/11/24 at 12:22:37.031     
------------------------------------------------------------------------
 total:
 * wall-time:     0 d,  0 h,  0 min, 56.199 sec
 *  cpu-time:     0 d,  0 h,  1 min, 12.165 sec
 * ratio c/w:     1.284 speedup
 SCF:
 * wall-time:     0 d,  0 h,  0 min, 55.193 sec
 *  cpu-time:     0 d,  0 h,  1 min, 10.467 sec
 * ratio c/w:     1.277 speedup

