      -----------------------------------------------------------      
     |                   =====================                   |     
     |                           x T B                           |     
     |                   =====================                   |     
     |                         S. Grimme                         |     
     |          Mulliken Center for Theoretical Chemistry        |     
     |                    University of Bonn                     |     
      -----------------------------------------------------------      

   * xtb version 6.5.1 (579679a) compiled by 'ehlert@majestix' on 2022-07-11

   xtb is free software: you can redistribute it and/or modify it under
   the terms of the GNU Lesser General Public License as published by
   the Free Software Foundation, either version 3 of the License, or
   (at your option) any later version.
   
   xtb is distributed in the hope that it will be useful,
   but WITHOUT ANY WARRANTY; without even the implied warranty of
   MERCHANTABILITY or FITNESS FOR A PARTICULAR PURPOSE.  See the
   GNU Lesser General Public License for more details.
   
   Cite this work as:
   * C. Bannwarth, E. Caldeweyher, S. Ehlert, A. Hansen, P. Pracht,
     J. Seibert, S. Spicher, S. Grimme, WIREs Comput. Mol. Sci., 2020, 11,
     e01493. DOI: 10.1002/wcms.1493
   
   for GFN2-xTB:
   * C. Bannwarth, S. Ehlert and S. Grimme., J. Chem. Theory Comput., 2019,
     15, 1652-1671. DOI: 10.1021/acs.jctc.8b01176
   for GFN1-xTB:
   * S. Grimme, C. Bannwarth, P. Shushkov, J. Chem. Theory Comput., 2017,
     13, 1989-2009. DOI: 10.1021/acs.jctc.7b00118
   for GFN0-xTB:
   * P. Pracht, E. Caldeweyher, S. Ehlert, S. Grimme, ChemRxiv, 2019, preprint.
     DOI: 10.26434/chemrxiv.8326202.v1
   for GFN-FF:
   * S. Spicher and S. Grimme, Angew. Chem. Int. Ed., 2020, 59, 15665-15673.
     DOI: 10.1002/anie.202004239
   
   for ALPB and GBSA implicit solvation:
   * S. Ehlert, M. Stahn, S. Spicher, S. Grimme, J. Chem. Theory Comput.,
     2021, 17, 4250-4261. DOI: 10.1021/acs.jctc.1c00471
   
   for DFT-D4:
   * E. Caldeweyher, C. Bannwarth and S. Grimme, J. Chem. Phys., 2017,
     147, 034112. DOI: 10.1063/1.4993215
   * E. Caldeweyher, S. Ehlert, A. Hansen, H. Neugebauer, S. Spicher,
     C. Bannwarth and S. Grimme, J. Chem. Phys., 2019, 150, 154122.
     DOI: 10.1063/1.5090222
   * E. Caldeweyher, J.-M. Mewes, S. Ehlert and S. Grimme, Phys. Chem. Chem. Phys.
     2020, 22, 8499-8512. DOI: 10.1039/D0CP00502A
   
   for sTDA-xTB:
   * S. Grimme and C. Bannwarth, J. Chem. Phys., 2016, 145, 054103.
     DOI: 10.1063/1.4959605
   
   in the mass-spec context:
   * V. Asgeirsson, C. Bauer and S. Grimme, Chem. Sci., 2017, 8, 4879.
     DOI: 10.1039/c7sc00601b
   * J. Koopman and S. Grimme, ACS Omega 2019, 4, 12, 15120-15133.
     DOI: 10.1021/acsomega.9b02011
   
   for metadynamics refer to:
   * S. Grimme, J. Chem. Theory Comput., 2019, 155, 2847-2862
     DOI: 10.1021/acs.jctc.9b00143
   
   for SPH calculations refer to:
   * S. Spicher and S. Grimme, J. Chem. Theory Comput., 2021, 17, 1701-1714
     DOI: 10.1021/acs.jctc.0c01306
   
   with help from (in alphabetical order)
   P. Atkinson, C. Bannwarth, F. Bohle, G. Brandenburg, E. Caldeweyher
   M. Checinski, S. Dohm, S. Ehlert, S. Ehrlich, I. Gerasimov, C. Hölzer
   A. Katbashev, J. Koopman, C. Lavigne, S. Lehtola, F. März, M. Müller,
   F. Musil, H. Neugebauer, J. Pisarek, C. Plett, P. Pracht, F. Pultar,
   J. Seibert, P. Shushkov, S. Spicher, M. Stahn, M. Steiner, T. Strunk,
   J. Stückrath, T. Rose, and J. Unsleber
   
 * started run on 2022/11/24 at 12:21:16.691     

           -------------------------------------------------
          |                Calculation Setup                |
           -------------------------------------------------

          program call               : xtb xtbopt.coord --gfn2 --sp --gbsa water
          hostname                   : cn0430
          coordinate file            : xtbopt.coord
          omp threads                :                     2

   ID    Z sym.   atoms
    1    8 o      1, 4, 7, 10, 13, 16, 19, 22, 25, 28, 31, 34, 37, 40, 43,
                  46, 49, 52, 55, 58, 61, 64, 67, 70, 73, 76, 79, 82, 85, 88,
                  91, 94, 97, 100, 103, 106, 109, 112, 115, 118, 121, 124,
                  127, 130, 133, 136, 139, 142, 145, 148, 151, 154, 157, 160,
                  163, 166, 169, 172, 175, 178, 181, 184, 187, 190, 193, 196,
                  199, 202, 205, 208, 211, 214, 217, 220, 223, 226, 229, 232,
                  235, 238, 241, 244, 247, 250, 253, 256, 259, 262, 265, 268,
                  271, 274, 277, 280, 283, 286, 289, 292, 295, 298, 301, 304,
                  307, 310, 313, 316, 319, 322, 325, 328, 331, 334, 337, 340,
                  343, 346, 349, 352, 355, 358, 361, 364, 367, 370, 373, 376,
                  379, 382, 385, 388, 391, 394, 397, 400, 403, 406, 409, 412,
                  415, 418, 421, 424, 427, 430, 433, 436, 439, 442, 445, 448,
                  451, 454, 457, 460, 463, 466, 469, 472, 475, 478, 481, 484,
                  487, 490, 493, 496, 499, 502, 505, 508, 511, 514, 517, 520,
                  523, 526, 529, 532, 535, 538, 541, 544, 547, 550, 553, 556,
                  559, 562, 565, 568, 571, 574, 577, 580, 583, 586, 589, 592,
                  595, 598, 601, 604, 607, 610, 613, 616, 619, 622, 625, 628,
                  631, 634, 637, 640, 643, 646, 649, 652, 655, 658, 661, 664,
                  667, 670, 673, 676, 679, 682, 685, 688, 691, 694, 697, 700,
                  703, 706, 709, 712, 715, 718, 721, 724, 727, 730, 733, 736,
                  739, 742, 745, 748, 751, 754
    2    1 h      2, 3, 5, 6, 8, 9, 11, 12, 14, 15, 17, 18, 20, 21, 23, 24,
                  26, 27, 29, 30, 32, 33, 35, 36, 38, 39, 41, 42, 44, 45, 47,
                  48, 50, 51, 53, 54, 56, 57, 59, 60, 62, 63, 65, 66, 68, 69,
                  71, 72, 74, 75, 77, 78, 80, 81, 83, 84, 86, 87, 89, 90, 92,
                  93, 95, 96, 98, 99, 101, 102, 104, 105, 107, 108, 110, 111,
                  113, 114, 116, 117, 119, 120, 122, 123, 125, 126, 128, 129,
                  131, 132, 134, 135, 137, 138, 140, 141, 143, 144, 146, 147,
                  149, 150, 152, 153, 155, 156, 158, 159, 161, 162, 164, 165,
                  167, 168, 170, 171, 173, 174, 176, 177, 179, 180, 182, 183,
                  185, 186, 188, 189, 191, 192, 194, 195, 197, 198, 200, 201,
                  203, 204, 206, 207, 209, 210, 212, 213, 215, 216, 218, 219,
                  221, 222, 224, 225, 227, 228, 230, 231, 233, 234, 236, 237,
                  239, 240, 242, 243, 245, 246, 248, 249, 251, 252, 254, 255,
                  257, 258, 260, 261, 263, 264, 266, 267, 269, 270, 272, 273,
                  275, 276, 278, 279, 281, 282, 284, 285, 287, 288, 290, 291,
                  293, 294, 296, 297, 299, 300, 302, 303, 305, 306, 308, 309,
                  311, 312, 314, 315, 317, 318, 320, 321, 323, 324, 326, 327,
                  329, 330, 332, 333, 335, 336, 338, 339, 341, 342, 344, 345,
                  347, 348, 350, 351, 353, 354, 356, 357, 359, 360, 362, 363,
                  365, 366, 368, 369, 371, 372, 374, 375, 377, 378, 380, 381,
                  383, 384, 386, 387, 389, 390, 392, 393, 395, 396, 398, 399,
                  401, 402, 404, 405, 407, 408, 410, 411, 413, 414, 416, 417,
                  419, 420, 422, 423, 425, 426, 428, 429, 431, 432, 434, 435,
                  437, 438, 440, 441, 443, 444, 446, 447, 449, 450, 452, 453,
                  455, 456, 458, 459, 461, 462, 464, 465, 467, 468, 470, 471,
                  473, 474, 476, 477, 479, 480, 482, 483, 485, 486, 488, 489,
                  491, 492, 494, 495, 497, 498, 500, 501, 503, 504, 506, 507,
                  509, 510, 512, 513, 515, 516, 518, 519, 521, 522, 524, 525,
                  527, 528, 530, 531, 533, 534, 536, 537, 539, 540, 542, 543,
                  545, 546, 548, 549, 551, 552, 554, 555, 557, 558, 560, 561,
                  563, 564, 566, 567, 569, 570, 572, 573, 575, 576, 578, 579,
                  581, 582, 584, 585, 587, 588, 590, 591, 593, 594, 596, 597,
                  599, 600, 602, 603, 605, 606, 608, 609, 611, 612, 614, 615,
                  617, 618, 620, 621, 623, 624, 626, 627, 629, 630, 632, 633,
                  635, 636, 638, 639, 641, 642, 644, 645, 647, 648, 650, 651,
                  653, 654, 656, 657, 659, 660, 662, 663, 665, 666, 668, 669,
                  671, 672, 674, 675, 677, 678, 680, 681, 683, 684, 686, 687,
                  689, 690, 692, 693, 695, 696, 698, 699, 701, 702, 704, 705,
                  707, 708, 710, 711, 713, 714, 716, 717, 719, 720, 722, 723,
                  725, 726, 728, 729, 731, 732, 734, 735, 737, 738, 740, 741,
                  743, 744, 746, 747, 749, 750, 752, 753, 755, 756

molecular fragmentation (1/2 indicates fragments):
111222222222222222222222222222222222222222222222222222222222222222222222
222222222222222222222222222222222222222222222222222222222222222222222222
222222222222222222222222222222222222222222222222222222222222222222222222
222222222222222222222222222222222222222222222222222222222222222222222222
222222222222222222222222222222222222222222222222222222222222222222222222
222222222222222222222222222222222222222222222222222222222222222222222222
222222222222222222222222222222222222222222222222222222222222222222222222
222222222222222222222222222222222222222222222222222222222222222222222222
222222222222222222222222222222222222222222222222222222222222222222222222
222222222222222222222222222222222222222222222222222222222222222222222222
222222222222222222222222222222222222
# atoms in fragment 1/2:     3   753
 fragment masses (1/2) :       18.02     4521.84
CMA distance (Bohr)    :  18.024
constraining FC (au)   :  0.0500

           -------------------------------------------------
          |                 G F N 2 - x T B                 |
           -------------------------------------------------

        Reference                      10.1021/acs.jctc.8b01176
      * Hamiltonian:
        H0-scaling (s, p, d)           1.850000    2.230000    2.230000
        zeta-weighting                 0.500000
      * Dispersion:
        s8                             2.700000
        a1                             0.520000
        a2                             5.000000
        s9                             5.000000
      * Repulsion:
        kExp                           1.500000    1.000000
        rExp                           1.000000
      * Coulomb:
        alpha                          2.000000
        third order                    shell-resolved
        anisotropic                    true
        a3                             3.000000
        a5                             4.000000
        cn-shift                       1.200000
        cn-exp                         4.000000
        max-rad                        5.000000

      * Solvation model:               GBSA
        Solvent                        water
        Parameter file                 internal GFN2-xTB/GBSA
        Dielectric constant                8.0200E+01
        Reference state                gsolv [1 M gas/solution]
        Free energy shift                  1.8574E-03 Eh       1.1656E+00 kcal/mol
        Temperature                        2.9815E+02 K
        Density                            1.0000E+00 kg/L
        Solvent mass                       1.8000E+01 g/mol
        Interaction kernel             Still
        Born radius scaling (c1)           1.5524E+00
        Born radii integrator          GBOBC
        Born offset                        2.4628E-02 a0       4.6540E-02 AA
        H-bond correction              true
        Ion screening                  false
        Surface tension                    1.0000E-05 Eh       1.5569E+01 dyn/cm
        Grid points                               230 per atom

          ...................................................
          :                      SETUP                      :
          :.................................................:
          :  # basis functions                1512          :
          :  # atomic orbitals                1512          :
          :  # shells                         1008          :
          :  # electrons                      2016          :
          :  max. iterations                   250          :
          :  Hamiltonian                  GFN2-xTB          :
          :  restarted?                      false          :
          :  GBSA solvation                   true          :
          :  PC potential                    false          :
          :  electronic temp.          300.0000000     K    :
          :  accuracy                    1.0000000          :
          :  -> integral cutoff          0.2500000E+02      :
          :  -> integral neglect         0.1000000E-07      :
          :  -> SCF convergence          0.1000000E-05 Eh   :
          :  -> wf. convergence          0.1000000E-03 e    :
          :  Broyden damping             0.4000000          :
          ...................................................

 iter      E             dE          RMSdq      gap      omega  full diag
   1  -1291.1787826 -0.129118E+04  0.408E+00    8.38       0.0  T
   2  -1291.2651642 -0.863816E-01  0.242E+00    7.98       1.0  T
   3  -1291.3009165 -0.357523E-01  0.226E-01    6.76       1.0  T
   4  -1291.3065227 -0.560621E-02  0.482E-02    7.12       1.0  T
   5  -1291.3066748 -0.152167E-03  0.311E-02    7.05       1.0  T
   6  -1291.3067219 -0.470900E-04  0.389E-03    7.06       1.0  T
   7  -1291.3067238 -0.181488E-05  0.909E-04    7.06       4.0  T
   8  -1291.3067238 -0.832542E-07  0.470E-04    7.06       7.7  T
   9  -1291.3067239 -0.339842E-07  0.127E-04    7.06      28.6  T

   *** convergence criteria satisfied after 9 iterations ***

         #    Occupation            Energy/Eh            Energy/eV
      -------------------------------------------------------------
         1        2.0000           -0.6536451             -17.7866
       ...           ...                  ...                  ...
      1002        2.0000           -0.3362514              -9.1499
      1003        2.0000           -0.3338679              -9.0850
      1004        2.0000           -0.3292670              -8.9598
      1005        2.0000           -0.3217389              -8.7550
      1006        2.0000           -0.3193232              -8.6892
      1007        2.0000           -0.3127413              -8.5101
      1008        2.0000           -0.3103546              -8.4452 (HOMO)
      1009                         -0.0508218              -1.3829 (LUMO)
      1010                         -0.0431715              -1.1748
      1011                         -0.0346391              -0.9426
      1012                         -0.0295594              -0.8044
      1013                         -0.0250558              -0.6818
       ...                                ...                  ...
      1512                          0.5036189              13.7042
      -------------------------------------------------------------
                  HL-Gap            0.2595329 Eh            7.0622 eV
             Fermi-level           -0.1805882 Eh           -4.9141 eV

 SCC (total)                   0 d,  0 h,  0 min, 21.234 sec
 SCC setup                      ...        0 min,  0.116 sec (  0.546%)
 Dispersion                     ...        0 min,  0.109 sec (  0.516%)
 classical contributions        ...        0 min,  0.023 sec (  0.110%)
 integral evaluation            ...        0 min,  0.602 sec (  2.833%)
 iterations                     ...        0 min,  8.041 sec ( 37.867%)
 molecular gradient             ...        0 min, 12.273 sec ( 57.801%)
 printout                       ...        0 min,  0.069 sec (  0.327%)

         :::::::::::::::::::::::::::::::::::::::::::::::::::::
         ::                     SUMMARY                     ::
         :::::::::::::::::::::::::::::::::::::::::::::::::::::
         :: total energy           -1283.535864890373 Eh    ::
         :: total w/o Gsasa/hb     -1283.295883395517 Eh    ::
         :: gradient norm              0.118969635324 Eh/a0 ::
         :: HOMO-LUMO gap              7.062248996247 eV    ::
         ::.................................................::
         :: SCC energy             -1291.306723867608 Eh    ::
         :: -> isotropic ES            7.368427829993 Eh    ::
         :: -> anisotropic ES         -1.626897203228 Eh    ::
         :: -> anisotropic XC         -0.121316727198 Eh    ::
         :: -> dispersion             -0.787952561863 Eh    ::
         :: -> Gsolv                  -0.275799603054 Eh    ::
         ::    -> Gelec               -0.035818108198 Eh    ::
         ::    -> Gsasa                0.005447959085 Eh    ::
         ::    -> Ghb                 -0.247286897068 Eh    ::
         ::    -> Gshift               0.001857443127 Eh    ::
         :: repulsion energy           7.618363834432 Eh    ::
         :: add. restraining           0.000000000000 Eh    ::
         :: total charge               0.000000000000 e     ::
         :::::::::::::::::::::::::::::::::::::::::::::::::::::

           -------------------------------------------------
          |                Property Printout                |
           -------------------------------------------------

    * Orbital Energies and Occupations

         #    Occupation            Energy/Eh            Energy/eV
      -------------------------------------------------------------
         1        2.0000           -0.6536451             -17.7866
       ...           ...                  ...                  ...
       996        2.0000           -0.3426153              -9.3230
       997        2.0000           -0.3422976              -9.3144
       998        2.0000           -0.3409158              -9.2768
       999        2.0000           -0.3388722              -9.2212
      1000        2.0000           -0.3379704              -9.1966
      1001        2.0000           -0.3369256              -9.1682
      1002        2.0000           -0.3362514              -9.1499
      1003        2.0000           -0.3338679              -9.0850
      1004        2.0000           -0.3292670              -8.9598
      1005        2.0000           -0.3217389              -8.7550
      1006        2.0000           -0.3193232              -8.6892
      1007        2.0000           -0.3127413              -8.5101
      1008        2.0000           -0.3103546              -8.4452 (HOMO)
      1009                         -0.0508218              -1.3829 (LUMO)
      1010                         -0.0431715              -1.1748
      1011                         -0.0346391              -0.9426
      1012                         -0.0295594              -0.8044
      1013                         -0.0250558              -0.6818
      1014                         -0.0177281              -0.4824
      1015                         -0.0151851              -0.4132
      1016                         -0.0076330              -0.2077
      1017                         -0.0048728              -0.1326
      1018                         -0.0024047              -0.0654
      1019                         -0.0013772              -0.0375
       ...                                ...                  ...
      1512                          0.5036189              13.7042
      -------------------------------------------------------------
                  HL-Gap            0.2595329 Eh            7.0622 eV
             Fermi-level           -0.1805882 Eh           -4.9141 eV

     #   Z          covCN         q      C6AA      α(0)
     1   8 o        1.606    -0.688    27.398     7.064
     2   1 h        0.803     0.332     0.632     1.249
     3   1 h        0.803     0.337     0.621     1.238
     4   8 o        1.607    -0.672    26.979     7.010
     5   1 h        0.804     0.324     0.652     1.268
     6   1 h        0.804     0.350     0.589     1.206
     7   8 o        1.610    -0.669    26.892     6.999
     8   1 h        0.804     0.337     0.620     1.237
     9   1 h        0.804     0.348     0.594     1.211
    10   8 o        1.608    -0.680    27.181     7.036
    11   1 h        0.803     0.348     0.593     1.210
    12   1 h        0.804     0.351     0.586     1.203
    13   8 o        1.607    -0.704    27.821     7.119
    14   1 h        0.803     0.340     0.612     1.229
    15   1 h        0.804     0.328     0.642     1.259
    16   8 o        1.609    -0.681    27.203     7.039
    17   1 h        0.804     0.346     0.599     1.215
    18   1 h        0.804     0.345     0.601     1.218
    19   8 o        1.607    -0.692    27.508     7.079
    20   1 h        0.804     0.334     0.627     1.244
    21   1 h        0.804     0.341     0.610     1.227
    22   8 o        1.608    -0.678    27.132     7.030
    23   1 h        0.803     0.360     0.567     1.183
    24   1 h        0.804     0.359     0.568     1.183
    25   8 o        1.609    -0.683    27.251     7.046
    26   1 h        0.804     0.340     0.612     1.229
    27   1 h        0.805     0.330     0.636     1.253
    28   8 o        1.609    -0.671    26.941     7.005
    29   1 h        0.805     0.316     0.675     1.291
    30   1 h        0.803     0.348     0.593     1.210
    31   8 o        1.605    -0.695    27.569     7.086
    32   1 h        0.802     0.348     0.594     1.211
    33   1 h        0.804     0.350     0.588     1.204
    34   8 o        1.609    -0.693    27.526     7.081
    35   1 h        0.805     0.328     0.642     1.258
    36   1 h        0.804     0.336     0.621     1.238
    37   8 o        1.608    -0.681    27.202     7.039
    38   1 h        0.803     0.356     0.574     1.191
    39   1 h        0.804     0.335     0.625     1.242
    40   8 o        1.608    -0.692    27.505     7.078
    41   1 h        0.804     0.342     0.607     1.223
    42   1 h        0.804     0.349     0.590     1.207
    43   8 o        1.607    -0.709    27.942     7.134
    44   1 h        0.804     0.344     0.603     1.220
    45   1 h        0.804     0.358     0.569     1.185
    46   8 o        1.607    -0.691    27.477     7.075
    47   1 h        0.803     0.365     0.555     1.171
    48   1 h        0.804     0.350     0.588     1.205
    49   8 o        1.609    -0.694    27.563     7.086
    50   1 h        0.804     0.321     0.662     1.278
    51   1 h        0.805     0.318     0.668     1.284
    52   8 o        1.605    -0.707    27.892     7.128
    53   1 h        0.803     0.361     0.564     1.180
    54   1 h        0.802     0.325     0.651     1.268
    55   8 o        1.606    -0.687    27.364     7.060
    56   1 h        0.804     0.330     0.637     1.253
    57   1 h        0.803     0.350     0.589     1.205
    58   8 o        1.607    -0.666    26.824     6.990
    59   1 h        0.804     0.350     0.589     1.205
    60   1 h        0.804     0.333     0.631     1.247
    61   8 o        1.607    -0.700    27.716     7.105
    62   1 h        0.803     0.339     0.614     1.231
    63   1 h        0.804     0.351     0.586     1.202
    64   8 o        1.609    -0.703    27.794     7.115
    65   1 h        0.804     0.340     0.611     1.228
    66   1 h        0.804     0.345     0.599     1.216
    67   8 o        1.605    -0.708    27.935     7.133
    68   1 h        0.803     0.338     0.617     1.234
    69   1 h        0.803     0.348     0.594     1.210
    70   8 o        1.604    -0.700    27.703     7.104
    71   1 h        0.802     0.360     0.565     1.181
    72   1 h        0.803     0.361     0.563     1.179
    73   8 o        1.607    -0.684    27.301     7.052
    74   1 h        0.802     0.366     0.553     1.169
    75   1 h        0.805     0.319     0.666     1.282
    76   8 o        1.605    -0.693    27.515     7.079
    77   1 h        0.804     0.333     0.631     1.247
    78   1 h        0.803     0.349     0.591     1.208
    79   8 o        1.607    -0.701    27.740     7.108
    80   1 h        0.803     0.358     0.569     1.185
    81   1 h        0.803     0.348     0.592     1.209
    82   8 o        1.608    -0.685    27.327     7.055
    83   1 h        0.804     0.347     0.594     1.211
    84   1 h        0.804     0.343     0.605     1.222
    85   8 o        1.608    -0.674    27.027     7.016
    86   1 h        0.805     0.339     0.615     1.232
    87   1 h        0.803     0.356     0.575     1.191
    88   8 o        1.608    -0.683    27.269     7.048
    89   1 h        0.804     0.357     0.573     1.189
    90   1 h        0.803     0.347     0.596     1.213
    91   8 o        1.607    -0.682    27.225     7.042
    92   1 h        0.803     0.364     0.557     1.173
    93   1 h        0.804     0.334     0.627     1.244
    94   8 o        1.606    -0.712    28.027     7.145
    95   1 h        0.803     0.359     0.567     1.183
    96   1 h        0.804     0.341     0.611     1.228
    97   8 o        1.606    -0.699    27.685     7.101
    98   1 h        0.803     0.367     0.551     1.166
    99   1 h        0.803     0.345     0.599     1.216
   100   8 o        1.609    -0.685    27.324     7.055
   101   1 h        0.805     0.329     0.640     1.256
   102   1 h        0.804     0.347     0.596     1.213
   103   8 o        1.608    -0.684    27.298     7.052
   104   1 h        0.803     0.352     0.584     1.201
   105   1 h        0.804     0.338     0.617     1.234
   106   8 o        1.607    -0.691    27.472     7.074
   107   1 h        0.804     0.330     0.638     1.255
   108   1 h        0.803     0.359     0.568     1.183
   109   8 o        1.608    -0.669    26.891     6.999
   110   1 h        0.803     0.357     0.572     1.188
   111   1 h        0.805     0.330     0.637     1.254
   112   8 o        1.608    -0.672    26.980     7.010
   113   1 h        0.804     0.342     0.608     1.225
   114   1 h        0.804     0.342     0.608     1.225
   115   8 o        1.608    -0.675    27.061     7.021
   116   1 h        0.803     0.339     0.615     1.232
   117   1 h        0.804     0.331     0.635     1.252
   118   8 o        1.608    -0.676    27.076     7.023
   119   1 h        0.803     0.332     0.632     1.249
   120   1 h        0.804     0.350     0.588     1.205
   121   8 o        1.608    -0.678    27.136     7.031
   122   1 h        0.803     0.341     0.609     1.226
   123   1 h        0.804     0.336     0.621     1.238
   124   8 o        1.607    -0.693    27.527     7.081
   125   1 h        0.803     0.341     0.611     1.228
   126   1 h        0.804     0.355     0.576     1.192
   127   8 o        1.608    -0.676    27.079     7.023
   128   1 h        0.803     0.338     0.617     1.234
   129   1 h        0.805     0.346     0.599     1.215
   130   8 o        1.607    -0.693    27.515     7.079
   131   1 h        0.804     0.354     0.579     1.196
   132   1 h        0.803     0.346     0.597     1.214
   133   8 o        1.607    -0.669    26.899     7.000
   134   1 h        0.803     0.332     0.632     1.249
   135   1 h        0.803     0.355     0.576     1.192
   136   8 o        1.607    -0.680    27.173     7.035
   137   1 h        0.804     0.345     0.601     1.217
   138   1 h        0.803     0.350     0.589     1.206
   139   8 o        1.607    -0.679    27.157     7.033
   140   1 h        0.803     0.339     0.615     1.232
   141   1 h        0.804     0.362     0.561     1.177
   142   8 o        1.609    -0.675    27.042     7.018
   143   1 h        0.804     0.329     0.640     1.256
   144   1 h        0.804     0.341     0.610     1.227
   145   8 o        1.608    -0.687    27.367     7.061
   146   1 h        0.804     0.336     0.623     1.240
   147   1 h        0.803     0.340     0.612     1.229
   148   8 o        1.609    -0.671    26.944     7.006
   149   1 h        0.805     0.326     0.647     1.263
   150   1 h        0.804     0.345     0.601     1.218
   151   8 o        1.607    -0.672    26.984     7.011
   152   1 h        0.804     0.338     0.616     1.233
   153   1 h        0.803     0.353     0.583     1.199
   154   8 o        1.608    -0.673    27.005     7.014
   155   1 h        0.803     0.332     0.632     1.249
   156   1 h        0.804     0.328     0.641     1.258
   157   8 o        1.607    -0.690    27.442     7.070
   158   1 h        0.803     0.354     0.580     1.196
   159   1 h        0.803     0.335     0.624     1.241
   160   8 o        1.605    -0.705    27.856     7.123
   161   1 h        0.802     0.345     0.600     1.217
   162   1 h        0.803     0.337     0.620     1.237
   163   8 o        1.609    -0.688    27.390     7.063
   164   1 h        0.804     0.333     0.630     1.246
   165   1 h        0.804     0.350     0.589     1.206
   166   8 o        1.606    -0.699    27.698     7.103
   167   1 h        0.803     0.346     0.598     1.215
   168   1 h        0.804     0.339     0.615     1.232
   169   8 o        1.607    -0.676    27.086     7.024
   170   1 h        0.805     0.344     0.603     1.220
   171   1 h        0.803     0.355     0.577     1.194
   172   8 o        1.608    -0.684    27.278     7.049
   173   1 h        0.805     0.327     0.644     1.260
   174   1 h        0.803     0.347     0.596     1.213
   175   8 o        1.605    -0.706    27.864     7.124
   176   1 h        0.803     0.351     0.586     1.202
   177   1 h        0.803     0.352     0.584     1.200
   178   8 o        1.608    -0.690    27.435     7.069
   179   1 h        0.804     0.359     0.569     1.185
   180   1 h        0.804     0.318     0.668     1.284
   181   8 o        1.606    -0.693    27.516     7.080
   182   1 h        0.803     0.344     0.603     1.219
   183   1 h        0.803     0.329     0.641     1.258
   184   8 o        1.607    -0.674    27.028     7.017
   185   1 h        0.803     0.339     0.615     1.232
   186   1 h        0.805     0.334     0.627     1.243
   187   8 o        1.610    -0.682    27.243     7.045
   188   1 h        0.805     0.328     0.641     1.258
   189   1 h        0.805     0.332     0.633     1.250
   190   8 o        1.608    -0.661    26.682     6.972
   191   1 h        0.805     0.325     0.651     1.268
   192   1 h        0.803     0.350     0.588     1.205
   193   8 o        1.607    -0.678    27.125     7.029
   194   1 h        0.803     0.343     0.605     1.222
   195   1 h        0.803     0.329     0.640     1.257
   196   8 o        1.608    -0.664    26.760     6.982
   197   1 h        0.803     0.349     0.590     1.207
   198   1 h        0.805     0.323     0.656     1.272
   199   8 o        1.607    -0.663    26.740     6.979
   200   1 h        0.805     0.340     0.612     1.229
   201   1 h        0.802     0.334     0.628     1.245
   202   8 o        1.608    -0.673    27.008     7.014
   203   1 h        0.804     0.347     0.596     1.213
   204   1 h        0.804     0.352     0.585     1.201
   205   8 o        1.609    -0.662    26.726     6.977
   206   1 h        0.804     0.347     0.596     1.213
   207   1 h        0.805     0.327     0.645     1.261
   208   8 o        1.610    -0.660    26.675     6.971
   209   1 h        0.805     0.335     0.624     1.241
   210   1 h        0.805     0.325     0.652     1.268
   211   8 o        1.606    -0.696    27.616     7.092
   212   1 h        0.802     0.352     0.583     1.200
   213   1 h        0.803     0.342     0.609     1.225
   214   8 o        1.609    -0.684    27.278     7.049
   215   1 h        0.803     0.359     0.567     1.183
   216   1 h        0.804     0.355     0.576     1.192
   217   8 o        1.607    -0.680    27.183     7.037
   218   1 h        0.804     0.348     0.592     1.209
   219   1 h        0.804     0.350     0.589     1.205
   220   8 o        1.609    -0.661    26.703     6.974
   221   1 h        0.804     0.322     0.659     1.275
   222   1 h        0.804     0.331     0.634     1.251
   223   8 o        1.609    -0.672    26.966     7.009
   224   1 h        0.805     0.335     0.624     1.240
   225   1 h        0.804     0.331     0.636     1.252
   226   8 o        1.609    -0.680    27.187     7.037
   227   1 h        0.805     0.317     0.671     1.287
   228   1 h        0.804     0.341     0.610     1.227
   229   8 o        1.606    -0.694    27.554     7.084
   230   1 h        0.803     0.357     0.572     1.188
   231   1 h        0.803     0.349     0.590     1.207
   232   8 o        1.606    -0.661    26.699     6.974
   233   1 h        0.805     0.324     0.653     1.269
   234   1 h        0.801     0.348     0.593     1.210
   235   8 o        1.606    -0.694    27.548     7.084
   236   1 h        0.805     0.332     0.632     1.248
   237   1 h        0.803     0.362     0.561     1.177
   238   8 o        1.607    -0.698    27.649     7.097
   239   1 h        0.803     0.343     0.605     1.222
   240   1 h        0.804     0.351     0.586     1.202
   241   8 o        1.608    -0.676    27.070     7.022
   242   1 h        0.804     0.344     0.602     1.219
   243   1 h        0.804     0.344     0.602     1.219
   244   8 o        1.609    -0.668    26.870     6.996
   245   1 h        0.805     0.336     0.623     1.240
   246   1 h        0.804     0.332     0.631     1.248
   247   8 o        1.609    -0.675    27.062     7.021
   248   1 h        0.804     0.361     0.563     1.178
   249   1 h        0.805     0.348     0.592     1.209
   250   8 o        1.605    -0.690    27.454     7.072
   251   1 h        0.804     0.323     0.655     1.271
   252   1 h        0.801     0.364     0.557     1.173
   253   8 o        1.607    -0.680    27.183     7.037
   254   1 h        0.804     0.343     0.605     1.222
   255   1 h        0.803     0.355     0.576     1.192
   256   8 o        1.609    -0.681    27.210     7.040
   257   1 h        0.805     0.321     0.660     1.276
   258   1 h        0.804     0.354     0.578     1.194
   259   8 o        1.606    -0.697    27.637     7.095
   260   1 h        0.803     0.363     0.558     1.174
   261   1 h        0.804     0.327     0.646     1.263
   262   8 o        1.606    -0.703    27.785     7.114
   263   1 h        0.804     0.355     0.576     1.192
   264   1 h        0.804     0.350     0.589     1.206
   265   8 o        1.608    -0.666    26.813     6.989
   266   1 h        0.803     0.346     0.599     1.216
   267   1 h        0.806     0.311     0.688     1.303
   268   8 o        1.608    -0.662    26.714     6.976
   269   1 h        0.804     0.331     0.634     1.250
   270   1 h        0.804     0.324     0.653     1.269
   271   8 o        1.605    -0.702    27.763     7.111
   272   1 h        0.802     0.344     0.602     1.219
   273   1 h        0.803     0.356     0.576     1.192
   274   8 o        1.608    -0.683    27.255     7.046
   275   1 h        0.804     0.324     0.653     1.269
   276   1 h        0.804     0.339     0.614     1.230
   277   8 o        1.608    -0.672    26.987     7.011
   278   1 h        0.805     0.330     0.637     1.254
   279   1 h        0.803     0.360     0.566     1.182
   280   8 o        1.607    -0.667    26.851     6.994
   281   1 h        0.803     0.360     0.566     1.182
   282   1 h        0.805     0.328     0.643     1.259
   283   8 o        1.607    -0.687    27.375     7.061
   284   1 h        0.805     0.309     0.694     1.308
   285   1 h        0.802     0.357     0.574     1.190
   286   8 o        1.607    -0.674    27.041     7.018
   287   1 h        0.803     0.344     0.603     1.220
   288   1 h        0.804     0.331     0.636     1.253
   289   8 o        1.607    -0.695    27.584     7.088
   290   1 h        0.803     0.362     0.561     1.177
   291   1 h        0.804     0.333     0.629     1.246
   292   8 o        1.608    -0.673    27.008     7.014
   293   1 h        0.805     0.325     0.651     1.267
   294   1 h        0.803     0.345     0.599     1.216
   295   8 o        1.608    -0.688    27.386     7.063
   296   1 h        0.803     0.356     0.574     1.190
   297   1 h        0.805     0.325     0.650     1.267
   298   8 o        1.608    -0.670    26.919     7.002
   299   1 h        0.802     0.360     0.565     1.181
   300   1 h        0.805     0.337     0.621     1.237
   301   8 o        1.609    -0.690    27.437     7.070
   302   1 h        0.805     0.346     0.597     1.213
   303   1 h        0.804     0.357     0.571     1.187
   304   8 o        1.609    -0.674    27.021     7.016
   305   1 h        0.805     0.330     0.638     1.254
   306   1 h        0.803     0.354     0.579     1.195
   307   8 o        1.607    -0.683    27.276     7.049
   308   1 h        0.804     0.324     0.654     1.270
   309   1 h        0.803     0.346     0.597     1.213
   310   8 o        1.607    -0.684    27.298     7.052
   311   1 h        0.804     0.332     0.632     1.249
   312   1 h        0.804     0.355     0.578     1.194
   313   8 o        1.607    -0.667    26.854     6.994
   314   1 h        0.804     0.321     0.662     1.278
   315   1 h        0.803     0.335     0.625     1.242
   316   8 o        1.609    -0.666    26.818     6.989
   317   1 h        0.804     0.358     0.570     1.186
   318   1 h        0.805     0.322     0.660     1.276
   319   8 o        1.609    -0.649    26.382     6.932
   320   1 h        0.805     0.322     0.659     1.275
   321   1 h        0.804     0.339     0.615     1.232
   322   8 o        1.607    -0.679    27.148     7.032
   323   1 h        0.803     0.355     0.577     1.194
   324   1 h        0.804     0.334     0.626     1.243
   325   8 o        1.607    -0.669    26.896     6.999
   326   1 h        0.806     0.308     0.698     1.312
   327   1 h        0.802     0.360     0.566     1.182
   328   8 o        1.607    -0.698    27.652     7.097
   329   1 h        0.803     0.345     0.600     1.216
   330   1 h        0.803     0.352     0.583     1.199
   331   8 o        1.609    -0.658    26.612     6.962
   332   1 h        0.804     0.339     0.614     1.231
   333   1 h        0.804     0.352     0.583     1.199
   334   8 o        1.608    -0.686    27.334     7.056
   335   1 h        0.805     0.334     0.626     1.243
   336   1 h        0.803     0.354     0.578     1.194
   337   8 o        1.607    -0.695    27.571     7.087
   338   1 h        0.803     0.352     0.584     1.201
   339   1 h        0.805     0.343     0.604     1.221
   340   8 o        1.607    -0.682    27.237     7.044
   341   1 h        0.803     0.339     0.614     1.231
   342   1 h        0.804     0.340     0.613     1.230
   343   8 o        1.610    -0.667    26.849     6.993
   344   1 h        0.803     0.337     0.619     1.236
   345   1 h        0.803     0.344     0.602     1.218
   346   8 o        1.609    -0.656    26.559     6.955
   347   1 h        0.805     0.326     0.649     1.265
   348   1 h        0.805     0.332     0.632     1.249
   349   8 o        1.607    -0.707    27.888     7.127
   350   1 h        0.804     0.352     0.583     1.200
   351   1 h        0.803     0.339     0.616     1.233
   352   8 o        1.610    -0.648    26.354     6.929
   353   1 h        0.804     0.334     0.627     1.244
   354   1 h        0.805     0.323     0.655     1.272
   355   8 o        1.608    -0.669    26.899     7.000
   356   1 h        0.804     0.336     0.623     1.240
   357   1 h        0.804     0.325     0.651     1.267
   358   8 o        1.607    -0.690    27.456     7.072
   359   1 h        0.802     0.355     0.576     1.192
   360   1 h        0.806     0.315     0.677     1.292
   361   8 o        1.609    -0.654    26.527     6.951
   362   1 h        0.806     0.324     0.653     1.269
   363   1 h        0.803     0.346     0.597     1.213
   364   8 o        1.607    -0.697    27.634     7.095
   365   1 h        0.804     0.350     0.589     1.205
   366   1 h        0.803     0.350     0.589     1.205
   367   8 o        1.606    -0.697    27.645     7.096
   368   1 h        0.803     0.323     0.655     1.272
   369   1 h        0.802     0.358     0.571     1.187
   370   8 o        1.608    -0.678    27.120     7.029
   371   1 h        0.805     0.331     0.635     1.251
   372   1 h        0.803     0.337     0.620     1.237
   373   8 o        1.607    -0.700    27.716     7.105
   374   1 h        0.803     0.347     0.595     1.212
   375   1 h        0.804     0.338     0.617     1.234
   376   8 o        1.606    -0.683    27.262     7.047
   377   1 h        0.803     0.350     0.587     1.204
   378   1 h        0.803     0.323     0.656     1.272
   379   8 o        1.608    -0.673    26.995     7.012
   380   1 h        0.803     0.347     0.596     1.213
   381   1 h        0.803     0.324     0.652     1.268
   382   8 o        1.608    -0.658    26.626     6.964
   383   1 h        0.805     0.330     0.637     1.253
   384   1 h        0.803     0.335     0.625     1.242
   385   8 o        1.608    -0.649    26.392     6.934
   386   1 h        0.805     0.313     0.682     1.297
   387   1 h        0.802     0.368     0.549     1.164
   388   8 o        1.608    -0.665    26.797     6.987
   389   1 h        0.804     0.351     0.585     1.201
   390   1 h        0.804     0.333     0.629     1.246
   391   8 o        1.607    -0.678    27.137     7.031
   392   1 h        0.805     0.323     0.656     1.273
   393   1 h        0.802     0.339     0.614     1.231
   394   8 o        1.608    -0.667    26.843     6.993
   395   1 h        0.803     0.343     0.606     1.223
   396   1 h        0.806     0.315     0.677     1.293
   397   8 o        1.609    -0.674    27.031     7.017
   398   1 h        0.805     0.325     0.649     1.266
   399   1 h        0.804     0.343     0.604     1.221
   400   8 o        1.608    -0.659    26.643     6.966
   401   1 h        0.806     0.317     0.671     1.287
   402   1 h        0.802     0.344     0.603     1.220
   403   8 o        1.607    -0.680    27.183     7.037
   404   1 h        0.804     0.352     0.584     1.200
   405   1 h        0.802     0.341     0.610     1.227
   406   8 o        1.608    -0.647    26.349     6.928
   407   1 h        0.806     0.311     0.688     1.303
   408   1 h        0.803     0.348     0.594     1.210
   409   8 o        1.606    -0.709    27.961     7.137
   410   1 h        0.803     0.339     0.614     1.231
   411   1 h        0.803     0.355     0.576     1.192
   412   8 o        1.605    -0.706    27.886     7.127
   413   1 h        0.803     0.349     0.591     1.208
   414   1 h        0.803     0.356     0.575     1.191
   415   8 o        1.608    -0.697    27.642     7.096
   416   1 h        0.805     0.322     0.659     1.275
   417   1 h        0.803     0.344     0.601     1.218
   418   8 o        1.609    -0.645    26.297     6.921
   419   1 h        0.803     0.346     0.598     1.214
   420   1 h        0.806     0.296     0.732     1.343
   421   8 o        1.607    -0.695    27.581     7.088
   422   1 h        0.803     0.345     0.600     1.217
   423   1 h        0.804     0.345     0.601     1.218
   424   8 o        1.609    -0.677    27.112     7.028
   425   1 h        0.804     0.334     0.626     1.243
   426   1 h        0.804     0.335     0.625     1.242
   427   8 o        1.609    -0.662    26.714     6.976
   428   1 h        0.804     0.338     0.618     1.235
   429   1 h        0.805     0.327     0.645     1.261
   430   8 o        1.604    -0.714    28.098     7.154
   431   1 h        0.802     0.354     0.579     1.196
   432   1 h        0.803     0.332     0.632     1.249
   433   8 o        1.607    -0.683    27.261     7.047
   434   1 h        0.802     0.368     0.547     1.162
   435   1 h        0.804     0.332     0.631     1.248
   436   8 o        1.608    -0.680    27.197     7.038
   437   1 h        0.804     0.333     0.630     1.247
   438   1 h        0.804     0.332     0.632     1.249
   439   8 o        1.609    -0.641    26.182     6.906
   440   1 h        0.803     0.346     0.597     1.213
   441   1 h        0.806     0.317     0.672     1.287
   442   8 o        1.607    -0.697    27.620     7.093
   443   1 h        0.803     0.337     0.619     1.236
   444   1 h        0.804     0.356     0.575     1.192
   445   8 o        1.606    -0.691    27.478     7.075
   446   1 h        0.803     0.360     0.567     1.182
   447   1 h        0.803     0.330     0.636     1.253
   448   8 o        1.607    -0.672    26.971     7.009
   449   1 h        0.804     0.333     0.630     1.246
   450   1 h        0.803     0.338     0.618     1.234
   451   8 o        1.608    -0.680    27.185     7.037
   452   1 h        0.805     0.335     0.623     1.240
   453   1 h        0.804     0.348     0.594     1.210
   454   8 o        1.608    -0.688    27.387     7.063
   455   1 h        0.804     0.344     0.603     1.220
   456   1 h        0.804     0.355     0.577     1.194
   457   8 o        1.607    -0.693    27.532     7.082
   458   1 h        0.803     0.355     0.578     1.194
   459   1 h        0.804     0.337     0.620     1.237
   460   8 o        1.609    -0.668    26.875     6.997
   461   1 h        0.805     0.329     0.640     1.257
   462   1 h        0.804     0.331     0.636     1.253
   463   8 o        1.609    -0.676    27.080     7.023
   464   1 h        0.804     0.341     0.611     1.228
   465   1 h        0.805     0.333     0.629     1.246
   466   8 o        1.607    -0.680    27.192     7.038
   467   1 h        0.805     0.337     0.619     1.235
   468   1 h        0.802     0.338     0.618     1.235
   469   8 o        1.607    -0.672    26.985     7.011
   470   1 h        0.806     0.316     0.675     1.290
   471   1 h        0.802     0.349     0.590     1.207
   472   8 o        1.609    -0.636    26.070     6.891
   473   1 h        0.804     0.335     0.624     1.240
   474   1 h        0.806     0.307     0.699     1.313
   475   8 o        1.606    -0.686    27.333     7.056
   476   1 h        0.803     0.341     0.611     1.228
   477   1 h        0.803     0.331     0.636     1.253
   478   8 o        1.607    -0.680    27.174     7.036
   479   1 h        0.804     0.356     0.574     1.191
   480   1 h        0.803     0.340     0.611     1.228
   481   8 o        1.605    -0.693    27.528     7.081
   482   1 h        0.803     0.324     0.654     1.270
   483   1 h        0.802     0.364     0.557     1.173
   484   8 o        1.605    -0.678    27.142     7.031
   485   1 h        0.805     0.320     0.665     1.281
   486   1 h        0.801     0.369     0.547     1.162
   487   8 o        1.609    -0.675    27.061     7.021
   488   1 h        0.805     0.325     0.650     1.266
   489   1 h        0.804     0.339     0.615     1.232
   490   8 o        1.608    -0.677    27.099     7.026
   491   1 h        0.803     0.358     0.570     1.186
   492   1 h        0.805     0.330     0.637     1.253
   493   8 o        1.607    -0.681    27.215     7.041
   494   1 h        0.804     0.334     0.627     1.243
   495   1 h        0.803     0.341     0.609     1.226
   496   8 o        1.605    -0.659    26.638     6.966
   497   1 h        0.802     0.339     0.615     1.232
   498   1 h        0.806     0.306     0.702     1.316
   499   8 o        1.608    -0.676    27.076     7.023
   500   1 h        0.804     0.338     0.618     1.235
   501   1 h        0.804     0.344     0.603     1.220
   502   8 o        1.608    -0.673    26.999     7.013
   503   1 h        0.806     0.309     0.693     1.308
   504   1 h        0.802     0.364     0.558     1.173
   505   8 o        1.609    -0.684    27.281     7.049
   506   1 h        0.804     0.349     0.590     1.207
   507   1 h        0.805     0.332     0.633     1.250
   508   8 o        1.606    -0.703    27.781     7.114
   509   1 h        0.804     0.343     0.606     1.222
   510   1 h        0.803     0.348     0.593     1.210
   511   8 o        1.608    -0.669    26.897     7.000
   512   1 h        0.803     0.346     0.599     1.216
   513   1 h        0.805     0.328     0.642     1.258
   514   8 o        1.609    -0.658    26.608     6.962
   515   1 h        0.804     0.340     0.612     1.229
   516   1 h        0.805     0.323     0.655     1.271
   517   8 o        1.606    -0.689    27.410     7.066
   518   1 h        0.803     0.352     0.584     1.200
   519   1 h        0.803     0.324     0.655     1.271
   520   8 o        1.607    -0.674    27.018     7.015
   521   1 h        0.803     0.324     0.654     1.270
   522   1 h        0.805     0.319     0.667     1.283
   523   8 o        1.609    -0.679    27.150     7.032
   524   1 h        0.805     0.329     0.639     1.255
   525   1 h        0.803     0.351     0.586     1.203
   526   8 o        1.608    -0.681    27.223     7.042
   527   1 h        0.804     0.320     0.664     1.280
   528   1 h        0.804     0.346     0.598     1.215
   529   8 o        1.608    -0.667    26.858     6.994
   530   1 h        0.803     0.368     0.548     1.163
   531   1 h        0.806     0.306     0.702     1.316
   532   8 o        1.607    -0.677    27.108     7.027
   533   1 h        0.805     0.325     0.649     1.266
   534   1 h        0.803     0.365     0.554     1.169
   535   8 o        1.608    -0.678    27.124     7.029
   536   1 h        0.803     0.352     0.584     1.201
   537   1 h        0.804     0.326     0.647     1.264
   538   8 o        1.608    -0.692    27.504     7.078
   539   1 h        0.804     0.353     0.582     1.198
   540   1 h        0.804     0.340     0.613     1.229
   541   8 o        1.607    -0.676    27.070     7.022
   542   1 h        0.805     0.323     0.655     1.271
   543   1 h        0.802     0.346     0.598     1.215
   544   8 o        1.607    -0.677    27.106     7.027
   545   1 h        0.804     0.336     0.623     1.240
   546   1 h        0.802     0.341     0.610     1.227
   547   8 o        1.609    -0.660    26.676     6.971
   548   1 h        0.805     0.313     0.683     1.298
   549   1 h        0.804     0.362     0.561     1.177
   550   8 o        1.607    -0.656    26.564     6.956
   551   1 h        0.802     0.343     0.605     1.222
   552   1 h        0.806     0.314     0.680     1.295
   553   8 o        1.608    -0.652    26.456     6.942
   554   1 h        0.802     0.353     0.581     1.197
   555   1 h        0.806     0.313     0.682     1.297
   556   8 o        1.607    -0.677    27.108     7.027
   557   1 h        0.804     0.344     0.603     1.220
   558   1 h        0.803     0.354     0.580     1.196
   559   8 o        1.609    -0.660    26.668     6.970
   560   1 h        0.805     0.328     0.641     1.258
   561   1 h        0.804     0.340     0.613     1.230
   562   8 o        1.607    -0.707    27.892     7.128
   563   1 h        0.803     0.356     0.574     1.191
   564   1 h        0.804     0.345     0.601     1.218
   565   8 o        1.608    -0.665    26.786     6.985
   566   1 h        0.803     0.329     0.640     1.256
   567   1 h        0.804     0.350     0.589     1.206
   568   8 o        1.610    -0.663    26.748     6.980
   569   1 h        0.805     0.335     0.624     1.241
   570   1 h        0.804     0.344     0.602     1.219
   571   8 o        1.610    -0.660    26.657     6.968
   572   1 h        0.805     0.351     0.587     1.203
   573   1 h        0.805     0.315     0.676     1.292
   574   8 o        1.607    -0.680    27.173     7.035
   575   1 h        0.805     0.318     0.670     1.286
   576   1 h        0.802     0.362     0.562     1.178
   577   8 o        1.608    -0.681    27.199     7.039
   578   1 h        0.805     0.321     0.662     1.278
   579   1 h        0.803     0.351     0.586     1.202
   580   8 o        1.608    -0.673    26.998     7.013
   581   1 h        0.806     0.309     0.696     1.310
   582   1 h        0.802     0.350     0.588     1.205
   583   8 o        1.605    -0.699    27.674     7.100
   584   1 h        0.803     0.334     0.627     1.244
   585   1 h        0.802     0.339     0.615     1.233
   586   8 o        1.603    -0.703    27.794     7.115
   587   1 h        0.802     0.327     0.646     1.262
   588   1 h        0.802     0.358     0.571     1.187
   589   8 o        1.606    -0.687    27.363     7.060
   590   1 h        0.802     0.360     0.565     1.181
   591   1 h        0.804     0.333     0.631     1.248
   592   8 o        1.607    -0.678    27.137     7.031
   593   1 h        0.805     0.315     0.678     1.293
   594   1 h        0.802     0.367     0.551     1.166
   595   8 o        1.608    -0.681    27.218     7.041
   596   1 h        0.803     0.332     0.633     1.250
   597   1 h        0.805     0.331     0.633     1.250
   598   8 o        1.606    -0.684    27.285     7.050
   599   1 h        0.802     0.358     0.570     1.186
   600   1 h        0.805     0.319     0.666     1.282
   601   8 o        1.607    -0.700    27.714     7.105
   602   1 h        0.802     0.346     0.597     1.214
   603   1 h        0.804     0.326     0.647     1.263
   604   8 o        1.609    -0.667    26.851     6.994
   605   1 h        0.804     0.332     0.632     1.249
   606   1 h        0.805     0.322     0.659     1.275
   607   8 o        1.606    -0.649    26.391     6.933
   608   1 h        0.802     0.347     0.597     1.214
   609   1 h        0.806     0.312     0.685     1.300
   610   8 o        1.608    -0.660    26.658     6.968
   611   1 h        0.804     0.341     0.609     1.226
   612   1 h        0.805     0.332     0.633     1.250
   613   8 o        1.608    -0.672    26.982     7.011
   614   1 h        0.805     0.330     0.638     1.255
   615   1 h        0.803     0.334     0.627     1.244
   616   8 o        1.609    -0.691    27.459     7.072
   617   1 h        0.803     0.348     0.593     1.209
   618   1 h        0.804     0.334     0.627     1.244
   619   8 o        1.605    -0.699    27.689     7.102
   620   1 h        0.804     0.326     0.648     1.265
   621   1 h        0.802     0.361     0.563     1.179
   622   8 o        1.610    -0.668    26.879     6.997
   623   1 h        0.804     0.343     0.604     1.220
   624   1 h        0.805     0.328     0.642     1.259
   625   8 o        1.608    -0.640    26.174     6.905
   626   1 h        0.805     0.314     0.679     1.294
   627   1 h        0.803     0.347     0.595     1.212
   628   8 o        1.607    -0.672    26.975     7.010
   629   1 h        0.803     0.348     0.594     1.210
   630   1 h        0.804     0.324     0.653     1.270
   631   8 o        1.603    -0.695    27.571     7.087
   632   1 h        0.802     0.327     0.646     1.263
   633   1 h        0.802     0.358     0.571     1.187
   634   8 o        1.608    -0.682    27.224     7.042
   635   1 h        0.805     0.322     0.659     1.275
   636   1 h        0.804     0.338     0.617     1.234
   637   8 o        1.608    -0.652    26.454     6.942
   638   1 h        0.804     0.328     0.643     1.259
   639   1 h        0.804     0.327     0.646     1.262
   640   8 o        1.606    -0.686    27.331     7.056
   641   1 h        0.803     0.356     0.574     1.190
   642   1 h        0.803     0.325     0.651     1.268
   643   8 o        1.610    -0.673    26.992     7.012
   644   1 h        0.804     0.343     0.605     1.221
   645   1 h        0.803     0.338     0.616     1.233
   646   8 o        1.608    -0.680    27.179     7.036
   647   1 h        0.804     0.340     0.613     1.230
   648   1 h        0.804     0.332     0.631     1.248
   649   8 o        1.609    -0.678    27.137     7.031
   650   1 h        0.805     0.333     0.630     1.247
   651   1 h        0.804     0.340     0.612     1.229
   652   8 o        1.610    -0.628    25.875     6.865
   653   1 h        0.806     0.300     0.722     1.335
   654   1 h        0.804     0.342     0.607     1.224
   655   8 o        1.608    -0.693    27.519     7.080
   656   1 h        0.805     0.347     0.595     1.212
   657   1 h        0.803     0.350     0.588     1.205
   658   8 o        1.608    -0.656    26.565     6.956
   659   1 h        0.804     0.335     0.626     1.242
   660   1 h        0.803     0.337     0.619     1.236
   661   8 o        1.609    -0.687    27.357     7.059
   662   1 h        0.804     0.354     0.580     1.196
   663   1 h        0.805     0.327     0.644     1.261
   664   8 o        1.609    -0.658    26.607     6.962
   665   1 h        0.806     0.306     0.704     1.318
   666   1 h        0.803     0.357     0.572     1.188
   667   8 o        1.608    -0.661    26.688     6.972
   668   1 h        0.803     0.346     0.598     1.215
   669   1 h        0.805     0.324     0.653     1.269
   670   8 o        1.610    -0.665    26.784     6.985
   671   1 h        0.804     0.332     0.632     1.249
   672   1 h        0.804     0.344     0.602     1.219
   673   8 o        1.607    -0.667    26.847     6.993
   674   1 h        0.804     0.327     0.645     1.262
   675   1 h        0.803     0.337     0.620     1.237
   676   8 o        1.609    -0.640    26.175     6.905
   677   1 h        0.804     0.354     0.579     1.195
   678   1 h        0.806     0.314     0.680     1.296
   679   8 o        1.608    -0.688    27.401     7.065
   680   1 h        0.805     0.325     0.651     1.268
   681   1 h        0.804     0.338     0.616     1.233
   682   8 o        1.607    -0.680    27.196     7.038
   683   1 h        0.803     0.347     0.595     1.212
   684   1 h        0.804     0.329     0.641     1.257
   685   8 o        1.608    -0.684    27.281     7.049
   686   1 h        0.805     0.317     0.671     1.287
   687   1 h        0.803     0.367     0.550     1.165
   688   8 o        1.608    -0.681    27.209     7.040
   689   1 h        0.805     0.312     0.686     1.301
   690   1 h        0.803     0.359     0.567     1.183
   691   8 o        1.609    -0.675    27.050     7.020
   692   1 h        0.804     0.333     0.629     1.246
   693   1 h        0.804     0.348     0.593     1.210
   694   8 o        1.604    -0.685    27.315     7.054
   695   1 h        0.806     0.314     0.681     1.296
   696   1 h        0.802     0.361     0.564     1.180
   697   8 o        1.606    -0.707    27.905     7.130
   698   1 h        0.803     0.330     0.638     1.255
   699   1 h        0.803     0.352     0.583     1.199
   700   8 o        1.605    -0.687    27.382     7.062
   701   1 h        0.804     0.357     0.572     1.188
   702   1 h        0.802     0.332     0.633     1.250
   703   8 o        1.608    -0.679    27.153     7.033
   704   1 h        0.804     0.363     0.560     1.175
   705   1 h        0.804     0.341     0.609     1.226
   706   8 o        1.608    -0.679    27.166     7.035
   707   1 h        0.803     0.356     0.575     1.191
   708   1 h        0.804     0.330     0.638     1.255
   709   8 o        1.609    -0.681    27.199     7.039
   710   1 h        0.805     0.341     0.609     1.226
   711   1 h        0.804     0.344     0.603     1.220
   712   8 o        1.609    -0.663    26.746     6.980
   713   1 h        0.804     0.345     0.600     1.217
   714   1 h        0.805     0.326     0.647     1.264
   715   8 o        1.607    -0.699    27.678     7.100
   716   1 h        0.803     0.346     0.598     1.215
   717   1 h        0.804     0.333     0.629     1.246
   718   8 o        1.608    -0.674    27.028     7.017
   719   1 h        0.805     0.325     0.651     1.267
   720   1 h        0.803     0.346     0.599     1.216
   721   8 o        1.606    -0.680    27.175     7.036
   722   1 h        0.804     0.328     0.643     1.260
   723   1 h        0.803     0.344     0.602     1.219
   724   8 o        1.606    -0.657    26.603     6.961
   725   1 h        0.801     0.352     0.584     1.201
   726   1 h        0.806     0.313     0.684     1.299
   727   8 o        1.607    -0.701    27.750     7.110
   728   1 h        0.804     0.323     0.655     1.271
   729   1 h        0.803     0.341     0.609     1.226
   730   8 o        1.606    -0.707    27.896     7.128
   731   1 h        0.803     0.350     0.589     1.206
   732   1 h        0.804     0.340     0.613     1.230
   733   8 o        1.608    -0.687    27.361     7.060
   734   1 h        0.805     0.327     0.644     1.260
   735   1 h        0.803     0.356     0.575     1.191
   736   8 o        1.607    -0.682    27.225     7.042
   737   1 h        0.803     0.328     0.642     1.258
   738   1 h        0.804     0.330     0.637     1.254
   739   8 o        1.606    -0.687    27.373     7.061
   740   1 h        0.803     0.339     0.614     1.231
   741   1 h        0.804     0.340     0.613     1.230
   742   8 o        1.608    -0.680    27.172     7.035
   743   1 h        0.804     0.337     0.620     1.237
   744   1 h        0.803     0.330     0.637     1.254
   745   8 o        1.608    -0.673    26.992     7.012
   746   1 h        0.803     0.359     0.568     1.183
   747   1 h        0.804     0.334     0.628     1.245
   748   8 o        1.607    -0.669    26.909     7.001
   749   1 h        0.804     0.337     0.620     1.236
   750   1 h        0.804     0.345     0.600     1.217
   751   8 o        1.609    -0.640    26.158     6.903
   752   1 h        0.805     0.326     0.647     1.264
   753   1 h        0.803     0.353     0.582     1.198
   754   8 o        1.611    -0.659    26.633     6.965
   755   1 h        0.805     0.331     0.636     1.252
   756   1 h        0.805     0.325     0.650     1.267

 Mol. C6AA /au·bohr⁶  :    2898979.093717
 Mol. C8AA /au·bohr⁸  :   52595985.270095
 Mol. α(0) /au        :       2392.970403


Wiberg/Mayer (AO) data.
largest (>0.10) Wiberg bond orders for each atom

 ---------------------------------------------------------------------------
     #   Z sym  total        # sym  WBO       # sym  WBO       # sym  WBO
 ---------------------------------------------------------------------------
     1   8 o    1.831 --     2 h    0.830     3 h    0.824
     2   1 h    0.890 --     1 o    0.830
     3   1 h    0.887 --     1 o    0.824
     4   8 o    1.855 --     5 h    0.845     6 h    0.826
     5   1 h    0.895 --     4 o    0.845
     6   1 h    0.878 --     4 o    0.826
     7   8 o    1.866 --     8 h    0.840     9 h    0.837
     8   1 h    0.887 --     7 o    0.840
     9   1 h    0.879 --     7 o    0.837
    10   8 o    1.872 --    12 h    0.825    11 h    0.809
    11   1 h    0.879 --    10 o    0.809
    12   1 h    0.877 --    10 o    0.825
    13   8 o    1.794 --    15 h    0.837    14 h    0.810
    14   1 h    0.884 --    13 o    0.810
    15   1 h    0.892 --    13 o    0.837
    16   8 o    1.852 --    17 h    0.828    18 h    0.827
    17   1 h    0.880 --    16 o    0.828
    18   1 h    0.881 --    16 o    0.827
    19   8 o    1.823 --    20 h    0.831    21 h    0.823
    20   1 h    0.888 --    19 o    0.831
    21   1 h    0.884 --    19 o    0.823
    22   8 o    1.902 --    24 h    0.822    23 h    0.799
    23   1 h    0.871 --    22 o    0.799
    24   1 h    0.871 --    22 o    0.822
    25   8 o    1.830 --    27 h    0.843    26 h    0.821
    26   1 h    0.884 --    25 o    0.821
    27   1 h    0.891 --    25 o    0.843
    28   8 o    1.851 --    29 h    0.854    30 h    0.806
    29   1 h    0.900 --    28 o    0.854
    30   1 h    0.879 --    28 o    0.806
    31   8 o    1.873 --    32 h    0.800    33 h    0.799
    32   1 h    0.879 --    31 o    0.800
    33   1 h    0.877 --    31 o    0.799
    34   8 o    1.790 --    35 h    0.852    36 h    0.819
    35   1 h    0.892 --    34 o    0.852
    36   1 h    0.887 --    34 o    0.819
    37   8 o    1.864 --    39 h    0.840    38 h    0.798
    38   1 h    0.873 --    37 o    0.798
    39   1 h    0.888 --    37 o    0.840
    40   8 o    1.841 --    42 h    0.818    41 h    0.815
    41   1 h    0.883 --    40 o    0.815
    42   1 h    0.878 --    40 o    0.818
    43   8 o    1.848 --    45 h    0.797    44 h    0.796
    44   1 h    0.882 --    43 o    0.796
    45   1 h    0.871 --    43 o    0.797
    46   8 o    1.867 --    48 h    0.815    47 h    0.806
    47   1 h    0.867 --    46 o    0.806
    48   1 h    0.877 --    46 o    0.815
    49   8 o    1.770 --    51 h    0.856    50 h    0.839
    50   1 h    0.897 --    49 o    0.839
    51   1 h    0.899 --    49 o    0.856
    52   8 o    1.828 --    54 h    0.821    53 h    0.804
    53   1 h    0.870 --    52 o    0.804
    54   1 h    0.894 --    52 o    0.821
    55   8 o    1.869 --    56 h    0.839    57 h    0.789
    56   1 h    0.891 --    55 o    0.839
    57   1 h    0.878 --    55 o    0.789
    58   8 o    1.875 --    60 h    0.830    59 h    0.826
    59   1 h    0.878 --    58 o    0.826
    60   1 h    0.889 --    58 o    0.830
    61   8 o    1.847 --    63 h    0.813    62 h    0.805
    62   1 h    0.885 --    61 o    0.805
    63   1 h    0.877 --    61 o    0.813
    64   8 o    1.813 --    65 h    0.818    66 h    0.814
    65   1 h    0.884 --    64 o    0.818
    66   1 h    0.881 --    64 o    0.814
    67   8 o    1.844 --    68 h    0.810    69 h    0.782
    68   1 h    0.886 --    67 o    0.810
    69   1 h    0.879 --    67 o    0.782
    70   8 o    1.898 --    72 h    0.796    71 h    0.779
    71   1 h    0.870 --    70 o    0.779
    72   1 h    0.870 --    70 o    0.796
    73   8 o    1.841 --    75 h    0.869    74 h    0.788
    74   1 h    0.866 --    73 o    0.788
    75   1 h    0.898 --    73 o    0.869
    76   8 o    1.854 --    77 h    0.834    78 h    0.783
    77   1 h    0.889 --    76 o    0.834
    78   1 h    0.878 --    76 o    0.783
    79   8 o    1.881 --    81 h    0.794    80 h    0.787
    80   1 h    0.872 --    79 o    0.787
    81   1 h    0.879 --    79 o    0.794
    82   8 o    1.846 --    83 h    0.823    84 h    0.821
    83   1 h    0.879 --    82 o    0.823
    84   1 h    0.882 --    82 o    0.821
    85   8 o    1.863 --    86 h    0.854    87 h    0.800
    86   1 h    0.885 --    85 o    0.854
    87   1 h    0.873 --    85 o    0.800
    88   8 o    1.886 --    90 h    0.813    89 h    0.811
    89   1 h    0.873 --    88 o    0.811
    90   1 h    0.880 --    88 o    0.813
    91   8 o    1.863 --    93 h    0.845    92 h    0.805
    92   1 h    0.868 --    91 o    0.805
    93   1 h    0.888 --    91 o    0.845
    94   8 o    1.832 --    96 h    0.816    95 h    0.777
    95   1 h    0.871 --    94 o    0.777
    96   1 h    0.884 --    94 o    0.816
    97   8 o    1.860 --    99 h    0.824    98 h    0.789
    98   1 h    0.866 --    97 o    0.789
    99   1 h    0.881 --    97 o    0.824
   100   8 o    1.830 --   101 h    0.836   102 h    0.820
   101   1 h    0.892 --   100 o    0.836
   102   1 h    0.880 --   100 o    0.820
   103   8 o    1.864 --   105 h    0.828   104 h    0.804
   104   1 h    0.876 --   103 o    0.804
   105   1 h    0.886 --   103 o    0.828
   106   8 o    1.842 --   107 h    0.842   108 h    0.800
   107   1 h    0.891 --   106 o    0.842
   108   1 h    0.871 --   106 o    0.800
   109   8 o    1.860 --   111 h    0.856   110 h    0.812
   110   1 h    0.872 --   109 o    0.812
   111   1 h    0.891 --   109 o    0.856
   112   8 o    1.868 --   114 h    0.831   113 h    0.811
   113   1 h    0.883 --   112 o    0.811
   114   1 h    0.883 --   112 o    0.831
   115   8 o    1.851 --   117 h    0.843   116 h    0.819
   116   1 h    0.885 --   115 o    0.819
   117   1 h    0.890 --   115 o    0.843
   118   8 o    1.868 --   119 h    0.825   120 h    0.816
   119   1 h    0.890 --   118 o    0.825
   120   1 h    0.877 --   118 o    0.816
   121   8 o    1.857 --   123 h    0.842   122 h    0.817
   122   1 h    0.883 --   121 o    0.817
   123   1 h    0.887 --   121 o    0.842
   124   8 o    1.861 --   125 h    0.805   126 h    0.802
   125   1 h    0.884 --   124 o    0.805
   126   1 h    0.874 --   124 o    0.802
   127   8 o    1.838 --   129 h    0.870   128 h    0.829
   128   1 h    0.886 --   127 o    0.829
   129   1 h    0.881 --   127 o    0.870
   130   8 o    1.852 --   131 h    0.823   132 h    0.814
   131   1 h    0.875 --   130 o    0.823
   132   1 h    0.880 --   130 o    0.814
   133   8 o    1.900 --   134 h    0.830   135 h    0.807
   134   1 h    0.890 --   133 o    0.830
   135   1 h    0.874 --   133 o    0.807
   136   8 o    1.878 --   137 h    0.818   138 h    0.812
   137   1 h    0.881 --   136 o    0.818
   138   1 h    0.878 --   136 o    0.812
   139   8 o    1.885 --   140 h    0.819   141 h    0.801
   140   1 h    0.885 --   139 o    0.819
   141   1 h    0.869 --   139 o    0.801
   142   8 o    1.825 --   143 h    0.858   144 h    0.845
   143   1 h    0.892 --   142 o    0.858
   144   1 h    0.884 --   142 o    0.845
   145   8 o    1.828 --   146 h    0.845   147 h    0.819
   146   1 h    0.887 --   145 o    0.845
   147   1 h    0.884 --   145 o    0.819
   148   8 o    1.816 --   149 h    0.874   150 h    0.824
   149   1 h    0.894 --   148 o    0.874
   150   1 h    0.881 --   148 o    0.824
   151   8 o    1.878 --   152 h    0.835   153 h    0.806
   152   1 h    0.885 --   151 o    0.835
   153   1 h    0.876 --   151 o    0.806
   154   8 o    1.844 --   156 h    0.837   155 h    0.831
   155   1 h    0.890 --   154 o    0.831
   156   1 h    0.892 --   154 o    0.837
   157   8 o    1.861 --   159 h    0.818   158 h    0.802
   158   1 h    0.875 --   157 o    0.802
   159   1 h    0.887 --   157 o    0.818
   160   8 o    1.815 --   162 h    0.823   161 h    0.797
   161   1 h    0.881 --   160 o    0.797
   162   1 h    0.886 --   160 o    0.823
   163   8 o    1.843 --   164 h    0.834   165 h    0.819
   164   1 h    0.889 --   163 o    0.834
   165   1 h    0.878 --   163 o    0.819
   166   8 o    1.837 --   168 h    0.830   167 h    0.790
   167   1 h    0.880 --   166 o    0.790
   168   1 h    0.885 --   166 o    0.830
   169   8 o    1.877 --   170 h    0.845   171 h    0.797
   170   1 h    0.882 --   169 o    0.845
   171   1 h    0.874 --   169 o    0.797
   172   8 o    1.820 --   173 h    0.872   174 h    0.821
   173   1 h    0.893 --   172 o    0.872
   174   1 h    0.880 --   172 o    0.821
   175   8 o    1.863 --   176 h    0.809   177 h    0.787
   176   1 h    0.877 --   175 o    0.809
   177   1 h    0.876 --   175 o    0.787
   178   8 o    1.823 --   180 h    0.858   179 h    0.818
   179   1 h    0.871 --   178 o    0.818
   180   1 h    0.899 --   178 o    0.858
   181   8 o    1.851 --   183 h    0.815   182 h    0.802
   182   1 h    0.882 --   181 o    0.802
   183   1 h    0.892 --   181 o    0.815
   184   8 o    1.849 --   186 h    0.850   185 h    0.810
   185   1 h    0.885 --   184 o    0.810
   186   1 h    0.888 --   184 o    0.850
   187   8 o    1.794 --   189 h    0.857   188 h    0.845
   188   1 h    0.892 --   187 o    0.845
   189   1 h    0.890 --   187 o    0.857
   190   8 o    1.869 --   191 h    0.867   192 h    0.811
   191   1 h    0.895 --   190 o    0.867
   192   1 h    0.878 --   190 o    0.811
   193   8 o    1.852 --   195 h    0.824   194 h    0.821
   194   1 h    0.882 --   193 o    0.821
   195   1 h    0.892 --   193 o    0.824
   196   8 o    1.848 --   198 h    0.869   197 h    0.822
   197   1 h    0.878 --   196 o    0.822
   198   1 h    0.896 --   196 o    0.869
   199   8 o    1.880 --   200 h    0.854   201 h    0.804
   200   1 h    0.884 --   199 o    0.854
   201   1 h    0.888 --   199 o    0.804
   202   8 o    1.895 --   204 h    0.825   203 h    0.812
   203   1 h    0.880 --   202 o    0.812
   204   1 h    0.876 --   202 o    0.825
   205   8 o    1.842 --   207 h    0.875   206 h    0.835
   206   1 h    0.880 --   205 o    0.835
   207   1 h    0.893 --   205 o    0.875
   208   8 o    1.826 --   210 h    0.859   209 h    0.855
   209   1 h    0.888 --   208 o    0.855
   210   1 h    0.895 --   208 o    0.859
   211   8 o    1.868 --   213 h    0.824   212 h    0.795
   212   1 h    0.876 --   211 o    0.795
   213   1 h    0.883 --   211 o    0.824
   214   8 o    1.881 --   216 h    0.816   215 h    0.806
   215   1 h    0.871 --   214 o    0.806
   216   1 h    0.874 --   214 o    0.816
   217   8 o    1.868 --   219 h    0.823   218 h    0.821
   218   1 h    0.879 --   217 o    0.821
   219   1 h    0.878 --   217 o    0.823
   220   8 o    1.851 --   221 h    0.845   222 h    0.839
   221   1 h    0.896 --   220 o    0.845
   222   1 h    0.890 --   220 o    0.839
   223   8 o    1.821 --   224 h    0.857   225 h    0.846
   224   1 h    0.887 --   223 o    0.857
   225   1 h    0.891 --   223 o    0.846
   226   8 o    1.805 --   227 h    0.864   228 h    0.820
   227   1 h    0.899 --   226 o    0.864
   228   1 h    0.884 --   226 o    0.820
   229   8 o    1.884 --   230 h    0.807   231 h    0.801
   230   1 h    0.872 --   229 o    0.807
   231   1 h    0.878 --   229 o    0.801
   232   8 o    1.883 --   233 h    0.868   234 h    0.789
   233   1 h    0.895 --   232 o    0.868
   234   1 h    0.879 --   232 o    0.789
   235   8 o    1.857 --   236 h    0.848   237 h    0.764
   236   1 h    0.890 --   235 o    0.848
   237   1 h    0.869 --   235 o    0.764
   238   8 o    1.842 --   240 h    0.825   239 h    0.816
   239   1 h    0.882 --   238 o    0.816
   240   1 h    0.877 --   238 o    0.825
   241   8 o    1.842 --   243 h    0.843   242 h    0.832
   242   1 h    0.881 --   241 o    0.832
   243   1 h    0.882 --   241 o    0.843
   244   8 o    1.842 --   245 h    0.847   246 h    0.837
   245   1 h    0.887 --   244 o    0.847
   246   1 h    0.889 --   244 o    0.837
   247   8 o    1.869 --   249 h    0.833   248 h    0.823
   248   1 h    0.869 --   247 o    0.823
   249   1 h    0.879 --   247 o    0.833
   250   8 o    1.847 --   251 h    0.857   252 h    0.780
   251   1 h    0.895 --   250 o    0.857
   252   1 h    0.868 --   250 o    0.780
   253   8 o    1.874 --   254 h    0.834   255 h    0.805
   254   1 h    0.882 --   253 o    0.834
   255   1 h    0.874 --   253 o    0.805
   256   8 o    1.810 --   257 h    0.878   258 h    0.825
   257   1 h    0.897 --   256 o    0.878
   258   1 h    0.874 --   256 o    0.825
   259   8 o    1.839 --   261 h    0.841   260 h    0.795
   260   1 h    0.868 --   259 o    0.795
   261   1 h    0.893 --   259 o    0.841
   262   8 o    1.862 --   264 h    0.818   263 h    0.786
   263   1 h    0.874 --   262 o    0.786
   264   1 h    0.878 --   262 o    0.818
   265   8 o    1.816 --   267 h    0.900   266 h    0.813
   266   1 h    0.881 --   265 o    0.813
   267   1 h    0.903 --   265 o    0.900
   268   8 o    1.840 --   270 h    0.851   269 h    0.838
   269   1 h    0.890 --   268 o    0.838
   270   1 h    0.895 --   268 o    0.851
   271   8 o    1.862 --   273 h    0.808   272 h    0.803
   272   1 h    0.881 --   271 o    0.803
   273   1 h    0.874 --   271 o    0.808
   274   8 o    1.804 --   275 h    0.860   276 h    0.833
   275   1 h    0.895 --   274 o    0.860
   276   1 h    0.885 --   274 o    0.833
   277   8 o    1.862 --   278 h    0.857   279 h    0.801
   278   1 h    0.891 --   277 o    0.857
   279   1 h    0.870 --   277 o    0.801
   280   8 o    1.889 --   282 h    0.863   281 h    0.781
   281   1 h    0.870 --   280 o    0.781
   282   1 h    0.892 --   280 o    0.863
   283   8 o    1.806 --   284 h    0.891   285 h    0.783
   284   1 h    0.904 --   283 o    0.891
   285   1 h    0.873 --   283 o    0.783
   286   8 o    1.860 --   288 h    0.832   287 h    0.826
   287   1 h    0.882 --   286 o    0.826
   288   1 h    0.891 --   286 o    0.832
   289   8 o    1.855 --   291 h    0.843   290 h    0.786
   290   1 h    0.869 --   289 o    0.786
   291   1 h    0.889 --   289 o    0.843
   292   8 o    1.823 --   293 h    0.868   294 h    0.827
   293   1 h    0.894 --   292 o    0.868
   294   1 h    0.881 --   292 o    0.827
   295   8 o    1.829 --   297 h    0.866   296 h    0.806
   296   1 h    0.873 --   295 o    0.806
   297   1 h    0.894 --   295 o    0.866
   298   8 o    1.881 --   300 h    0.860   299 h    0.791
   299   1 h    0.870 --   298 o    0.791
   300   1 h    0.887 --   298 o    0.860
   301   8 o    1.840 --   302 h    0.842   303 h    0.811
   302   1 h    0.880 --   301 o    0.842
   303   1 h    0.872 --   301 o    0.811
   304   8 o    1.851 --   305 h    0.870   306 h    0.813
   305   1 h    0.891 --   304 o    0.870
   306   1 h    0.874 --   304 o    0.813
   307   8 o    1.852 --   308 h    0.832   309 h    0.808
   308   1 h    0.895 --   307 o    0.832
   309   1 h    0.880 --   307 o    0.808
   310   8 o    1.865 --   311 h    0.833   312 h    0.804
   311   1 h    0.890 --   310 o    0.833
   312   1 h    0.874 --   310 o    0.804
   313   8 o    1.856 --   314 h    0.839   315 h    0.818
   314   1 h    0.897 --   313 o    0.839
   315   1 h    0.888 --   313 o    0.818
   316   8 o    1.837 --   318 h    0.883   317 h    0.823
   317   1 h    0.872 --   316 o    0.823
   318   1 h    0.897 --   316 o    0.883
   319   8 o    1.852 --   320 h    0.873   321 h    0.827
   320   1 h    0.896 --   319 o    0.873
   321   1 h    0.885 --   319 o    0.827
   322   8 o    1.882 --   324 h    0.838   323 h    0.789
   323   1 h    0.874 --   322 o    0.789
   324   1 h    0.888 --   322 o    0.838
   325   8 o    1.828 --   326 h    0.894   327 h    0.795
   326   1 h    0.905 --   325 o    0.894
   327   1 h    0.870 --   325 o    0.795
   328   8 o    1.854 --   329 h    0.813   330 h    0.798
   329   1 h    0.881 --   328 o    0.813
   330   1 h    0.876 --   328 o    0.798
   331   8 o    1.896 --   332 h    0.840   333 h    0.821
   332   1 h    0.885 --   331 o    0.840
   333   1 h    0.876 --   331 o    0.821
   334   8 o    1.855 --   335 h    0.842   336 h    0.797
   335   1 h    0.888 --   334 o    0.842
   336   1 h    0.874 --   334 o    0.797
   337   8 o    1.844 --   339 h    0.836   338 h    0.790
   338   1 h    0.876 --   337 o    0.790
   339   1 h    0.882 --   337 o    0.836
   340   8 o    1.842 --   341 h    0.834   342 h    0.827
   341   1 h    0.885 --   340 o    0.834
   342   1 h    0.885 --   340 o    0.827
   343   8 o    1.886 --   344 h    0.825   345 h    0.818   696 h    0.105
   344   1 h    0.886 --   343 o    0.825
   345   1 h    0.881 --   343 o    0.818
   346   8 o    1.835 --   347 h    0.863   348 h    0.856
   347   1 h    0.894 --   346 o    0.863
   348   1 h    0.890 --   346 o    0.856
   349   8 o    1.832 --   350 h    0.808   351 h    0.804
   350   1 h    0.876 --   349 o    0.808
   351   1 h    0.885 --   349 o    0.804
   352   8 o    1.835 --   354 h    0.889   353 h    0.852
   353   1 h    0.888 --   352 o    0.852
   354   1 h    0.896 --   352 o    0.889
   355   8 o    1.844 --   357 h    0.843   356 h    0.833
   356   1 h    0.887 --   355 o    0.833
   357   1 h    0.894 --   355 o    0.843
   358   8 o    1.810 --   360 h    0.894   359 h    0.782
   359   1 h    0.874 --   358 o    0.782
   360   1 h    0.901 --   358 o    0.894
   361   8 o    1.846 --   362 h    0.890   363 h    0.825
   362   1 h    0.895 --   361 o    0.890
   363   1 h    0.880 --   361 o    0.825
   364   8 o    1.869 --   365 h    0.806   366 h    0.802
[...]
   369   1 h    0.872 --   367 o    0.788
   370   8 o    1.818 --   371 h    0.858   372 h    0.830
   371   1 h    0.890 --   370 o    0.858
   372   1 h    0.886 --   370 o    0.830
   373   8 o    1.824 --   375 h    0.849   374 h    0.811
   374   1 h    0.879 --   373 o    0.811
   375   1 h    0.886 --   373 o    0.849
   376   8 o    1.861 --   378 h    0.829   377 h    0.802
   377   1 h    0.877 --   376 o    0.802
   378   1 h    0.896 --   376 o    0.829
   379   8 o    1.870 --   381 h    0.828   380 h    0.822
   380   1 h    0.880 --   379 o    0.822
   381   1 h    0.895 --   379 o    0.828
   382   8 o    1.873 --   383 h    0.845   384 h    0.818
   383   1 h    0.891 --   382 o    0.845
   384   1 h    0.888 --   382 o    0.818
   385   8 o    1.889 --   386 h    0.884   387 h    0.795
   386   1 h    0.902 --   385 o    0.884
   387   1 h    0.865 --   385 o    0.795
   388   8 o    1.865 --   390 h    0.834   389 h    0.832
   389   1 h    0.876 --   388 o    0.832
   390   1 h    0.889 --   388 o    0.834
   391   8 o    1.822 --   392 h    0.871   393 h    0.809
   392   1 h    0.896 --   391 o    0.871
   393   1 h    0.885 --   391 o    0.809
   394   8 o    1.825 --   396 h    0.896   395 h    0.808
   395   1 h    0.883 --   394 o    0.808
   396   1 h    0.901 --   394 o    0.896
   397   8 o    1.819 --   398 h    0.862   399 h    0.830
   398   1 h    0.894 --   397 o    0.862
   399   1 h    0.882 --   397 o    0.830
   400   8 o    1.837 --   401 h    0.894   402 h    0.817
   401   1 h    0.899 --   400 o    0.894
   402   1 h    0.882 --   400 o    0.817
   403   8 o    1.880 --   404 h    0.816   405 h    0.811
   404   1 h    0.876 --   403 o    0.816
   405   1 h    0.884 --   403 o    0.811
   406   8 o    1.854 --   407 h    0.900   408 h    0.811
   407   1 h    0.903 --   406 o    0.900
   408   1 h    0.879 --   406 o    0.811
   409   8 o    1.841 --   410 h    0.819   411 h    0.803
   410   1 h    0.885 --   409 o    0.819
   411   1 h    0.874 --   409 o    0.803
   412   8 o    1.864 --   413 h    0.808   414 h    0.781
   413   1 h    0.878 --   412 o    0.808
   414   1 h    0.873 --   412 o    0.781
   415   8 o    1.798 --   416 h    0.857   417 h    0.811
   416   1 h    0.896 --   415 o    0.857
   417   1 h    0.881 --   415 o    0.811
   418   8 o    1.837 --   420 h    0.908   419 h    0.811
   419   1 h    0.880 --   418 o    0.811
   420   1 h    0.912 --   418 o    0.908
   421   8 o    1.843 --   423 h    0.809   422 h    0.808
   422   1 h    0.881 --   421 o    0.808
   423   1 h    0.881 --   421 o    0.809
   424   8 o    1.824 --   426 h    0.853   425 h    0.851
   425   1 h    0.888 --   424 o    0.851
   426   1 h    0.888 --   424 o    0.853
   427   8 o    1.824 --   429 h    0.873   428 h    0.835
   428   1 h    0.886 --   427 o    0.835
   429   1 h    0.893 --   427 o    0.873
   430   8 o    1.845 --   432 h    0.825   431 h    0.781
   431   1 h    0.875 --   430 o    0.781
   432   1 h    0.890 --   430 o    0.825
   433   8 o    1.874 --   435 h    0.842   434 h    0.780
   434   1 h    0.864 --   433 o    0.780
   435   1 h    0.889 --   433 o    0.842
   436   8 o    1.821 --   438 h    0.847   437 h    0.837
   437   1 h    0.889 --   436 o    0.837
   438   1 h    0.890 --   436 o    0.847
   439   8 o    1.864 --   441 h    0.893   440 h    0.823
   440   1 h    0.880 --   439 o    0.823
   441   1 h    0.899 --   439 o    0.893
   442   8 o    1.846 --   443 h    0.810   444 h    0.798
   443   1 h    0.886 --   442 o    0.810
   444   1 h    0.873 --   442 o    0.798
   445   8 o    1.845 --   447 h    0.834   446 h    0.809
   446   1 h    0.871 --   445 o    0.809
   447   1 h    0.891 --   445 o    0.834
   448   8 o    1.863 --   449 h    0.839   450 h    0.818
   449   1 h    0.889 --   448 o    0.839
   450   1 h    0.886 --   448 o    0.818
   451   8 o    1.852 --   452 h    0.847   453 h    0.800
   452   1 h    0.887 --   451 o    0.847
   453   1 h    0.879 --   451 o    0.800
   454   8 o    1.860 --   455 h    0.825   456 h    0.812
   455   1 h    0.882 --   454 o    0.825
   456   1 h    0.874 --   454 o    0.812
   457   8 o    1.860 --   459 h    0.825   458 h    0.798
   458   1 h    0.874 --   457 o    0.798
   459   1 h    0.886 --   457 o    0.825
   460   8 o    1.819 --   461 h    0.856   462 h    0.833
   461   1 h    0.892 --   460 o    0.856
   462   1 h    0.891 --   460 o    0.833
   463   8 o    1.826 --   465 h    0.858   464 h    0.835
   464   1 h    0.884 --   463 o    0.835
   465   1 h    0.889 --   463 o    0.858
   466   8 o    1.838 --   467 h    0.847   468 h    0.815
   467   1 h    0.886 --   466 o    0.847
   468   1 h    0.886 --   466 o    0.815
   469   8 o    1.831 --   470 h    0.892   471 h    0.793
   470   1 h    0.900 --   469 o    0.892
   471   1 h    0.878 --   469 o    0.793
   472   8 o    1.853 --   474 h    0.897   473 h    0.827
   473   1 h    0.887 --   472 o    0.827
   474   1 h    0.905 --   472 o    0.897
   475   8 o    1.846 --   476 h    0.821   477 h    0.810
   476   1 h    0.884 --   475 o    0.821
   477   1 h    0.891 --   475 o    0.810
   478   8 o    1.866 --   480 h    0.834   479 h    0.828
   479   1 h    0.873 --   478 o    0.828
   480   1 h    0.884 --   478 o    0.834
   481   8 o    1.862 --   482 h    0.831   483 h    0.782
   482   1 h    0.895 --   481 o    0.831
   483   1 h    0.868 --   481 o    0.782
   484   8 o    1.868 --   485 h    0.867   486 h    0.771
   485   1 h    0.898 --   484 o    0.867
   486   1 h    0.864 --   484 o    0.771
   487   8 o    1.805 --   488 h    0.885   489 h    0.833
   488   1 h    0.894 --   487 o    0.885
   489   1 h    0.885 --   487 o    0.833
   490   8 o    1.839 --   492 h    0.864   491 h    0.820
   491   1 h    0.872 --   490 o    0.820
   492   1 h    0.891 --   490 o    0.864
   493   8 o    1.846 --   494 h    0.838   495 h    0.825
   494   1 h    0.888 --   493 o    0.838
   495   1 h    0.883 --   493 o    0.825
   496   8 o    1.847 --   498 h    0.902   497 h    0.787
   497   1 h    0.885 --   496 o    0.787
   498   1 h    0.906 --   496 o    0.902
   499   8 o    1.838 --   501 h    0.833   500 h    0.830
   500   1 h    0.886 --   499 o    0.830
   501   1 h    0.882 --   499 o    0.833
   502   8 o    1.834 --   503 h    0.900   504 h    0.791
   503   1 h    0.904 --   502 o    0.900
   504   1 h    0.868 --   502 o    0.791
   505   8 o    1.826 --   507 h    0.857   506 h    0.835
   506   1 h    0.878 --   505 o    0.835
   507   1 h    0.890 --   505 o    0.857
   508   8 o    1.839 --   509 h    0.819   510 h    0.784
   509   1 h    0.882 --   508 o    0.819
   510   1 h    0.879 --   508 o    0.784
   511   8 o    1.844 --   513 h    0.860   512 h    0.824
   512   1 h    0.881 --   511 o    0.824
   513   1 h    0.892 --   511 o    0.860
   514   8 o    1.843 --   516 h    0.870   515 h    0.835
   515   1 h    0.884 --   514 o    0.835
   516   1 h    0.895 --   514 o    0.870
   517   8 o    1.847 --   519 h    0.832   518 h    0.812
   518   1 h    0.876 --   517 o    0.812
   519   1 h    0.895 --   517 o    0.832
   520   8 o    1.819 --   522 h    0.864   521 h    0.820
   521   1 h    0.895 --   520 o    0.820
   522   1 h    0.898 --   520 o    0.864
   523   8 o    1.835 --   524 h    0.866   525 h    0.821
   524   1 h    0.891 --   523 o    0.866
   525   1 h    0.877 --   523 o    0.821
   526   8 o    1.796 --   527 h    0.860   528 h    0.825
   527   1 h    0.898 --   526 o    0.860
   528   1 h    0.880 --   526 o    0.825
   529   8 o    1.837 --   531 h    0.896   530 h    0.797
   530   1 h    0.865 --   529 o    0.797
   531   1 h    0.906 --   529 o    0.896
   532   8 o    1.850 --   533 h    0.858   534 h    0.803
   533   1 h    0.894 --   532 o    0.858
   534   1 h    0.867 --   532 o    0.803
   535   8 o    1.845 --   537 h    0.845   536 h    0.817
   536   1 h    0.876 --   535 o    0.817
   537   1 h    0.893 --   535 o    0.845
   538   8 o    1.823 --   540 h    0.853   539 h    0.827
   539   1 h    0.875 --   538 o    0.827
   540   1 h    0.884 --   538 o    0.853
   541   8 o    1.832 --   542 h    0.869   543 h    0.802
   542   1 h    0.895 --   541 o    0.869
   543   1 h    0.880 --   541 o    0.802
   544   8 o    1.858 --   545 h    0.843   546 h    0.816
   545   1 h    0.887 --   544 o    0.843
   546   1 h    0.884 --   544 o    0.816
   547   8 o    1.844 --   548 h    0.881   549 h    0.823
   548   1 h    0.902 --   547 o    0.881
   549   1 h    0.869 --   547 o    0.823
   550   8 o    1.855 --   552 h    0.884   551 h    0.804
   551   1 h    0.882 --   550 o    0.804
   552   1 h    0.901 --   550 o    0.884
   553   8 o    1.856 --   555 h    0.898   554 h    0.813
   554   1 h    0.875 --   553 o    0.813
   555   1 h    0.902 --   553 o    0.898
   556   8 o    1.869 --   557 h    0.828   558 h    0.815
   557   1 h    0.882 --   556 o    0.828
   558   1 h    0.875 --   556 o    0.815
   559   8 o    1.833 --   560 h    0.869   561 h    0.845
   560   1 h    0.892 --   559 o    0.869
   561   1 h    0.885 --   559 o    0.845
   562   8 o    1.827 --   564 h    0.825   563 h    0.788
   563   1 h    0.873 --   562 o    0.788
   564   1 h    0.881 --   562 o    0.825
   565   8 o    1.888 --   567 h    0.827   566 h    0.826
   566   1 h    0.892 --   565 o    0.826
   567   1 h    0.878 --   565 o    0.827
   568   8 o    1.855 --   569 h    0.859   570 h    0.838
   569   1 h    0.888 --   568 o    0.859
   570   1 h    0.882 --   568 o    0.838
   571   8 o    1.840 --   573 h    0.863   572 h    0.840
   572   1 h    0.877 --   571 o    0.840
   573   1 h    0.900 --   571 o    0.863
   574   8 o    1.846 --   575 h    0.870   576 h    0.791
   575   1 h    0.899 --   574 o    0.870
   576   1 h    0.869 --   574 o    0.791
   577   8 o    1.822 --   578 h    0.870   579 h    0.802
   578   1 h    0.897 --   577 o    0.870
   579   1 h    0.877 --   577 o    0.802
   580   8 o    1.810 --   581 h    0.900   582 h    0.808
   581   1 h    0.905 --   580 o    0.900
   582   1 h    0.877 --   580 o    0.808
   583   8 o    1.823 --   584 h    0.821   585 h    0.812
   584   1 h    0.888 --   583 o    0.821
   585   1 h    0.885 --   583 o    0.812
   586   8 o    1.852 --   587 h    0.825   588 h    0.776
   587   1 h    0.893 --   586 o    0.825
   588   1 h    0.872 --   586 o    0.776
   589   8 o    1.875 --   591 h    0.842   590 h    0.779
   590   1 h    0.870 --   589 o    0.779
   591   1 h    0.889 --   589 o    0.842
   592   8 o    1.833 --   593 h    0.885   594 h    0.786
   593   1 h    0.901 --   592 o    0.885
   594   1 h    0.865 --   592 o    0.786
   595   8 o    1.800 --   597 h    0.871   596 h    0.826
   596   1 h    0.890 --   595 o    0.826
   597   1 h    0.890 --   595 o    0.871
   598   8 o    1.849 --   600 h    0.863   599 h    0.780
   599   1 h    0.872 --   598 o    0.780
   600   1 h    0.898 --   598 o    0.863
   601   8 o    1.808 --   603 h    0.854   602 h    0.802
   602   1 h    0.880 --   601 o    0.802
   603   1 h    0.893 --   601 o    0.854
   604   8 o    1.811 --   606 h    0.872   605 h    0.835
   605   1 h    0.890 --   604 o    0.835
   606   1 h    0.896 --   604 o    0.872
   607   8 o    1.878 --   609 h    0.895   608 h    0.789
   608   1 h    0.880 --   607 o    0.789
   609   1 h    0.903 --   607 o    0.895
   610   8 o    1.865 --   612 h    0.860   611 h    0.822
   611   1 h    0.883 --   610 o    0.822
   612   1 h    0.890 --   610 o    0.860
   613   8 o    1.838 --   614 h    0.851   615 h    0.819
   614   1 h    0.891 --   613 o    0.851
   615   1 h    0.888 --   613 o    0.819
   616   8 o    1.838 --   618 h    0.853   617 h    0.805
   617   1 h    0.879 --   616 o    0.805
   618   1 h    0.888 --   616 o    0.853
   619   8 o    1.857 --   620 h    0.846   621 h    0.774
   620   1 h    0.894 --   619 o    0.846
   621   1 h    0.870 --   619 o    0.774
   622   8 o    1.817 --   624 h    0.882   623 h    0.843
   623   1 h    0.882 --   622 o    0.843
   624   1 h    0.892 --   622 o    0.882
   625   8 o    1.875 --   626 h    0.892   627 h    0.817
   626   1 h    0.901 --   625 o    0.892
   627   1 h    0.879 --   625 o    0.817
   628   8 o    1.862 --   630 h    0.838   629 h    0.809
   629   1 h    0.879 --   628 o    0.809
   630   1 h    0.895 --   628 o    0.838
   631   8 o    1.867 --   632 h    0.812   633 h    0.790
   632   1 h    0.893 --   631 o    0.812
   633   1 h    0.872 --   631 o    0.790
   634   8 o    1.812 --   635 h    0.858   636 h    0.827
   635   1 h    0.896 --   634 o    0.858
   636   1 h    0.886 --   634 o    0.827
   637   8 o    1.870 --   638 h    0.846   639 h    0.836
   638   1 h    0.892 --   637 o    0.846
   639   1 h    0.893 --   637 o    0.836
   640   8 o    1.865 --   642 h    0.828   641 h    0.799
   641   1 h    0.873 --   640 o    0.799
   642   1 h    0.894 --   640 o    0.828
   643   8 o    1.857 --   644 h    0.848   645 h    0.828
   644   1 h    0.882 --   643 o    0.848
   645   1 h    0.885 --   643 o    0.828
   646   8 o    1.835 --   648 h    0.851   647 h    0.835
   647   1 h    0.885 --   646 o    0.835
   648   1 h    0.889 --   646 o    0.851
   649   8 o    1.821 --   650 h    0.867   651 h    0.834
   650   1 h    0.889 --   649 o    0.867
   651   1 h    0.884 --   649 o    0.834
   652   8 o    1.861 --   653 h    0.901   654 h    0.831
   653   1 h    0.910 --   652 o    0.901
   654   1 h    0.883 --   652 o    0.831
   655   8 o    1.849 --   656 h    0.832   657 h    0.799
   656   1 h    0.880 --   655 o    0.832
   657   1 h    0.877 --   655 o    0.799
   658   8 o    1.879 --   659 h    0.850   660 h    0.827
   659   1 h    0.888 --   658 o    0.850
   660   1 h    0.886 --   658 o    0.827
   661   8 o    1.820 --   663 h    0.849   662 h    0.812
   662   1 h    0.875 --   661 o    0.812
   663   1 h    0.893 --   661 o    0.849
   664   8 o    1.837 --   665 h    0.904   666 h    0.814
   665   1 h    0.907 --   664 o    0.904
   666   1 h    0.873 --   664 o    0.814
   667   8 o    1.847 --   669 h    0.886   668 h    0.815
   668   1 h    0.880 --   667 o    0.815
   669   1 h    0.895 --   667 o    0.886
   670   8 o    1.866 --   671 h    0.847   672 h    0.833
   671   1 h    0.890 --   670 o    0.847
   672   1 h    0.882 --   670 o    0.833
   673   8 o    1.866 --   674 h    0.844   675 h    0.812
   674   1 h    0.893 --   673 o    0.844
   675   1 h    0.886 --   673 o    0.812
   676   8 o    1.856 --   678 h    0.897   677 h    0.828
   677   1 h    0.875 --   676 o    0.828
   678   1 h    0.901 --   676 o    0.897
   679   8 o    1.798 --   680 h    0.859   681 h    0.833
   680   1 h    0.895 --   679 o    0.859
   681   1 h    0.885 --   679 o    0.833
   682   8 o    1.851 --   684 h    0.836   683 h    0.807
   683   1 h    0.879 --   682 o    0.807
   684   1 h    0.892 --   682 o    0.836
   685   8 o    1.827 --   686 h    0.881   687 h    0.800
   686   1 h    0.899 --   685 o    0.881
   687   1 h    0.865 --   685 o    0.800
   688   8 o    1.820 --   689 h    0.887   690 h    0.801
   689   1 h    0.903 --   688 o    0.887
   690   1 h    0.871 --   688 o    0.801
   691   8 o    1.841 --   692 h    0.854   693 h    0.827
   692   1 h    0.889 --   691 o    0.854
   693   1 h    0.879 --   691 o    0.827
   694   8 o    1.837 --   695 h    0.894   696 h    0.762
   695   1 h    0.901 --   694 o    0.894
   696   1 h    0.870 --   694 o    0.762   343 o    0.105
   697   8 o    1.829 --   698 h    0.838   699 h    0.794
   698   1 h    0.891 --   697 o    0.838
   699   1 h    0.876 --   697 o    0.794
   700   8 o    1.871 --   701 h    0.832   702 h    0.800
   701   1 h    0.873 --   700 o    0.832
   702   1 h    0.890 --   700 o    0.800
   703   8 o    1.879 --   705 h    0.833   704 h    0.806
   704   1 h    0.868 --   703 o    0.806
   705   1 h    0.883 --   703 o    0.833
   706   8 o    1.866 --   708 h    0.836   707 h    0.803
   707   1 h    0.873 --   706 o    0.803
   708   1 h    0.891 --   706 o    0.836
   709   8 o    1.829 --   710 h    0.853   711 h    0.842
   710   1 h    0.884 --   709 o    0.853
   711   1 h    0.882 --   709 o    0.842
   712   8 o    1.823 --   714 h    0.871   713 h    0.842
   713   1 h    0.881 --   712 o    0.842
   714   1 h    0.894 --   712 o    0.871
   715   8 o    1.820 --   717 h    0.827   716 h    0.810
   716   1 h    0.880 --   715 o    0.810
   717   1 h    0.889 --   715 o    0.827
   718   8 o    1.828 --   719 h    0.867   720 h    0.818
   719   1 h    0.895 --   718 o    0.867
   720   1 h    0.881 --   718 o    0.818
   721   8 o    1.848 --   722 h    0.846   723 h    0.812
   722   1 h    0.892 --   721 o    0.846
   723   1 h    0.882 --   721 o    0.812
   724   8 o    1.859 --   726 h    0.899   725 h    0.790
   725   1 h    0.876 --   724 o    0.790
   726   1 h    0.902 --   724 o    0.899
   727   8 o    1.783 --   728 h    0.843   729 h    0.814
   728   1 h    0.895 --   727 o    0.843
   729   1 h    0.884 --   727 o    0.814
   730   8 o    1.834 --   732 h    0.834   731 h    0.802
   731   1 h    0.878 --   730 o    0.802
   732   1 h    0.884 --   730 o    0.834
   733   8 o    1.824 --   734 h    0.872   735 h    0.801
   734   1 h    0.893 --   733 o    0.872
   735   1 h    0.873 --   733 o    0.801
   736   8 o    1.804 --   738 h    0.849   737 h    0.825
   737   1 h    0.892 --   736 o    0.825
   738   1 h    0.891 --   736 o    0.849
   739   8 o    1.844 --   741 h    0.829   740 h    0.816
   740   1 h    0.885 --   739 o    0.816
   741   1 h    0.885 --   739 o    0.829
   742   8 o    1.828 --   743 h    0.847   744 h    0.835
   743   1 h    0.887 --   742 o    0.847
   744   1 h    0.891 --   742 o    0.835
   745   8 o    1.873 --   747 h    0.835   746 h    0.807
   746   1 h    0.871 --   745 o    0.807
   747   1 h    0.889 --   745 o    0.835
   748   8 o    1.868 --   750 h    0.837   749 h    0.825
   749   1 h    0.886 --   748 o    0.825
   750   1 h    0.881 --   748 o    0.837
   751   8 o    1.873 --   752 h    0.879   753 h    0.832
   752   1 h    0.894 --   751 o    0.879
   753   1 h    0.875 --   751 o    0.832
   754   8 o    1.807 --   755 h    0.869   756 h    0.865
   755   1 h    0.891 --   754 o    0.869
   756   1 h    0.894 --   754 o    0.865
 ---------------------------------------------------------------------------

Topologies differ in total number of bonds
Writing topology from bond orders to xtbtopo.mol

molecular dipole:
                 x           y           z       tot (Debye)
 q only:        1.702       2.490       1.169
   full:        1.603       3.200       1.687      10.058
molecular quadrupole (traceless):
                xx          xy          yy          xz          yz          zz
 q only:       13.521     -22.383       9.724      -2.414     -28.828     -23.246
  q+dip:       19.476     -18.769      -7.231      -3.919     -49.736     -12.245
   full:       21.262     -16.982     -10.339      -3.694     -50.795     -10.922


           -------------------------------------------------
          | TOTAL ENERGY            -1283.535864890373 Eh   |
          | GRADIENT NORM               0.118969635324 Eh/α |
          | HOMO-LUMO GAP               7.062248996247 eV   |
           -------------------------------------------------

------------------------------------------------------------------------
 * finished run on 2022/11/24 at 12:21:38.927     
------------------------------------------------------------------------
 total:
 * wall-time:     0 d,  0 h,  0 min, 22.236 sec
 *  cpu-time:     0 d,  0 h,  0 min, 36.092 sec
 * ratio c/w:     1.623 speedup
 SCF:
 * wall-time:     0 d,  0 h,  0 min, 21.246 sec
 *  cpu-time:     0 d,  0 h,  0 min, 34.393 sec
 * ratio c/w:     1.619 speedup

