756
 energy: -1283.263344119591 gnorm: 0.025411937879 xtb: 6.5.1 (579679a)
o            6.36451584401878       -7.04157772600286       -0.69427269838719
h            5.48604954442024       -7.25986851725064       -1.06031000322729
h            6.31177639251174       -7.29243567042918        0.25327465150175
o            0.69976780887739        2.49905221454540        5.28948996345683
h            0.69717933251763        3.06505221743356        6.08249416838415
h            0.81205561615984        3.09824068095421        4.53047470477585
o            0.20570784091482       -1.07525909434052       -3.05539623432930
h            0.23256799882325       -1.47780620199338       -3.94073007499049
h            0.99464065702035       -0.52339878264035       -2.94888296391112
o           -5.80000796849250       -0.09209262805580        0.65916159904504
h           -5.91582912964672        0.86432323481058        0.83725832572156
h           -4.85931623806672       -0.27865336094762        0.51110142198145
o           -3.31081047763292        2.02629637990643        1.14408129485549
h           -2.40706353607967        2.33496999486857        1.35902488521390
h           -3.79925825291591        2.01333498280878        1.98667469478206
o           -3.45707007176300       -4.13911779338503        0.27218340354760
h           -3.69520831166926       -3.64442656868083       -0.52862420095592
h           -3.83081667398815       -3.64594089764031        1.02226002225746
o           -1.71427292335479       -3.70018976850703       -2.13216175998428
h           -1.90205303473324       -4.58354416095228       -1.76728889133593
h           -0.74249988801304       -3.63758262811585       -2.14211070346136
o            0.68266020896499       -5.72113022251016       -0.73797821363247
h           -0.02405644776813       -5.20014953634552       -0.30379328161498
h            1.38581648502796       -5.10705637008243       -1.00444654541051
o           -1.05826161561780       -2.33265938438269        2.54750613614972
h           -1.01453813297420       -3.15307220256733        2.02700068444064
h           -1.65046729657423       -2.49273243793152        3.29270703811209
o           -0.48246192513856        3.37387755788135       -4.36662519477757
h           -0.88747017386334        3.57281543022489       -5.22042325726457
h            0.47868482398881        3.30318733734009       -4.54958307890295
o           -5.03457771870668       -0.14867745960618       -2.47081100066541
h           -4.57304244942676        0.10062427046416       -3.30670467791363
h           -5.00428553931720        0.65467531546112       -1.91283761943231
o           -2.25116254664387        2.08286979295721       -2.43767908563906
h           -3.20916725216310        2.00360967491122       -2.33535192723306
h           -2.01538199571854        2.79445015763893       -1.81991328665405
o           -4.62743395838028       -2.64500575130427       -1.65624649373816
h           -4.69142987134269       -1.72450094240590       -1.97863951012743
h           -5.10222407913083       -3.20843139283095       -2.28833285279504
o           -4.67775265491209        2.10161431201820       -1.17545184924517
h           -5.37571056265754        2.78057442352626       -1.14324743123289
h           -4.19107078676481        2.17444746326102       -0.33859902528602
o           -1.57657985872974        3.89566616917128       -0.56752820534638
h           -0.85260608849794        4.27859619674464       -1.10222767893859
h           -1.19742113480677        3.58300953487901        0.27390484348782
o            1.10985516643067        0.87008337347627       -5.01014490257346
h            1.23185096591262        1.26950030061941       -4.12797257671866
h            1.71730745787346        0.11113070838939       -5.05472868233727
o           -1.62991837788116        0.60095004444578        2.93403046558910
h           -1.19564808057137        0.43927645344520        3.78537274060429
h           -2.54447365063114        0.82689242238309        3.13850217831923
o           -1.97513341175282       -0.83069132853063        7.92015594389117
h           -2.34734942331972       -0.58934366372254        7.04645985095039
h           -2.61400391128062       -1.48705062223576        8.28149633666694
o           -1.00000535542237       -4.56765719002625        0.99743115956106
h           -1.05433501558179       -5.33120626238657        1.59720787741569
h           -1.90673134739920       -4.41969747135371        0.63786165362090
o           -2.03134900953757        2.48207198512064        5.52975726026536
h           -1.11549357550761        2.15282827456710        5.47164850805659
h           -2.45669518737508        2.09097889080496        6.31481758602975
o           -4.26160677352044       -2.33045788928676        2.22705986447973
h           -3.77142454419816       -2.52257013046346        3.05442827911920
h           -3.72595770531681       -1.68237189731425        1.73706178444049
o            3.63416943473244        0.04797969204834        2.72509782137363
h            4.02901731399954        0.72920212384680        2.15974320362521
h            3.53759876449172       -0.73773298555526        2.16124748208597
o            0.95804549881514       -3.29050068361675       -1.95687296564720
h            1.65627632613570       -3.57139293235656       -2.58417604464766
h            0.69717730721780       -2.39123599434792       -2.26758128152072
o            0.07181120053746        4.87391164051296       -2.32958904226781
h           -0.23149725242216        4.29605822852431       -3.07972026037262
h            1.01973172789208        4.66570269492989       -2.18382676569119
o            0.52696822340963        0.34009841524686        7.67937026513076
h            0.23435741325688        0.41691112022026        6.74017188096677
h           -0.26348240505486        0.06716946856809        8.15827987339888
o           -4.16830453597720        1.41059555782900        3.61405864489848
h           -4.52536256085026        2.11975587843533        4.17466738738638
h           -4.81320781024494        0.66056409961455        3.67076816463670
o           -7.60380624414138       -0.57174811135503       -1.15849253451831
h           -6.84388133814505       -0.55879342905687       -0.53868764552189
h           -7.64523200369780        0.33503677711614       -1.53922522829504
o            1.27521564098926        1.57192972636108        2.40618134666170
h            1.34780583355462        0.64439388771512        2.68681557772495
h            2.04167737627903        2.04414569895036        2.78219277847630
o           -2.74698922204224       -1.54438578231657       -3.69474043931280
h           -2.23168356645070       -2.04274736497986       -3.05079442305639
h           -2.27369398415339       -0.71080177155396       -3.90453977234823
o            4.53558107060224       -1.72532299112966       -1.09524110018678
h            5.25645855102106       -1.11082981264051       -0.86333110660291
h            4.90282732243008       -2.38569885736194       -1.71493192639379
o           -2.87306617414547       -4.60812104527213       -4.40051855673280
h           -2.62426371432848       -4.09165939468770       -3.60619162932817
h           -2.97551034824074       -3.98056253639498       -5.13239459853160
o           -7.11766242754440       -0.71781822790297       -3.95231311081606
h           -6.46738640867483       -0.39580259967842       -3.28732413801166
h           -7.98687022820171       -0.32889625708584       -3.74434249281080
o            2.64600130151152        0.54011784298955        5.13495819129347
h            2.95232100109246        0.43668340208598        4.20921848528111
h            1.94519074783089        1.21955726835331        5.14747567553249
o            3.80398898917685       -4.99572091611168        1.60886909633408
h            3.45305828823563       -5.37570155615825        2.42676226905214
h            3.76629415617437       -4.02653021393050        1.67657588985195
o            1.10976192233952       -1.02284855600291        3.32551755006839
h            0.38452384732520       -1.59253674204904        2.98989939190572
h            1.85233115274631       -1.60167002680186        3.55755145704106
o            3.22404279818258        3.94138619292994        5.76988742778693
h            2.96783669685282        3.27128021860027        6.42339438655644
h            3.25423474218158        3.52392614686032        4.88463481871798
o           -4.35496914395887        4.61736759341440       -2.77216460430646
h           -4.33058084562159        4.67239516640881       -1.79737164374505
h           -3.54092860898295        5.02107583335908       -3.10023036256998
o           -6.57432328855344        3.95481101488401       -0.84669335354633
h           -7.28936028491470        4.08236147815044       -1.49870583465466
h           -6.26349462639163        4.85204442294178       -0.64055569247111
o            1.16844970349473       -4.17931934025482        2.91548092831050
h            1.37701070284492       -5.05361446824055        2.53356833414294
h            0.42108740373255       -4.32029510367583        3.51566403182705
o           -4.93832895493647       -5.05610506380923        2.43637388776045
h           -5.54163570786342       -5.82068691547369        2.33263708188475
h           -5.50661824781202       -4.29896385195485        2.65979921613168
o            1.05006940817763       -2.66381912595884        0.61437089290026
h            1.06809214290531       -3.00682334393576       -0.30077105709546
h            0.89418389554010       -3.38599624685730        1.24203603106743
o           -0.89372699958266        2.96829290101053        1.77533616168949
h           -1.30160858604050        3.48883179611660        2.49765562907483
h           -0.24070905096756        2.36490210489132        2.17596279222044
o            0.52628602827288       -0.41627428717905       -7.71009114308055
h            0.70744765806501        0.54510689622651       -7.74605968414343
h            0.33550689477257       -0.60993390311229       -6.78622584699398
o            3.18756926986649       -2.73781799449334        3.93180993691843
h            3.58095433076959       -2.54413272396266        3.06552422268944
h            2.51243943270331       -3.42409964862218        3.74832781524133
o           -4.73745508017261        4.03804853516151        2.43969516275223
h           -5.13386726629480        4.80468165973557        2.89757484297139
h           -4.57717402564317        4.30614530758865        1.51009290079808
o           -6.53259260082543        2.36897244661375        1.29597399576349
h           -5.97310188153331        2.88536581800401        1.90332938001449
h           -6.66104650660755        2.95875567299522        0.52405264037978
o           -6.87096347743245       -3.30784436810785        3.11960685987186
h           -7.52025525039264       -4.02936162446788        2.98383306466885
h           -7.30048998408220       -2.48437498740722        2.81988026837980
o            0.87149059744559       -7.63069490044665        4.42083758344769
h            0.69712918032215       -7.28237915336229        5.30759160177698
h            0.10880312730571       -7.37611929286508        3.88142501699300
o            5.63907597882331       -5.91868152458203        4.15249225784404
h            5.70730711349258       -5.23142782624368        4.83257349574783
h            4.68407099612590       -6.12837448212718        4.12179518379176
o            0.80339211246388        1.69942886453191       -2.48313663302162
h           -0.12548820435746        1.93011706232965       -2.57728983188674
h            1.12519489200747        2.09135567887002       -1.65608736835322
o            5.22208930671004       -3.48756972643363       -2.99405741712039
h            5.63762102965784       -4.33926774781558       -2.77521146882401
h            5.84908594323904       -3.08947203566794       -3.63412150573690
o           -8.39827336863306        4.73674818883867       -2.62452879280386
h           -7.77657899771200        5.28187833256302       -3.14556530526344
h           -8.87989606994953        4.17118279340992       -3.24861819340252
o            7.79299841298850        0.40925881073023        2.56220889208562
h            7.32149397103347       -0.43088792482326        2.40284957227070
h            8.45644660543587        0.21042412017766        3.25469414103927
o           -0.87302210860336        3.68386764272164       -7.08927500907773
h           -1.50988024001790        2.92792583065566       -7.12030587069890
h           -0.02075253057470        3.27002379391679       -7.32539925127109
o           -8.92795207279081       -3.07837113539795        0.86938884944081
h           -9.33048100444527       -2.23167174595210        0.62047764793404
h           -7.97399061369679       -2.97095828556302        0.72246803817152
o           -2.36694486640195        4.26561632044858        3.51328775934740
h           -3.27499833925514        4.14906013246222        3.14254038984447
h           -2.30454150899126        3.59606854756740        4.21211728421215
o            3.17536827009853       -4.77101660925912       -0.90844705651715
h            3.95407850635224       -4.25005964879178       -1.14396240276627
h            3.31192604602906       -4.96413387174249        0.04825913452264
o           -4.20209276794220       -8.21490816514486        3.17693701855333
h           -5.16113447406510       -8.16038267650364        3.09144971348448
h           -3.86812949562635       -7.90029755683334        2.31400086091380
o            2.81802848305154       -0.29324798619340       -2.44595836807113
h            3.11765017935355        0.63677407902200       -2.38086613031012
h            3.48154128739288       -0.85580976920073       -1.98116779149305
o            3.27287386075231       -0.81357727821845       -7.50040551623418
h            3.19913864849345       -0.99572307471959       -6.54626309345683
h            2.35628385269074       -0.75909726877334       -7.81062041565340
o           -2.93240944163960       -2.61770641443695        4.49335944151934
h           -3.02855285331969       -1.71587723000616        4.86906287076287
h           -3.35099276570455       -3.21546973827832        5.14595997367301
o           -0.30435678926253       -5.26998811176581       -4.55570606893481
h           -1.27954891208728       -5.16732024719101       -4.59474255191343
h           -0.13698383639110       -5.98976607378727       -3.93450263136854
o            2.25365703511211        0.09753430115119        0.21011935080580
h            2.25376403970255       -0.04898441515518       -0.74571710221450
h            2.96751912808230        0.70887597993231        0.40806832384078
o           -2.10337047195522       -6.29217239283087       -1.34627184379694
h           -2.69942168475582       -6.59408784781967       -2.04385040537753
h           -2.62715621096002       -6.31033393374564       -0.51941510741042
o            2.99322084259755       -6.01042647057034        4.03860664490993
h            2.85441610657545       -5.40561093408324        4.79394186713198
h            2.29570981791097       -6.68969625534977        4.11495530602662
o           -4.83783428185989       -0.68809412086059       -7.00323795256000
h           -4.77356620032273       -1.46583693980384       -6.41398665382926
h           -4.11939845731431       -0.74618910117053       -7.63965493501536
o           -6.38964275698747       -4.24186073685256       -2.87398246936013
h           -7.21970209937713       -3.76366359181838       -2.98355183689458
h           -6.38785309225355       -4.99763927213363       -3.50849569879216
o           -1.54726766754906        0.63831747207881       -4.60901254858949
h           -0.58299171681149        0.71812264997478       -4.71972331891819
h           -1.80511079912712        1.28099077285351       -3.92512883583795
o          -10.54834884195493        5.81098592057387        1.81970731287302
h           -9.89423389554211        6.01016168379490        1.13064354310239
h          -11.35531126308740        5.60326726184556        1.33637099081552
o            2.47922352098509       -4.44654329766263        6.15542427091775
h            2.32334774324658       -3.50496633651945        6.28438593705334
h            1.72745491493201       -4.93515686043087        6.51766105841069
o           -1.99455115485163        5.01244654346011        6.39167000819974
h           -2.04990594781562        4.07615477102649        6.09078507371475
h           -1.57731994426107        5.49999998892621        5.65487076225787
o            6.34357148926211       -0.05146322832550       -0.01140499954211
h            7.25423239047373        0.14990719109199       -0.30019435634883
h            6.37319214931370       -0.67768084182687        0.73362348783661
o            3.45364168958127        2.94922658567966        3.28135382356555
h            4.30137565423118        2.48583523037156        3.41152811208866
h            3.57088000600424        3.50636350538990        2.49018896746753
o           -4.25347276667535        0.80390829451550       -4.76328163727691
h           -4.47360826565172        0.40068925442521       -5.61690417217995
h           -4.83738309610186        1.56775514304807       -4.63612584677406
o            5.97187560714687       -7.62131595151691        1.88447878036362
h            6.01073633984154       -7.03260332253558        2.64773783155058
h            5.05205214438550       -7.93533986128224        1.84379677393772
o           -4.48768016124630        3.41545815992377       -6.46981805444939
h           -3.93712557802490        4.20457225881231       -6.39787328082389
h           -3.87542310384948        2.67498451642262       -6.63849639550001
o            6.19387889695018        1.51053371835738       -2.62164647047152
h            6.40595165507459        0.58959941039858       -2.37288899335011
h            6.78375029402360        2.10140961223765       -2.10254175713216
o           -8.49257889288345       -5.43019912220195        2.92802635404607
h           -8.83717940571269       -5.38433166945749        3.82712871063029
h           -9.26928495772277       -5.37354568125822        2.31004839478038
o           -9.83135341627591       -0.62239872905564        0.15829943351346
h           -9.93826289855741        0.15031453455408        0.72637870850873
h           -8.94461166094532       -0.53137194820106       -0.27820066118925
o           -9.35439584062667       -4.93588963526260       -1.27140623044282
h           -8.51964007917269       -5.28184959076532       -0.89440353441982
h           -9.14219895881368       -4.00705663613711       -1.47761238981169
o           -8.72953241399961        6.04561047600624       -0.21946039723894
h           -7.92931494854136        6.52176575332968       -0.49660436582655
h           -8.92113873742318        5.44625891981209       -0.95735788057932
o           -6.15632807393383        6.67609941781113       -0.75088214643538
h           -5.68236534980686        6.91616936253823        0.05627585947903
h           -5.63955118627920        7.03083767699969       -1.49424929216775
o           -1.49189339088661        6.81824438742356       -1.07285866426343
h           -1.73328834099062        6.29902378519525       -0.28945131244553
h           -1.11696468787135        6.20202384799440       -1.71492790279381
o           -0.50159353056379        6.31208842348296        4.47680548665496
h            0.19491094611659        6.55462248518148        5.10756923643453
h           -0.10527230513308        5.52976371506473        4.01714325380126
o            0.99754955235041        4.43659024058629        3.37682016270834
h            1.86841005625414        4.85725189095833        3.49268606655882
h            0.83731914941580        4.48499681299496        2.41396639493950
o            1.02847695288087        5.71709594598475       -6.04404949245070
h            0.37084918539387        5.26332182468438       -6.57772765693793
h            1.58760053570704        5.01053011813751       -5.67366922221361
o            1.32248524250357        2.15401127645710       -7.33178817947805
h            1.26200566281477        1.84158822064282       -6.40265755388030
h            2.27825082323066        2.21748330876818       -7.51005746003883
o            4.61144025756395        1.67895034683201        0.81752361875258
h            5.32626989774438        1.07505986415891        0.50658400880036
h            5.05078102450326        2.45559528857709        1.20729675969064
o            6.94648007392585        4.59256718001512       -5.66680346635039
h            7.30091581784272        4.92635390384723       -4.81495623988241
h            6.79455552862134        5.35774186752463       -6.22014798371268
o           -2.44234075970666        6.34491305153770       -3.85003233700509
h           -1.57206624524847        6.78199505238632       -3.82667364987265
h           -2.57641933546741        6.08714664685256       -4.77651945154855
o           -6.80988923169846       -5.35845917965803       -0.50967262511410
h           -6.58328183622256       -5.00764916980480       -1.40272723015904
h           -6.60156127352670       -4.60585030188287        0.07963636241163
o            1.94844748842881       -8.66540481034893       -0.59525875797369
h            2.47576840230523       -8.80428775096378        0.20553119533129
h            1.05627897500169       -8.43333809697950       -0.28486423057104
o           10.10903465461323       -1.88977911167169       -1.35266229000375
h           10.08865479000416       -1.53852331646045       -2.24991961815894
h            9.19551254366727       -2.17311225828495       -1.13981599635113
o            1.43489146727472       -6.53626001078484        1.63606359891065
h            1.26898475556751       -6.32388148978905        0.68853281601975
h            0.62942023970426       -6.96103832187541        1.94576607177748
o            4.62984167135664        6.42045117072927       -2.42850738149041
h            5.28044499509591        6.46359418192693       -3.13178559744190
h            5.01178965102114        5.76817720394555       -1.79411885964691
o           -5.52158377522392       -1.04857721561583        6.88685622135746
h           -5.95753804737723       -1.76584376587017        6.38469909004638
h           -6.11604722257116       -0.28044998038086        6.85722777410654
o           -7.45455701178786       -0.41469855042534       -6.52217070569237
h           -7.20447167559031       -0.38501523637936       -5.57054847488091
h           -6.60647907337025       -0.47064986813454       -6.99162145063785
o           -4.62770052295567        7.69521027546084       -2.82651693456417
h           -5.32068759946234        7.45218193150849       -3.45277876406113
h           -3.81882850500015        7.25036890893221       -3.14717700431407
o           -6.39550631144366        5.87829471012905       -4.05466749561976
h           -5.67194082597384        5.39785958830241       -3.59845871184579
h           -6.58422307433523        5.38729174548285       -4.86424457840962
o            5.35511618766798       -0.83267038784736        4.59738803586789
h            5.30705439202696        0.10410693094139        4.30242942133323
h            4.45560866022169       -1.13796496192321        4.73611330039724
o           -5.06371744460324       -2.34492385364469       -4.86010941429341
h           -5.82577715370169       -1.87796242196831       -4.49235027581318
h           -4.30022308093782       -2.07908942740797       -4.31911357418544
o            1.42651428945210       -5.85462065222556       -6.53564485204207
h            2.06872867356967       -6.34452848527303       -6.01165260205670
h            0.68021744129149       -5.68079362105247       -5.92590508671209
o            2.73434911281488       -3.84637563074434       -3.86298725320328
h            2.67645949148577       -4.79977989529028       -4.05564371942911
h            3.65091590587855       -3.69719089818547       -3.54830966179811
o           -3.99862990111899        4.83334323417661       -0.04164519863629
h           -3.94737020237483        5.73244905686045        0.32487590825909
h           -3.09169317476176        4.48775450213949       -0.15214565398451
o           -9.59153781342551        0.32159415066353       -3.66853223614423
h          -10.10529069046106        0.50779231178843       -4.47203381939772
h          -10.17527322186813       -0.22472545845039       -3.10233247967481
o          -11.94500151577776        4.32412989201981       -0.09427155455385
h          -11.02706182324141        4.01687249782645       -0.21012304750550
h          -12.40634321207574        4.04263900493592       -0.88840770957601
o            2.92734450530978        6.71202083287842        0.25874939149408
h            3.80031697411785        7.04105935515100        0.49155962859463
h            2.70918937254958        7.07227362565533       -0.62040818454022
o           -7.91269706448300        1.80911192095609       -2.22790746320112
h           -7.15740189005730        2.13213105268694       -2.76954567164975
h           -8.60400262554593        1.51612667053828       -2.84617817723999
o            1.77963278359105        6.19078671633688        6.00766821972643
h            2.42410358519867        6.88394094742796        6.15460955919316
h            2.30626093293194        5.38467424462569        5.79423145452797
o            3.88820669896375        1.49050514681525       -4.63327944473785
h            4.41267971630433        2.21517658488253       -4.23939847518121
h            4.44132523484679        0.68369161376890       -4.60072402745834
o           -0.91036359013904       -4.60975276632093        4.65691858104495
h           -1.80442275239111       -4.95444134264139        4.51832247790350
h           -0.98801276453487       -3.77467190819713        5.15462525996908
o            5.47923315205302        4.35673749329451       -1.03287836177268
h            6.34710116123473        4.51213864957687       -0.63438915404304
h            4.84609275799390        4.18258997955142       -0.30683421153288
o           -6.26573771618320       -2.91124676660328        0.40145874225366
h           -5.70628689808735       -2.72094809225848       -0.38352618011754
h           -5.73297378131130       -2.68162599540652        1.17297946907424
o            6.92256480064460        1.90143445909058        6.17675907863868
h            7.33975322543941        1.02135784244167        6.25435239043959
h            6.06349699924663        1.78590693290905        6.62377596096530
o           -7.91998725480662        0.90245928777247        4.36898002665878
h           -8.83343067986045        0.60163996628155        4.19305221208100
h           -7.85108377619956        1.82778479362334        4.05978985584482
o           -5.35954394255743        6.15545239401522        3.99247618278992
h           -5.33856429440393        5.85475420251293        4.91045410932275
h           -4.57849996162000        6.71866497406185        3.90941933229550
o           -9.60571352681010        2.99289765802755       -0.52181852318735
h           -8.87045615552511        2.74454741586891       -1.11130970339620
h           -9.47689971736092        2.45710137623758        0.28887051389928
o           -3.30346989861394        1.64535496684871        7.79234732194892
h           -2.81056325564413        0.88907710901412        8.14488984194123
h           -4.21140024577872        1.35384987799376        7.68739129758648
o           -0.56720417447649       -2.52706288434636        6.30047586496028
h            0.38691020640351       -2.36679063901619        6.40875381391444
h           -1.01062129483742       -2.14117816754780        7.07395253719953
o            0.21373798616989       -6.00378160588683        6.59092582891325
h           -0.23078072858870       -5.49093188306752        5.87049501575272
h           -0.41776135534114       -6.10236815064046        7.30176575076373
o           -2.66184422664175        5.58114071209836       -6.48432853610318
h           -2.75830798769210        6.22077018995499       -7.18896332322899
h           -1.95982623807292        4.95892756022527       -6.75929760809205
o            3.78669186238206        2.08137004839683       -1.69596914395292
h            3.99241966389514        2.05063556784787       -0.74308440455891
h            4.65388091152649        1.96656699204782       -2.13848051609790
o            7.90291676949041        1.65233343490140       -4.65440898207756
h            7.45717589964495        1.71257650001215       -5.52225490826139
h            7.17690135144798        1.62935083583365       -3.99041429848127
o            2.25096846426165        7.85095399811171       -2.11262755329684
h            3.08641763195102        7.53593095973859       -2.48271699796093
h            1.56235106374952        7.68606823330937       -2.78579803144192
o            4.76819221862100        6.12802282565996        5.39598297247655
h            4.16871395913907        6.22724161895503        4.62684900803452
h            4.48258911951879        5.29704320785613        5.80399364062237
o            5.78494640118961        1.66957441850189        3.78596435204916
h            6.52115873578621        1.32976950562808        3.23392728176548
h            6.19544175110536        1.91199107211089        4.63961758735013
o            5.83156134116494       -4.43050206665087       -0.43048818226048
h            5.76241238068039       -4.40176897011663        0.54294633742711
h            6.08601070935769       -5.35332884753388       -0.62828143590991
o            6.38115394767537       -4.25194765691662        2.18939365087468
h            7.29145031652062       -4.57914825115997        2.17206346198258