      -----------------------------------------------------------      
     |                   =====================                   |     
     |                           x T B                           |     
     |                   =====================                   |     
     |                         S. Grimme                         |     
     |          Mulliken Center for Theoretical Chemistry        |     
     |                    University of Bonn                     |     
      -----------------------------------------------------------      

   * xtb version 6.5.1 (579679a) compiled by 'ehlert@majestix' on 2022-07-11

   xtb is free software: you can redistribute it and/or modify it under
   the terms of the GNU Lesser General Public License as published by
   the Free Software Foundation, either version 3 of the License, or
   (at your option) any later version.
   
   xtb is distributed in the hope that it will be useful,
   but WITHOUT ANY WARRANTY; without even the implied warranty of
   MERCHANTABILITY or FITNESS FOR A PARTICULAR PURPOSE.  See the
   GNU Lesser General Public License for more details.
   
   Cite this work as:
   * C. Bannwarth, E. Caldeweyher, S. Ehlert, A. Hansen, P. Pracht,
     J. Seibert, S. Spicher, S. Grimme, WIREs Comput. Mol. Sci., 2020, 11,
     e01493. DOI: 10.1002/wcms.1493
   
   for GFN2-xTB:
   * C. Bannwarth, S. Ehlert and S. Grimme., J. Chem. Theory Comput., 2019,
     15, 1652-1671. DOI: 10.1021/acs.jctc.8b01176
   for GFN1-xTB:
   * S. Grimme, C. Bannwarth, P. Shushkov, J. Chem. Theory Comput., 2017,
     13, 1989-2009. DOI: 10.1021/acs.jctc.7b00118
   for GFN0-xTB:
   * P. Pracht, E. Caldeweyher, S. Ehlert, S. Grimme, ChemRxiv, 2019, preprint.
     DOI: 10.26434/chemrxiv.8326202.v1
   for GFN-FF:
   * S. Spicher and S. Grimme, Angew. Chem. Int. Ed., 2020, 59, 15665-15673.
     DOI: 10.1002/anie.202004239
   
   for ALPB and GBSA implicit solvation:
   * S. Ehlert, M. Stahn, S. Spicher, S. Grimme, J. Chem. Theory Comput.,
     2021, 17, 4250-4261. DOI: 10.1021/acs.jctc.1c00471
   
   for DFT-D4:
   * E. Caldeweyher, C. Bannwarth and S. Grimme, J. Chem. Phys., 2017,
     147, 034112. DOI: 10.1063/1.4993215
   * E. Caldeweyher, S. Ehlert, A. Hansen, H. Neugebauer, S. Spicher,
     C. Bannwarth and S. Grimme, J. Chem. Phys., 2019, 150, 154122.
     DOI: 10.1063/1.5090222
   * E. Caldeweyher, J.-M. Mewes, S. Ehlert and S. Grimme, Phys. Chem. Chem. Phys.
     2020, 22, 8499-8512. DOI: 10.1039/D0CP00502A
   
   for sTDA-xTB:
   * S. Grimme and C. Bannwarth, J. Chem. Phys., 2016, 145, 054103.
     DOI: 10.1063/1.4959605
   
   in the mass-spec context:
   * V. Asgeirsson, C. Bauer and S. Grimme, Chem. Sci., 2017, 8, 4879.
     DOI: 10.1039/c7sc00601b
   * J. Koopman and S. Grimme, ACS Omega 2019, 4, 12, 15120-15133.
     DOI: 10.1021/acsomega.9b02011
   
   for metadynamics refer to:
   * S. Grimme, J. Chem. Theory Comput., 2019, 155, 2847-2862
     DOI: 10.1021/acs.jctc.9b00143
   
   for SPH calculations refer to:
   * S. Spicher and S. Grimme, J. Chem. Theory Comput., 2021, 17, 1701-1714
     DOI: 10.1021/acs.jctc.0c01306
   
   with help from (in alphabetical order)
   P. Atkinson, C. Bannwarth, F. Bohle, G. Brandenburg, E. Caldeweyher
   M. Checinski, S. Dohm, S. Ehlert, S. Ehrlich, I. Gerasimov, C. Hölzer
   A. Katbashev, J. Koopman, C. Lavigne, S. Lehtola, F. März, M. Müller,
   F. Musil, H. Neugebauer, J. Pisarek, C. Plett, P. Pracht, F. Pultar,
   J. Seibert, P. Shushkov, S. Spicher, M. Stahn, M. Steiner, T. Strunk,
   J. Stückrath, T. Rose, and J. Unsleber
   
 * started run on 2022/11/17 at 06:48:47.985     

           -------------------------------------------------
          |                Calculation Setup                |
           -------------------------------------------------

          program call               : xtb solvent_cluster.coord --gfn2 --input xcontrol --opt 1
          hostname                   : cn0363
          coordinate file            : solvent_cluster.coord
          omp threads                :                     2

   ID    Z sym.   atoms
    1    8 o      1, 4, 7, 10, 13, 16, 19, 22, 25, 28, 31, 34, 37, 40, 43,
                  46, 49, 52, 55, 58, 61, 64, 67, 70, 73, 76, 79, 82, 85, 88,
                  91, 94, 97, 100, 103, 106, 109, 112, 115, 118, 121, 124,
                  127, 130, 133, 136, 139, 142, 145, 148, 151, 154, 157, 160,
                  163, 166, 169, 172, 175, 178, 181, 184, 187, 190, 193, 196,
                  199, 202, 205, 208, 211, 214, 217, 220, 223, 226, 229, 232,
                  235, 238, 241, 244, 247, 250, 253, 256, 259, 262, 265, 268,
                  271, 274, 277, 280, 283, 286, 289, 292, 295, 298, 301, 304,
                  307, 310, 313, 316, 319, 322, 325, 328, 331, 334, 337, 340,
                  343, 346, 349, 352, 355, 358, 361, 364, 367, 370, 373, 376,
                  379, 382, 385, 388, 391, 394, 397, 400, 403, 406, 409, 412,
                  415, 418, 421, 424, 427, 430, 433, 436, 439, 442, 445, 448,
                  451, 454, 457, 460, 463, 466, 469, 472, 475, 478, 481, 484,
                  487, 490, 493, 496, 499, 502, 505, 508, 511, 514, 517, 520,
                  523, 526, 529
    2    1 h      2, 3, 5, 6, 8, 9, 11, 12, 14, 15, 17, 18, 20, 21, 23, 24,
                  26, 27, 29, 30, 32, 33, 35, 36, 38, 39, 41, 42, 44, 45, 47,
                  48, 50, 51, 53, 54, 56, 57, 59, 60, 62, 63, 65, 66, 68, 69,
                  71, 72, 74, 75, 77, 78, 80, 81, 83, 84, 86, 87, 89, 90, 92,
                  93, 95, 96, 98, 99, 101, 102, 104, 105, 107, 108, 110, 111,
                  113, 114, 116, 117, 119, 120, 122, 123, 125, 126, 128, 129,
                  131, 132, 134, 135, 137, 138, 140, 141, 143, 144, 146, 147,
                  149, 150, 152, 153, 155, 156, 158, 159, 161, 162, 164, 165,
                  167, 168, 170, 171, 173, 174, 176, 177, 179, 180, 182, 183,
                  185, 186, 188, 189, 191, 192, 194, 195, 197, 198, 200, 201,
                  203, 204, 206, 207, 209, 210, 212, 213, 215, 216, 218, 219,
                  221, 222, 224, 225, 227, 228, 230, 231, 233, 234, 236, 237,
                  239, 240, 242, 243, 245, 246, 248, 249, 251, 252, 254, 255,
                  257, 258, 260, 261, 263, 264, 266, 267, 269, 270, 272, 273,
                  275, 276, 278, 279, 281, 282, 284, 285, 287, 288, 290, 291,
                  293, 294, 296, 297, 299, 300, 302, 303, 305, 306, 308, 309,
                  311, 312, 314, 315, 317, 318, 320, 321, 323, 324, 326, 327,
                  329, 330, 332, 333, 335, 336, 338, 339, 341, 342, 344, 345,
                  347, 348, 350, 351, 353, 354, 356, 357, 359, 360, 362, 363,
                  365, 366, 368, 369, 371, 372, 374, 375, 377, 378, 380, 381,
                  383, 384, 386, 387, 389, 390, 392, 393, 395, 396, 398, 399,
                  401, 402, 404, 405, 407, 408, 410, 411, 413, 414, 416, 417,
                  419, 420, 422, 423, 425, 426, 428, 429, 431, 432, 434, 435,
                  437, 438, 440, 441, 443, 444, 446, 447, 449, 450, 452, 453,
                  455, 456, 458, 459, 461, 462, 464, 465, 467, 468, 470, 471,
                  473, 474, 476, 477, 479, 480, 482, 483, 485, 486, 488, 489,
                  491, 492, 494, 495, 497, 498, 500, 501, 503, 504, 506, 507,
                  509, 510, 512, 513, 515, 516, 518, 519, 521, 522, 524, 525,
                  527, 528, 530, 531

molecular fragmentation (1/2 indicates fragments):
111222222222222222222222222222222222222222222222222222222222222222222222
222222222222222222222222222222222222222222222222222222222222222222222222
222222222222222222222222222222222222222222222222222222222222222222222222
222222222222222222222222222222222222222222222222222222222222222222222222
222222222222222222222222222222222222222222222222222222222222222222222222
222222222222222222222222222222222222222222222222222222222222222222222222
222222222222222222222222222222222222222222222222222222222222222222222222
222222222222222222222222222
# atoms in fragment 1/2:     3   528
 fragment masses (1/2) :       18.02     3170.69
CMA distance (Bohr)    :   4.660
constraining FC (au)   :  0.0500

           -------------------------------------------------
          |                 G F N 2 - x T B                 |
           -------------------------------------------------

        Reference                      10.1021/acs.jctc.8b01176
      * Hamiltonian:
        H0-scaling (s, p, d)           1.850000    2.230000    2.230000
        zeta-weighting                 0.500000
      * Dispersion:
        s8                             2.700000
        a1                             0.520000
        a2                             5.000000
        s9                             5.000000
      * Repulsion:
        kExp                           1.500000    1.000000
        rExp                           1.000000
      * Coulomb:
        alpha                          2.000000
        third order                    shell-resolved
        anisotropic                    true
        a3                             3.000000
        a5                             4.000000
        cn-shift                       1.200000
        cn-exp                         4.000000
        max-rad                        5.000000


          ...................................................
          :                      SETUP                      :
          :.................................................:
          :  # basis functions                1062          :
          :  # atomic orbitals                1062          :
          :  # shells                          708          :
          :  # electrons                      1416          :
          :  max. iterations                   250          :
          :  Hamiltonian                  GFN2-xTB          :
          :  restarted?                      false          :
          :  GBSA solvation                  false          :
          :  PC potential                    false          :
          :  electronic temp.          300.0000000     K    :
          :  accuracy                    1.0000000          :
          :  -> integral cutoff          0.2500000E+02      :
          :  -> integral neglect         0.1000000E-07      :
          :  -> SCF convergence          0.1000000E-05 Eh   :
          :  -> wf. convergence          0.1000000E-03 e    :
          :  Broyden damping             0.4000000          :
          ...................................................

 iter      E             dE          RMSdq      gap      omega  full diag
   1   -906.5369555 -0.906537E+03  0.405E+00    8.61       0.0  T
   2   -906.5881670 -0.512114E-01  0.241E+00    8.05       1.0  T
   3   -906.6099865 -0.218195E-01  0.207E-01    7.06       1.0  T
   4   -906.6135838 -0.359725E-02  0.450E-02    7.35       1.0  T
   5   -906.6136451 -0.613361E-04  0.308E-02    7.31       1.0  T
   6   -906.6136730 -0.278594E-04  0.377E-03    7.34       1.1  T
   7   -906.6136743 -0.135043E-05  0.772E-04    7.33       5.6  T
   8   -906.6136743 -0.237295E-07  0.384E-04    7.33      11.3  T
   9   -906.6136744 -0.100308E-07  0.509E-05    7.33      85.2  T

   *** convergence criteria satisfied after 9 iterations ***

         #    Occupation            Energy/Eh            Energy/eV
      -------------------------------------------------------------
         1        2.0000           -0.6976462             -18.9839
       ...           ...                  ...                  ...
       702        2.0000           -0.3611719              -9.8280
       703        2.0000           -0.3580960              -9.7443
       704        2.0000           -0.3557645              -9.6808
       705        2.0000           -0.3449400              -9.3863
       706        2.0000           -0.3446826              -9.3793
       707        2.0000           -0.3412525              -9.2860
       708        2.0000           -0.3372531              -9.1771 (HOMO)
       709                         -0.0677439              -1.8434 (LUMO)
       710                         -0.0622317              -1.6934
       711                         -0.0472118              -1.2847
       712                         -0.0426338              -1.1601
       713                         -0.0366977              -0.9986
       ...                                ...                  ...
      1062                          0.5411918              14.7266
      -------------------------------------------------------------
                  HL-Gap            0.2695092 Eh            7.3337 eV
             Fermi-level           -0.2024985 Eh           -5.5103 eV

 SCC (total)                   0 d,  0 h,  0 min,  8.752 sec
 SCC setup                      ...        0 min,  0.031 sec (  0.351%)
 Dispersion                     ...        0 min,  0.073 sec (  0.833%)
 classical contributions        ...        0 min,  0.016 sec (  0.180%)
 integral evaluation            ...        0 min,  0.587 sec (  6.708%)
 iterations                     ...        0 min,  3.245 sec ( 37.081%)
 molecular gradient             ...        0 min,  4.771 sec ( 54.518%)
 printout                       ...        0 min,  0.029 sec (  0.329%)

         :::::::::::::::::::::::::::::::::::::::::::::::::::::
         ::                     SUMMARY                     ::
         :::::::::::::::::::::::::::::::::::::::::::::::::::::
         :: total energy            -901.183893978944 Eh    ::
         :: gradient norm              0.108006235272 Eh/a0 ::
         :: HOMO-LUMO gap              7.333718836625 eV    ::
         ::.................................................::
         :: SCC energy              -906.613674354281 Eh    ::
         :: -> isotropic ES            5.105020893022 Eh    ::
         :: -> anisotropic ES         -1.115107355247 Eh    ::
         :: -> anisotropic XC         -0.093360483178 Eh    ::
         :: -> dispersion             -0.525447999899 Eh    ::
         :: repulsion energy           5.338689257646 Eh    ::
         :: add. restraining           0.000000000000 Eh    ::
         :: total charge               0.000000000000 e     ::
         :::::::::::::::::::::::::::::::::::::::::::::::::::::

      ----------------------------------------------------------- 
     |                       L-ANC optimizer                     |
      ----------------------------------------------------------- 
          low memory version by Sebastian Ehlert

          ...................................................
          :                      SETUP                      :
          :.................................................:
          :   energy convergence        0.1000000E-05 Eh    :
          :   grad. convergence         0.8000000E-03 Eh/a0 :
          :   optimization log               true           :
          :   writing optlog all                1     steps :
          :   Hessian reset                    20     steps :
          :   maximium step len.        1.0000000     a0    :
          :   LBFGS images                     20           :
          ...................................................
 * calculating model hessian...
Using Lindh-Hessian (1995)
 Shifting diagonal of input Hessian by   1.000002876157623E-002
 Lowest  eigenvalues of input Hessian
    0.010000   -0.000000   -0.000000   -0.000000   -0.000000   -0.000000
   -0.000000   -0.000000   -0.000000   -0.000000   -0.000000   -0.000000
   -0.000000   -0.000000   -0.000000   -0.000000   -0.000000   -0.000000
 Highest eigenvalues
    0.324638    0.368223    1.266207    1.307534    1.428099    1.496720
 

........................................................................
.............................. CYCLE    1 ..............................
........................................................................
   1   -906.6145417 -0.906615E+03  0.172E-02    7.28       0.0  T
   2   -906.6145763 -0.345774E-04  0.996E-03    7.25       1.0  T
   3   -906.6145814 -0.515078E-05  0.386E-03    7.23       1.1  T
   4   -906.6145816 -0.215029E-06  0.408E-04    7.23      10.6  T
   5   -906.6145816 -0.618547E-08  0.713E-05    7.23      60.9  T
     SCC iter.                  ...        0 min,  1.418 sec
     gradient                   ...        0 min,  4.803 sec
 * total energy  :  -901.1874218 Eh     change       -0.3527778E-02 Eh
   gradient norm :     0.0122199 Eh/a0  converged?    E=F G=F D=F
   step length   :     0.3628972 a0

........................................................................
.............................. CYCLE    2 ..............................
........................................................................
   1   -906.6133118 -0.906613E+03  0.271E-02    7.13       0.0  T
   2   -906.6133711 -0.593094E-04  0.161E-02    7.09       1.0  T
   3   -906.6133798 -0.867207E-05  0.516E-03    7.06       1.0  T
   4   -906.6133805 -0.670230E-06  0.582E-04    7.06       7.5  T
   5   -906.6133805 -0.123709E-07  0.102E-04    7.06      42.7  T
     SCC iter.                  ...        0 min,  1.409 sec
     gradient                   ...        0 min,  4.811 sec
 * total energy  :  -901.1898316 Eh     change       -0.2409847E-02 Eh
   gradient norm :     0.0113335 Eh/a0  converged?    E=F G=F D=F
   step length   :     0.6249399 a0

........................................................................
.............................. CYCLE    3 ..............................
........................................................................
   1   -906.6153292 -0.906615E+03  0.890E-03    7.07       0.0  T
   2   -906.6153312 -0.196501E-05  0.545E-03    7.07       1.0  T
   3   -906.6153316 -0.449744E-06  0.905E-04    7.07       4.8  T
   4   -906.6153317 -0.635213E-07  0.200E-04    7.07      21.7  T
     SCC iter.                  ...        0 min,  1.125 sec
     gradient                   ...        0 min,  4.811 sec
 * total energy  :  -901.1900700 Eh     change       -0.2383982E-03 Eh
   gradient norm :     0.0061202 Eh/a0  converged?    E=F G=F D=F
   step length   :     0.1523930 a0

........................................................................
.............................. CYCLE    4 ..............................
........................................................................
   1   -906.6164105 -0.906616E+03  0.119E-02    7.06       0.0  T
   2   -906.6164129 -0.245695E-05  0.730E-03    7.07       1.0  T
   3   -906.6164136 -0.632924E-06  0.100E-03    7.08       4.3  T
   4   -906.6164137 -0.821694E-07  0.216E-04    7.08      20.1  T
   5   -906.6164137 -0.499313E-09  0.254E-05    7.08     170.8  T
     SCC iter.                  ...        0 min,  1.398 sec
     gradient                   ...        0 min,  4.821 sec
 * total energy  :  -901.1902617 Eh     change       -0.1916759E-03 Eh
   gradient norm :     0.0050536 Eh/a0  converged?    E=F G=F D=F
   step length   :     0.2062035 a0

........................................................................
.............................. CYCLE    5 ..............................
........................................................................
   1   -906.6166727 -0.906617E+03  0.236E-03    7.09       0.0  T
   2   -906.6166732 -0.532501E-06  0.132E-03    7.10       3.3  T
   3   -906.6166733 -0.905129E-07  0.463E-04    7.11       9.4  T
   4   -906.6166733 -0.470743E-08  0.636E-05    7.11      68.3  T
     SCC iter.                  ...        0 min,  1.121 sec
     gradient                   ...        0 min,  4.813 sec
 * total energy  :  -901.1903448 Eh     change       -0.8315184E-04 Eh
   gradient norm :     0.0038089 Eh/a0  converged?    E=F G=F D=F
   step length   :     0.0957019 a0

........................................................................
.............................. CYCLE    6 ..............................
........................................................................
   1   -906.6159496 -0.906616E+03  0.553E-03    7.12       0.0  T
   2   -906.6159511 -0.145795E-05  0.323E-03    7.13       1.3  T
   3   -906.6159513 -0.232384E-06  0.808E-04    7.15       5.4  T
   4   -906.6159514 -0.266901E-07  0.102E-04    7.14      42.5  T
     SCC iter.                  ...        0 min,  1.103 sec
     gradient                   ...        0 min,  4.823 sec
 * total energy  :  -901.1904172 Eh     change       -0.7241965E-04 Eh
   gradient norm :     0.0037264 Eh/a0  converged?    E=F G=F D=F
   step length   :     0.1602342 a0

........................................................................
.............................. CYCLE    7 ..............................
........................................................................
   1   -906.6160368 -0.906616E+03  0.180E-03    7.15       0.0  T
   2   -906.6160369 -0.795560E-07  0.109E-03    7.15       4.0  T
   3   -906.6160369 -0.133900E-07  0.174E-04    7.16      24.9  T
   4   -906.6160369 -0.246928E-08  0.319E-05    7.16     136.0  T
     SCC iter.                  ...        0 min,  1.086 sec
     gradient                   ...        0 min,  4.824 sec
 * total energy  :  -901.1904333 Eh     change       -0.1601604E-04 Eh
   gradient norm :     0.0018506 Eh/a0  converged?    E=F G=F D=F
   step length   :     0.0483692 a0

........................................................................
.............................. CYCLE    8 ..............................
........................................................................
   1   -906.6154676 -0.906615E+03  0.735E-03    7.16       0.0  T
   2   -906.6154681 -0.533529E-06  0.449E-03    7.17       1.0  T
   3   -906.6154683 -0.154546E-06  0.465E-04    7.17       9.3  T
   4   -906.6154683 -0.185090E-07  0.118E-04    7.17      36.7  T
     SCC iter.                  ...        0 min,  1.089 sec
     gradient                   ...        0 min,  4.835 sec
 * total energy  :  -901.1904522 Eh     change       -0.1897763E-04 Eh
   gradient norm :     0.0043122 Eh/a0  converged?    E=F G=F D=F
   step length   :     0.1281864 a0

........................................................................
.............................. CYCLE    9 ..............................
........................................................................
   1   -906.6159059 -0.906616E+03  0.136E-03    7.17       0.0  T
   2   -906.6159059 -0.425731E-07  0.789E-04    7.17       5.5  T
   3   -906.6159060 -0.754176E-08  0.138E-04    7.17      31.3  T
     SCC iter.                  ...        0 min,  0.815 sec
     gradient                   ...        0 min,  4.816 sec
 * total energy  :  -901.1904662 Eh     change       -0.1400506E-04 Eh
   gradient norm :     0.0023096 Eh/a0  converged?    E=F G=F D=F
   step length   :     0.0173746 a0

........................................................................
.............................. CYCLE   10 ..............................
........................................................................
   1   -906.6162174 -0.906616E+03  0.292E-03    7.17       0.0  T
   2   -906.6162175 -0.646353E-07  0.179E-03    7.17       2.4  T
   3   -906.6162175 -0.210756E-07  0.154E-04    7.17      28.2  T
   4   -906.6162175 -0.193700E-08  0.423E-05    7.17     102.5  T
     SCC iter.                  ...        0 min,  1.088 sec
     gradient                   ...        0 min,  4.877 sec
 * total energy  :  -901.1904804 Eh     change       -0.1415229E-04 Eh
   gradient norm :     0.0017590 Eh/a0  converged?    E=F G=F D=F
   step length   :     0.0332548 a0

........................................................................
.............................. CYCLE   11 ..............................
........................................................................
   1   -906.6161391 -0.906616E+03  0.615E-03    7.16       0.0  T
   2   -906.6161393 -0.219490E-06  0.377E-03    7.16       1.2  T
   3   -906.6161394 -0.870084E-07  0.291E-04    7.16      14.9  T
   4   -906.6161394 -0.543446E-08  0.806E-05    7.16      53.8  T
     SCC iter.                  ...        0 min,  1.083 sec
     gradient                   ...        0 min,  4.865 sec
 * total energy  :  -901.1904946 Eh     change       -0.1416956E-04 Eh
   gradient norm :     0.0021634 Eh/a0  converged?    E=F G=F D=F
   step length   :     0.0680194 a0

........................................................................
.............................. CYCLE   12 ..............................
........................................................................
   1   -906.6161223 -0.906616E+03  0.203E-03    7.16       0.0  T
   2   -906.6161223 -0.319581E-07  0.124E-03    7.16       3.5  T
   3   -906.6161223 -0.105975E-07  0.113E-04    7.16      38.5  T
   4   -906.6161223 -0.982254E-09  0.295E-05    7.16     146.9  T
     SCC iter.                  ...        0 min,  1.079 sec
     gradient                   ...        0 min,  4.859 sec
 * total energy  :  -901.1905032 Eh     change       -0.8622717E-05 Eh
   gradient norm :     0.0012829 Eh/a0  converged?    E=F G=F D=F
   step length   :     0.0247284 a0

........................................................................
.............................. CYCLE   13 ..............................
........................................................................
   1   -906.6155984 -0.906616E+03  0.796E-03    7.16       0.0  T
   2   -906.6155989 -0.519336E-06  0.484E-03    7.17       1.0  T
   3   -906.6155990 -0.148728E-06  0.461E-04    7.17       9.4  T
   4   -906.6155991 -0.175017E-07  0.110E-04    7.17      39.6  T
     SCC iter.                  ...        0 min,  1.008 sec
     gradient                   ...        0 min,  4.868 sec
 * total energy  :  -901.1905125 Eh     change       -0.9271872E-05 Eh
   gradient norm :     0.0023390 Eh/a0  converged?    E=F G=F D=F
   step length   :     0.0996561 a0

........................................................................
.............................. CYCLE   14 ..............................
........................................................................
   1   -906.6160463 -0.906616E+03  0.214E-03    7.17       0.0  T
   2   -906.6160463 -0.521342E-07  0.129E-03    7.17       3.4  T
   3   -906.6160463 -0.147403E-07  0.158E-04    7.17      27.4  T
   4   -906.6160463 -0.174282E-08  0.386E-05    7.17     112.6  T
     SCC iter.                  ...        0 min,  1.073 sec
     gradient                   ...        0 min,  4.863 sec
 * total energy  :  -901.1905159 Eh     change       -0.3438728E-05 Eh
   gradient norm :     0.0012221 Eh/a0  converged?    E=F G=F D=F
   step length   :     0.0265836 a0

........................................................................
.............................. CYCLE   15 ..............................
........................................................................
   1   -906.6160831 -0.906616E+03  0.101E-03    7.17       0.0  T
   2   -906.6160831 -0.104012E-07  0.620E-04    7.17       7.0  T
   3   -906.6160831 -0.493014E-08  0.678E-05    7.17      64.0  T
     SCC iter.                  ...        0 min,  0.717 sec
     gradient                   ...        0 min,  4.904 sec
 * total energy  :  -901.1905182 Eh     change       -0.2263114E-05 Eh
   gradient norm :     0.0003529 Eh/a0  converged?    E=F G=T D=F
   step length   :     0.0112165 a0

........................................................................
.............................. CYCLE   16 ..............................
........................................................................
   1   -906.6160871 -0.906616E+03  0.773E-04    7.17       0.0  T
   2   -906.6160871 -0.303237E-08  0.472E-04    7.17       9.2  T
   3   -906.6160871 -0.129239E-08  0.330E-05    7.17     131.4  T
     SCC iter.                  ...        0 min,  0.817 sec
     gradient                   ...        0 min,  4.860 sec
 * total energy  :  -901.1905189 Eh     change       -0.7752333E-06 Eh
   gradient norm :     0.0001403 Eh/a0  converged?    E=T G=T D=F
   step length   :     0.0155050 a0

   *** GEOMETRY OPTIMIZATION CONVERGED AFTER 16 CYCLES ***

------------------------------------------------------------------------
 total energy gain   :        -0.0066250 Eh       -4.1572 kcal/mol
 total RMSD          :         0.0615304 a0        0.0326 Å
 total power (kW/mol):        -1.0871149 (step)   -0.1629 (real)
------------------------------------------------------------------------

 L-ANCopt (total)              0 d,  0 h,  1 min, 46.806 sec
 setup                          ...        0 min,  0.018 sec (  0.017%)
 model hessian                  ...        0 min,  3.862 sec (  3.616%)
 ANC generation                 ...        0 min,  0.989 sec (  0.926%)
 coordinate transformation      ...        0 min,  0.001 sec (  0.001%)
 Rational function              ...        0 min,  0.000 sec (  0.000%)
 singlepoint calculation        ...        1 min, 41.850 sec ( 95.361%)
 optimization log               ...        0 min,  0.080 sec (  0.075%)
 hessian update                 ...        0 min,  0.000 sec (  0.000%)

================
 final structure:
================
$coord
        0.23059615789200       -4.44862947833400       -1.15381182422700      o
       -0.66809976301700       -3.91037174915600        0.38618026386800      h
       -1.10521387710400       -5.32644076485800       -2.07923861921100      h
        3.92651398058900       -6.92463692393000        3.92940727101500      o
        4.13346096977000       -8.30036147320500        5.15502664135600      h
        2.43973026316400       -7.38398480955100        2.97130970423800      h
        6.60953130865800        3.18760044621000        2.07192644615900      o
        6.57981459596400        3.23245578806600        0.21552505941000      h
        8.19689875676100        3.97880434525900        2.51689430211000      h
        1.95926356737200       -4.11293411342000       -7.00104264627700      o
        0.11841299662000       -4.14599107697900       -7.20795879928800      h
        2.38187521020800       -5.51586331959900       -5.87524233184200      h
       -8.53981065664100       -2.23080581901800        3.26506590343700      o
       -9.15331727160800       -0.55854305889900        3.71262136963300      h
       -9.89412172000700       -3.45314058053100        3.55909465081700      h
        7.92686674555900       -6.40737821292600       -5.19010076056600      o
        6.85146887245300       -6.41806000979700       -6.65297024157800      h
        6.84074968376400       -6.11970340562300       -3.73251567026900      h
       -2.64247027659500       -3.02169426932700        2.61762172376800      o
       -1.68327129873300       -3.14237411807900        4.17563623746800      h
       -3.95382939603300       -4.32745925873700        2.68706396246100      h
        9.33728309735000       -6.32750837347000        3.48028660282900      o
        9.83415569898100       -5.65184086028200        1.86270539648700      h
        7.52607106189700       -6.55051786068800        3.43399834679200      h
       -4.10542081248900       -6.34443428445900       -2.75271814703500      o
       -5.10821957542200       -4.97232211924600       -2.02280365996800      h
       -4.88338599357000       -7.91788119712500       -2.19631013528400      h
        0.81732721205700        5.02222962075100        7.74638305451700      o
        1.49371777936900        5.83544447318100        6.23185711494900      h
        1.73575250852600        3.41620146092400        7.85059421260800      h
       -2.59864119501300       -0.15349457363300       -4.07214321038700      o
       -2.61164307079300       -1.41700265635000       -5.39831738744800      h
       -3.80799763504600       -0.75827928131300       -2.82555399924000      h
        7.01080448997400        4.88112725100800        7.23931654451700      o
        8.21873118867600        6.18601796966900        6.81584902722400      h
        6.56750339612100        5.24640028239300        9.00113471561500      h
        3.51360991815900        7.26749561309600        3.90400300799000      o
        4.73694575046600        5.95040564347000        3.55372917101500      h
        4.29670770017600        8.48214425464900        5.06323428429300      h
       -6.50356564943900        6.28452086697800        4.86718482139600      o
       -6.38969242612600        4.61551994902400        4.15313428169600      h
       -4.87791399898800        7.10074832316100        4.59825497849200      h
       -1.25580547584400        8.28118553412500       -8.84541716153900      o
       -0.77362647064600        6.82197182358100       -7.78421507039100      h
       -2.68212656492500        9.00304670537100       -7.91027781560400      h
       -3.64543407231800       14.14746736963000       -3.70012074838600      o
       -4.11062841154600       12.51601256543000       -4.48406499761500      h
       -4.97336610023600       15.31244776655700       -4.08005821130700      h
       -4.75499281847400        9.61074856636900       -5.44826934740200      o
       -4.26044216998300        8.41818739206600       -4.08137263400200      h
       -6.38062733874800        9.04246806523800       -6.07572814013200      h
       -3.00006538470700       -4.24863503016000       -7.20278382219200      o
       -3.57620725633600       -5.23189739955900       -5.74807864268400      h
       -4.17692800915100       -4.54163758132800       -8.58440533234600      h
        9.17460756401400        0.63495039658400        8.94370928127200      o
        8.78711748025600        2.24541224655000        8.11900460821000      h
       10.20579808304700        1.03410007357500       10.40591231584700      h
       11.21104543872500       -1.43614133627000        2.16304524820300      o
       12.00722782589000       -1.63412957522000        3.81052955280100      h
        9.41822221499100       -1.77371583540800        2.38726568031300      h
      -10.44072443419100       11.16352855317300       -3.47214278954500      o
       -9.30262702180400       10.30759456217000       -2.26312621577900      h
       -9.85098502418600       10.70454097800800       -5.13541377798400      h
       -1.63099962458700        0.76722694093100       -9.24391883865200      o
       -1.67006705749200        2.13527833093200      -10.47569296156100      h
       -3.40712237351200        0.23905099210000       -9.01707062903600      h
       11.38802744226000        6.62074416368500       11.51312698773200      o
       12.16831710606800        5.00318026345300       11.84273493365900      h
        9.65458229157500        6.44848202547500       12.08078211410700      h
       15.54643837322100       -2.37879564212600       -0.53281232870800      o
       16.56538806391600       -3.10682010882300       -1.89545545041000      h
       16.23648370132200       -3.12029937321900        1.01723013740200      h
       -7.62371035558100        3.92004038419900       -0.72545402385600      o
       -6.88733684739200        3.92254532139200       -2.40769734228600      h
       -9.46015847052800        3.84706448232500       -0.87829224936800      h
        8.16338058366300       -1.66618051387900       -2.44578390500000      o
        9.15483831807100       -0.22455320018900       -1.92799849865100      h
        9.19466866376700       -3.14825957392800       -2.06790956096600      h
       -5.38015662010900       -2.79462909970800        7.07078721220900      o
       -6.47511170396900       -2.39684782581200        5.62899915521700      h
       -5.99052873077000       -1.85583316089600        8.52002756921200      h
       -5.89261338440700        3.40236565739800       -5.47036996128700      o
       -5.90151025083700        3.80111557023400       -7.26103048211100      h
       -4.56833774282000        2.13661130336600       -5.17662354028600      h
      -13.22901865983400        5.03774941576300       -7.04606528160300      o
      -14.69955180783800        4.03045456034900       -7.52771496964900      h
      -12.14298908668100        3.80150110664200       -6.17597194728300      h
        8.34621498909500       -3.03406886796300       13.24080981843400      o
        9.84793661296000       -3.73018843610200       12.41496544900700      h
        7.06093390898900       -4.30703824083400       13.02049863915200      h
       10.63361826167700       -4.61274020901800       -9.47778585856100      o
        9.12342499316800       -5.53416339526800       -9.92166923858400      h
       10.02397779866800       -3.18382019250000       -8.48746625809300      h
      -17.60041402289300      -10.12098864830300        2.23861607394100      o
      -18.29163436652600      -11.77411715348500        2.46333358561200      h
      -16.83796191412300       -9.62099786563000        3.86419920992100      h
       -2.94325310123900        6.42238517713300       -2.10729531253900      o
       -2.21123024145100        5.37991421059900       -3.42053556288500      h
       -1.52090367734200        7.24194534663100       -1.28476807960300      h
        3.15946953521800       -8.59028136696600       -5.15883487982800      o
        1.88672666659900       -9.06338996860900       -3.89994369637100      h
        2.68383992785300       -9.31278543790800       -6.79958365728000      h
        3.69860209847300        0.92125149954500        7.71439032546500      o
        5.03816330637500        1.91510181541100        6.96997265944500      h
        4.20302702311900        0.69026493107400        9.49056187580700      h
        5.92797520418800      -12.73536623040100       -4.25033178390900      o
        7.71168464551900      -12.54524772323000       -4.69572957084400      h
        5.10115930510700      -11.19988346192400       -4.87688504075200      h
        6.63415482328200       -3.60120856818400        7.46228807129800      o
        7.59048828288700       -2.20262302994700        8.16084460243100      h
        5.55308942300400       -4.18970701235300        8.83138368341800      h
       -9.20217874630500       -6.24620754811000       -0.83465842787700      o
      -10.14199757582200       -7.78959099451900       -1.11310882368600      h
      -10.35832462868900       -4.83719976893900       -1.06827664590100      h
       11.58719830043300        2.32864909066600       -0.95010314105300      o
       11.40014434936200        3.87980624469800       -0.00029976684900      h
       11.68342534616900        0.96563997666900        0.32648250796000      h
        2.58664791926200       11.03978586362500       -7.30562130239700      o
        3.90421057152000       11.41802198189700       -8.49485158149100      h
        1.16110055787400       10.20942345840800       -8.17828337653800      h
        5.08343488588300       -5.66647936685700       -0.93509019378500      o
        3.25674528153400       -5.46201622344800       -1.08415706260700      h
        5.61744214915800       -4.42819406771200        0.30657497187200      h
        1.03347393858200       -1.86799633529200       14.30739035536000      o
       -0.05352059043500       -2.44466015338600       15.63003952229500      h
       -0.04575491868300       -1.54570502670500       12.81536059145900      h
        3.77283628646500       -5.25332318777300       11.42720372621500      o
        2.86361164158900       -4.13367725873200       12.56471409523500      h
        2.51484395550200       -6.37278217435100       10.69929378163400      h
       -1.49403943548100       -1.40181066000500       10.11453660442600      o
       -0.52635846597000       -2.15352389651100        8.76124789659300      h
       -2.40644328291800        0.01602279073700        9.29862329949700      h
       -0.07065595524600        4.36674846534400       -5.98627464660900      o
        1.73255075529900        4.36012960326400       -5.76186883257200      h
       -0.54199365615200        2.78544792079700       -6.82609933937800      h
        1.39001484682100       13.16144391635400       -2.71388719027700      o
        1.98139194322100       12.60127103042900       -4.35811827590600      h
       -0.27429213795000       13.85307914856400       -3.01387350658300      h
       -5.70296222838400      -11.08575682088100       -1.45096734296600      o
       -5.47583658810300      -12.21593958326900       -2.88918250077500      h
       -4.64910667627700      -11.73514793946400       -0.09993575933300      h
      -11.80041016029300       -1.73471096528200       -1.31103524289800      o
      -13.37819999691600       -1.95724952901400       -2.22256656588000      h
      -12.31861778168600       -1.40120588099300        0.42389540434900      h
       17.27122423325600        6.99367382472200       -2.18206040958800      o
       15.97669523818900        7.90630041377800       -3.10386651648600      h
       16.96664514155400        5.23327176039300       -2.68395380859700      h
       -6.35688615153300        4.79197420085700      -10.47074344445600      o
       -7.69948631447200        3.76101862143500      -11.21857628424900      h
       -4.96518327960700        4.78018814810700      -11.63512591678600      h
      -16.78683241207300        2.05560825138300        0.10466409422100      o
      -15.17697584113900        2.87141791315800       -0.36409442612900      h
      -17.83193073923800        2.02136970001300       -1.42409761806500      h
        1.97947447004800        8.43995378202800       11.15268498328900      o
        0.50519694667200        9.50096692665900       11.26694403251600      h
        1.46569293926200        7.08595926117500        9.97189505989000      h
      -16.14634192368700       -1.96520064429800       -4.05337904467000      o
      -15.42108812650000       -3.40054223796400       -4.96300282423300      h
      -17.80594240122900       -2.42955348799400       -3.45266152971100      h
       -3.57681075486900        2.37049221654000        7.68771124859000      o
       -2.17455738857700        3.52992512414500        7.42601210755000      h
       -4.17429721961200        1.86723422620200        6.03730203675000      h
       12.00086801386700       -5.26094577344500       10.44160559544800      o
       12.18329482563200       -3.99695241363900        9.10844278285900      h
       10.75070938838200       -6.50423835956200        9.87708324031200      h
       15.44233356021400        1.92691444451000        2.86940857020200      o
       15.30460220267200        0.44731996155700        1.81266994371600      h
       17.06154203376000        2.70799738484600        2.51506361346700      h
      -15.90945720343300        6.22138861087900        7.14711716183700      o
      -15.74291196413100        4.67437723760100        8.11475661501400      h
      -17.18717690061000        5.92774009280000        5.86287176361300      h
       -2.66157160041200        0.26477414146600      -15.32039419551000      o
       -1.53415459122300       -0.94927708401500      -14.51374489693700      h
       -2.16141719317300        1.91864527890000      -14.74471529936900      h
       -0.94705871941700       -8.41315900894900        3.07433111241400      o
       -2.72493033619800       -8.01160919310900        2.78324262025200      h
       -0.82692729502400       -8.95847266585100        4.80455865904000      h
        8.36903436855900       10.04286930394600       -3.11071530114500      o
        8.37132002951100       10.42500532468100       -1.29932347300800      h
        6.90050041152600        8.94647231988000       -3.38549346149200      h
       -7.61774630300600        8.89190283214400       -0.03482205584600      o
       -8.23160184037400        9.29022641411300        1.66539484614300      h
       -7.38022456520500        7.05024952243800       -0.12353552720700      h
      -13.92443944700100       -0.70080821613500        3.22899828783300      o
      -15.29955691746800        0.12033640561200        2.33342503946600      h
      -12.78245963479200        0.62868272797700        3.84710346302500      h
      -12.79781810956900       12.89859403973600        1.19085284881700      o
      -14.23509082382000       11.77271624937200        1.31265781262000      h
      -12.10845422061400       12.68805128946800       -0.48332455517800      h
      -12.60498917130300        4.64454384472200       -0.50795863091300      o
      -12.42443629909600        5.45618012270600        1.14653600175500      h
      -13.22287275288400        5.98319455450500       -1.63456799768800      h
       15.91878045326400        2.23752813357900       -3.32224085233700      o
       14.33862824245300        2.31067990053100       -2.31046160902700      h
       17.11391483659000        1.17936363006200       -2.41312583840100      h
       10.70793120796600        6.27536248231800        2.25151276984200      o
       11.09348608970800        5.67000194887400        3.98346519614200      h
        9.72306945105700        7.82903220406700        2.34319056812800      h
       13.25690223196700       -1.25508183401500       -5.91221121708800      o
       13.48870984195400       -2.78677511633800       -4.97005496513600      h
       14.19642051833400        0.07525202065600       -5.04403975730200      h
        5.10738624841900       10.39698823018200        7.55435168359300      o
        4.30564602908300        9.75789424473800        9.08790900123000      h
        6.91926090607100       10.12625198728300        7.68115358226100      h
       -6.80299795743300       -0.81376765169400       11.66012761489400      o
       -5.61733967272100        0.55263814095100       12.17459508369700      h
       -6.88586386724200       -2.01172592261400       13.01187829461900      h
       -5.00179222572800        1.52465479166700        2.71141761590400      o
       -6.01997495432800        2.08606167732900        1.27054499696400      h
       -4.44417037553700       -0.20237503421800        2.39005494227000      h
       14.84412819950000       -1.66769231448100      -10.58687439970500      o
       14.14033219190100       -1.62188195974300       -8.84005184878900      h
       14.53232688022200       -3.35676864251500      -11.16695198316000      h
       -5.77813937413000       -6.99571575581300        2.71603706875100      o
       -6.58566490480000       -7.28474159377100        4.33144508269300      h
       -7.10399312302300       -6.74611317519600        1.43589415576900      h
        5.48235310886200       -5.74726430194700      -10.27960189389100      o
        4.08614199578400       -5.17547906423600       -9.20580576138100      h
        5.58383923035500       -4.44560935158100      -11.55959322496200      h
        0.25958071006300       -2.77444607956100      -12.25900443000900      o
        1.99680314362000       -2.38316407341500      -12.64884719328300      h
       -0.29251252916700       -1.60552063631800      -10.91642488435700      h
      -12.38073255339800       -0.73891795407100       -9.35098207810400      o
      -11.53213756218500       -0.17522318117000       -7.79320904057700      h
      -14.09177195633800       -0.13520770053500       -9.20747553608000      h
       18.83402368726100       -0.40914849421200       -7.26157044956900      o
       17.96010940190400        1.04939212070500       -6.59739432095000      h
       18.00713319162700       -0.80713924007200       -8.84068452204500      h
       11.53678667900400       -5.37728492018000       -1.28897870139000      o
       12.06986586271700       -5.98950577260300       -2.94084715658400      h
       12.82920116918900       -4.16413477990300       -0.72653680961300      h
      -19.13701331497100       -5.28250350345700        1.56642084865900      o
      -19.19500156733900       -4.56193184983000        3.28859546723500      h
      -19.10694217567100       -7.10818692095700        1.76923074906900      h
       -4.06129064937500        3.14392235826600       12.84935755440400      o
       -4.98292686310800        4.36440879337900       11.79045360244700      h
       -2.37316119970800        3.12830677720400       12.19181509235700      h
        8.40331541287300       -0.39657846427500       -7.17419738350100      o
        8.27584982336500       -1.21080642240700       -5.47826842427100      h
        9.44966530270000        1.06604359643100       -6.82218034558000      h
        4.29283833946300       13.62545430448000        1.61836360334200      o
        3.41454779595000       13.77656461976500        0.02395202771900      h
        2.99834643952800       13.48956992917600        2.93158178131100      h
       10.23666838178200        0.40438683570800      -12.22875309570200      o
        9.42274127350100        0.20891880350300      -10.60082166644900      h
       11.85087631864600       -0.44623325556400      -12.05063312527800      h
        6.11363627832400       -1.88591533033800        2.67044807273100      o
        6.18342493742100       -0.04871624963600        2.76163758850900      h
        6.13925997538100       -2.55115526373900        4.39255155030700      h
      -14.51950007583500       -6.29564344450500       -0.39304979809600      o
      -14.77481775671900       -8.08630613001000       -0.54927924189300      h
      -16.12848824494100       -5.59665598215600        0.15748188801600      h
      -16.89478445691300        1.58490009207900       -7.58753752759500      o
      -16.48890787408400        0.36396258372900       -6.24359224033900      h
      -18.40656263574100        2.38770313354000       -6.96203709055800      h
        3.52869622817900        3.26809496991600      -11.17083418739500      o
        4.84149901981800        4.44786921664000      -10.66797034400200      h
        3.14908875789600        2.33543847235600       -9.61023052974700      h
       13.00327103190300       -1.71066589312600        6.85141172033700      o
       14.49409144281800       -0.71567833243600        7.25575739120000      h
       11.56084123890700       -0.69037796370900        7.44099319214900      h
       20.10052401439200        3.73387513571500        1.55783343411200      o
       20.44849571427200        2.50811898852200        0.21330594251200      h
       19.82456655847200        5.31786699224400        0.71021580122300      h
        8.26783897686800       10.70763843801600        1.90396552470900      o
        6.71875855682100       11.75428751568000        1.96239060631600      h
        9.59811850456300       11.71100761208100        2.64206847191400      h
       12.21860787876600        3.91053427711500        6.23976129454200      o
       13.38846087755200        2.98432700698400        5.14924140353300      h
       13.24115383680700        4.92770926456700        7.34344483170000      h
        1.85366812398600      -14.86329566391400       -2.02530886493500      o
        3.50194102085900      -14.49795874070600       -2.75631756625400      h
        2.14209369767700      -15.09436899272700       -0.24002193688400      h
       14.10608219200500       -7.01471805477800        5.73717755351000      o
       12.47671405872600       -6.61718206806500        4.97746946609200      h
       13.94510735230800       -6.64760425174000        7.51873333710500      h
        2.34129547516800      -12.99891753681900        2.97541278304400      o
        3.58831039036000      -11.99841698261900        2.02709910871800      h
        2.83084208531600      -12.74353554704900        4.71600181024400      h
      -19.22630896573300       -3.47885074823500        6.22070535873000      o
      -20.00462390390700       -1.83029022883600        6.11684590093700      h
      -17.52997499420100       -3.16705373980000        6.91375685455600      h
      -11.49915210321000       -6.36274450096400        9.66135932522900      o
      -12.35371051847500       -4.85936920097400        9.02214661794000      h
      -12.71062755909100       -7.70055875870400        9.47773434803300      h
      -10.76177468567000      -10.85206078054100        4.23415619635700      o
      -11.97254664873500      -11.47192172430100        5.42574685200900      h
       -9.07944732319000      -11.45211760101000        4.81070566448800      h
       -5.89112491341700       -5.82337420054700      -11.25574075348600      o
       -6.49561521313300       -4.53141255200600      -12.40873222878100      h
       -4.42466120237300       -6.60581870241400      -12.02600789554000      h
       10.51801617495800      -10.73340989350100       -4.79123584977900      o
       10.91910175202900      -10.92108311438000       -2.99503673495000      h
        9.52495372155600       -9.16069420537800       -4.91942291057600      h
      -10.46601964661100        1.34625651941300       -5.15704941818600      o
      -10.70990951028400        0.37799990196100       -3.60981690275200      h
       -8.68672417083800        1.86171751730200       -5.28089383130300      h
       -0.16523614317800      -10.14066334483100       -1.78265803900900      o
        0.30017161432800      -11.92097701911800       -1.71100788363400      h
       -0.39670483535100       -9.56075459421700       -0.05766282133900      h
       17.68889352671700       -4.28117124552900        3.54551929234400      o
       16.43498092416100       -5.30049400818900        4.46714805999000      h
       18.26371751802000       -2.92798258319000        4.62736125471500      h
        5.82231924931900      -10.48790844187100        0.29637187886700      o
        5.49138212571700       -8.70089694802800       -0.09961731688900      h
        5.84914314893300      -11.39524172731800       -1.31402296916500      h
       -6.29932117264400      -12.14743389237900        5.92380706003900      o
       -4.95692132897000      -12.34357082672100        4.68867116190900      h
       -6.02123776274900      -10.57895738036800        6.83199567702500      h
       -6.37958514921800       -1.97545969208900       -1.39188190607400      o
       -7.32813000883700       -2.10291454285100        0.17965757032000      h
       -7.54332944371000       -2.36747188872000       -2.76066372277600      h
       -6.85245695251500       -7.36508794236500        7.84602279111500      o
       -6.21140144967700       -5.62094840866700        7.53634987414200      h
       -8.56496639953900       -7.13637292936600        8.49290776893900      h
       17.99519971512000       -4.61111155589000       -4.36373752813900      o
       16.67830587070200       -5.61081921075000       -5.16018723404700      h
       18.43954703382400       -3.24587279676400       -5.52321286046900      h
       10.08501519736500        8.99439419675700        7.22336234383900      o
       10.85313999906200        8.40323772831800        8.79393874030000      h
       11.20601950696100       10.20279115243900        6.43695519323700      h
      -14.97893706241300        1.99079653687300       10.12445803529000      o
      -13.15252710821300        2.36060768503200       10.19342426732400      h
      -15.61042538543700        2.19108217102900       11.80675269889700      h
       -1.80674817924000        8.34701964498600        4.16554831588900      o
       -2.24412779207500        9.39284460787300        2.71533090518700      h
       -1.00716137537700        6.82604511312500        3.51318623971100      h
      -23.82697912378200        0.21856397570800        1.29053956853700      o
      -22.85467280793600        0.30595297897000        2.84004035679800      h
      -22.87408040474000       -0.82515849622900        0.13278390874200      h
      -11.99476950389000       -5.90671704449300        3.94541467201400      o
      -11.18647795957800       -7.56146333423300        4.01326538880400      h
      -12.83420521792600       -5.84794909101000        2.28619405282100      h
      -20.18113487983200        2.38259833028400       -3.65839217580900      o
      -21.28449471978400        3.54925629438400       -2.70941232319800      h
      -20.93374432132600        0.73378083064300       -3.49662012687400      h
       13.55191809205900       -6.74348102335300       -5.92131313541300      o
       12.49242928938400       -6.03870532135100       -7.28008920489100      h
       13.03561782303300       -8.50099416724700       -5.78781418139500      h
       -0.01263425189500       -7.63989577292100        8.70347967730100      o
        0.15359990676800       -6.11578497364000        7.69295738596200      h
       -1.34478141275400       -7.27545962878300        9.94912171660600      h
       -2.20259873997600       -9.48329870580600       -6.48277769721200      o
       -1.94074281593300       -9.32119358549200       -4.67321271968500      h
       -1.59573110983600      -11.16621208383000       -6.90712264374300      h
       -3.54282628452300       11.57558313238900        0.76659593460200      o
       -5.00372520372500       10.51074869600400        0.30601075356100      h
       -3.35793575408000       12.76157600441900       -0.61367617497400      h
       11.02933877563100        4.04772335417400       -6.18387294798000      o
       11.70770779020200        5.49679043993700       -5.24835962698000      h
       12.44053097481900        3.62263597060100       -7.31114463743200      h
       -1.04044184948500       -7.62851103428000      -11.27429274039500      o
       -0.45627170147100       -5.90787926582500      -11.61838143668500      h
       -1.53208066196900       -7.69334338176200       -9.50578622067000      h
       -2.69435453122100      -13.33445050397700        2.27504338489500      o
       -0.88488191102500      -13.04214108274400        2.58761184390300      h
       -2.90073474907100      -15.12003583619600        2.07586477279800      h
       14.72788051814600        3.56305439750000       -9.58093196238300      o
       15.04461645895400        1.91483238811100      -10.28410513237100      h
       13.66720917637300        4.43702874741800      -10.80408532898800      h
       21.26971144791800       -4.47598449752000       -0.18038474215600      o
       20.14866435436000       -4.74227758464100        1.25192451051300      h
       20.47452234871200       -5.28622291668400       -1.61015203450000      h
       -5.26357625873800      -14.15864034425800       -5.51216978257900      o
       -6.31382739292300      -13.52810656962100       -6.84845402653900      h
       -3.62920774411200      -14.54019522569800       -6.22781939155900      h
      -12.02260469903800        6.72277906688600        4.02778288375400      o
      -13.41197552479900        6.78230646211100        5.25708712350900      h
      -10.87563332162100        8.09310759441900        4.44205241944800      h
      -21.12850564138000       -2.86296058866900       -2.25413102804200      o
      -20.43469640154200       -3.78753787190300       -0.78550907837600      h
      -22.30229686778300       -3.97744875431700       -3.06306036374300      h
      -15.74616946710800       -8.16074441331800        6.50649295606500      o
      -14.43723066841500       -7.07408629029100        5.74047789619700      h
      -17.08155408624300       -7.04195026464300        7.01745594132300      h
      -18.91457621894000        5.44224313682700        2.97203176871200      o
      -18.29092130338300        7.05755231545700        2.32554288330500      h
      -18.05209658007600        4.14418419000100        1.91389159144900      h
        7.27294020249500        6.04284194789500       -9.00237882198500      o
        8.46481150437200        5.29086551451600       -7.79840692908800      h
        7.24122505736500        7.85933359305700       -8.65369134399300      h
       12.97286503033000       12.10914859871300        4.11707960712400      o
       14.05751560979800       10.79303181773200        3.38275885305400      h
       13.97381168646600       13.60412975928000        4.27816935236400      h
        6.79743581800900        3.33960765131900       -2.96952970258000      o
        8.54409384182500        3.44051540215500       -3.47786811908700      h
        5.93991160428900        4.78775360849800       -3.69103991789100      h
      -10.06635007294200        2.68229318527400       10.08236963621600      o
       -9.08457928728800        4.22486414571200       10.27099791778700      h
       -9.00148829430000        1.31347108490600       10.71958900123600      h
       20.62948092610800       -0.15498921609000        5.21591391361000      o
       22.18246855070800       -0.99601170466000        4.81658311621300      h
       20.52613452002800        1.30256513327900        4.11066282912500      h
       -8.59957070982200       -3.82204652123600       -5.64715021597900      o
       -7.96069820630600       -5.53908154424500       -5.80748365547700      h
      -10.42471341398900       -3.98672175444600       -5.77414431319300      h
      -11.94257286603700       -9.98793775133100       -5.89380148553600      o
      -11.87916311010800      -10.56546650379500       -4.15929615210600      h
      -10.18869816533700       -9.71194805082900       -6.37185458101500      h
       -6.44195492735300       -0.46469308790800       -8.90811665754500      o
       -7.24003982843100       -1.65294912615900       -7.75064257976600      h
       -6.89488585375000       -0.97813398311900      -10.60795077437800      h
       -7.11871288592400       -1.62739018434000      -13.91906196120400      o
       -5.55169144702100       -0.93517683280600      -14.63373251734200      h
       -8.40003353791100       -0.35000402058100      -14.14190773560500      h
        2.84179692963400      -10.47086816334500       -9.81156874919400      o
        1.37806479288200       -9.68524545348000      -10.64410328969900      h
        4.27100622729000       -9.50254935406700      -10.39644239247900      h
       -2.90117516860000        9.91359313134500        9.09210201039300      o
       -2.26016774681500        8.87297230232500        7.72950062385500      h
       -3.69297514503900       11.31772159899700        8.21746074179400      h
      -17.12831589834400        9.63647034643900        0.60522344214100      o
      -16.34735880884200        9.02939786414900       -0.96096788890700      h
      -18.49346912639400       10.71831583201400        0.11524957176000      h
        8.53469817996300       -8.46665624237100        8.34998348303900      o
        8.09832225424800       -7.01215140499400        7.31655731087200      h
        9.50350064475600       -9.63017226004800        7.27041734540900      h
       10.89813685531400      -10.48619954247500        0.29580958448600      o
        9.06251836653000      -10.51789452177100        0.55744280772800      h
       11.35653680262100       -8.71395730288900        0.23390725330900      h
      -10.28444551869100        2.33827218066800      -12.63247222717000      o
      -11.60136747769500        3.50226310593900      -13.05610333407000      h
      -11.02130889902600        1.12298402221600      -11.39849987828300      h
       12.70214392659300        9.72933282412800       -9.74248164235200      o
       12.23394117218900        8.31060412233100      -10.81243612754600      h
       14.10582451540000       10.53798224889700      -10.54640170365600      h
        3.54983168229900        0.58412202236400       -6.93045571024700      o
        5.38997744177400        0.34487403351400       -7.09420687030300      h
        2.81123217671900       -1.09354636554100       -7.18866935495300      h
        5.27116763917600       -1.20098991404100      -13.01673676605100      o
        7.01944553928900       -0.95310677068800      -13.47167399785800      h
        4.66635364131100        0.48582862290800      -12.55954238906600      h
      -22.95976828690600        4.97956441344400       -0.40011789319900      o
      -23.76418319430400        3.43013251646500        0.19738365439200      h
      -21.75213274999800        5.42579066889600        0.90760440688600      h
       11.42357497183500      -11.49106281513300        5.44097606121600      o
       11.17409389870600      -11.43828492724700        3.62137815937100      h
       12.99558747516900      -10.60785027950700        5.71516290571500      h
       20.46537023662000        0.12526101310600       -1.91306992008700      o
       20.87954097536200       -1.55015427401400       -1.18840900948800      h
       21.06422294714600        0.10141375481600       -3.62444068174800      h
       -1.17631687933800        4.71545481886400      -12.51218026148700      o
       -1.35047205448700        6.25937479229500      -11.51437741769200      h
        0.62970074167600        4.33682858821300      -12.43540809104300      h
        4.03612238231900      -10.63370225999500        7.36216251015800      o
        2.68164619469900       -9.93854013057900        8.37027809169300      h
        5.64067896114800      -10.13181218217900        8.13880635895000      h
        4.18773955611800        7.38782913139500       -4.27569818608600      o
        3.09393403922900        7.73172923133500       -2.79946072682700      h
        3.65212669777200        8.62730462189600       -5.54409927951200      h
      -14.52697915193900       -2.59881309865800        7.81752383161700      o
      -14.09060120742900       -2.13960306174200        6.07125679550200      h
      -14.68675531673500       -1.01145975792700        8.73134492532800      h
       -9.13933412822800        8.21786399891800       -7.78234481164200      o
       -8.10007679732900        7.23045755594300       -8.93124770497500      h
      -10.66900494533700        7.22790547953600       -7.59068410309200      h
       13.09612851995900        1.57494370506400       12.14475517296400      o
       14.55594677915700        1.35147447605700       11.05095677221700      h
       13.17902593168900        0.29603865801000       13.42387528613800      h
       10.90915200003100        5.53019472888900      -12.45999826976700      o
       10.70338864655700        3.78598794475800      -13.00348894206100      h
        9.40059646176000        5.81896971290900      -11.41367934914700      h
       -7.15312602453900       -8.60496488964800       -7.17868796988700      o
       -7.06202110045300       -7.84085637731300       -8.84307897735400      h
       -5.40938208871600       -9.05309536732500       -6.75248197569900      h
      -13.44550122297400       -5.31415758095900       -6.60367331563000      o
      -13.07756984757800       -7.13302350936200       -6.35902181038500      h
      -13.29696377334900       -4.92424357634000       -8.36946807634900      h
        0.98373796863500       12.71095013455400        5.38658168039900      o
        0.11451478017000       11.12649170525600        5.05377900913600      h
        2.40315820921700       12.27781872240700        6.45126578700700      h
       -9.25195575958800       10.99556247636200        4.29754144405200      o
      -10.48685229879300       12.05774995150000        3.42363129417200      h
       -7.96867086200900       12.06225724306400        5.02066659931700      h
       -4.47794148618600       13.47476986142600        5.47130542722100      o
       -2.95929267387600       14.39936624071900        5.84283655820700      h
       -4.20002240988200       12.82400005831700        3.76092437910100      h
        7.81828933163200       11.02357746438300       -8.18190590087000      o
        7.98919463527200       11.16948207184900       -6.35857875185300      h
        9.51413435244700       11.07816130685600       -8.85994668516200      h
      -10.31485990441100        2.18883201746000        5.04518526722000      o
      -10.13768710564000        2.24941776749800        6.88084699331200      h
      -10.63886422954000        3.94856155969400        4.54642141236400      h
       12.87220309674700        8.44104093002800       -4.58140126108200      o
       11.29589255120300        9.15384420335800       -3.90266382724000      h
       13.01537653791100        9.03709732254900       -6.30593083308200      h
       16.87755260307300        1.29134188589300        8.51793669686400      o
       18.39033265299400        0.57065923826700        7.79358279870200      h
       16.84943629437100        3.02958975051200        7.90608035859300      h
        1.36305226532200        8.59120402244800       -0.42925208483100      o
        2.17497099686400        8.32848730121200        1.21609481518500      h
        1.26568547106500       10.39559041766100       -0.79198741608800      h
      -14.48319346337700        8.23665039574800       -3.44207867208800      o
      -14.29768610011700        7.18887628372400       -4.96572767488200      h
      -13.09713864443100        9.48051122038000       -3.50872179163600      h
       15.44621953142900        8.04413185593000        2.34608443718800      o
       13.77949084433400        7.25967197059800        2.12387595075400      h
       16.30314946980100        7.76563555489900        0.71835128157200      h
        5.07775132911000        0.74846449259700       12.55567990638900      o
        6.48180785489500       -0.45021378885400       12.76492523261500      h
        3.69880865666800        0.06440603116600       13.54377812946800      h
      -21.07728931738300        1.50015499286600        5.64686138497300      o
      -22.26652516531000        2.15651392786600        6.84251978590300      h
      -20.30092285031300        2.94979740682700        4.82730399053800      h
        1.24367747775100       -3.25693502702700        6.06208380515100      o
        2.43745593905500       -4.43173455752800        5.24741112514900      h
        2.25112313575200       -1.76894265959200        6.47607185785000      h
      -10.80922210773000      -11.11819108156700       -0.92138232716200      o
      -11.06883227314000      -11.25397865263500        0.88865699879100      h
       -8.98505573463200      -11.31534804821400       -1.15185845022900      h
       -3.57350308609300       -5.88179307723800       11.76495477243300      o
       -4.98299389697900       -6.54334110350800       10.80080799295900      h
       -3.26642216542000       -4.16708465023600       11.15709351909800      h
       16.88036791509100        6.22238258990900        6.87280317600900      o
       18.29277506558000        7.19191838288700        7.44341474575100      h
       16.49325897035000        6.79324988719300        5.14836379779400      h
       -0.10847263845000      -14.10803551271300       -7.02030508075900      o
        0.60487834945900      -14.66755842002700       -5.43414743709900      h
        1.27526162292000      -13.62136450364500       -8.10558505783100      h
       -6.63211755924700        6.45887200462800        9.90906971663900      o
       -6.67325359313400        6.23960938400900        8.05698733955400      h
       -5.52701898849500        7.91043107578000       10.12936921212400      h
        6.24326311338500        5.67813242693000       12.17691023231000      o
        4.74434189216700        6.70308115205100       12.38748244926500      h
        5.79738244137700        3.94074895055000       12.61697460979300      h
        1.87394837472361        1.45143212283459       -0.72953657886685      o
        3.28698366692125        0.38012370835981       -0.36610122008875      h
        0.91513380125477        0.65327775309210       -2.05373445084819      h
       -0.69030493764441        3.89537634689796        2.79007206794506      o
        0.40677233380279        3.17360601641327        1.50166746085587      h
       -2.32542566744983        3.11102381517333        2.47976521710434      h
$end
 
 Bond Distances (Angstroems)
 ---------------------------
O1-H2=0.9856         O1-H3=0.9774         H2-O1=0.9856         H3-O1=0.9774         O4-H5=0.9811         O4-H6=0.9670         
H5-O4=0.9811         H6-O4=0.9670         O7-H8=0.9828         O7-H9=0.9676         H8-O7=0.9828         H9-O7=0.9676         
O10-H11=0.9804       O10-H12=0.9778       H11-O10=0.9804       H12-O10=0.9778       O13-H14=0.9719       O13-H15=0.9779       
H14-O13=0.9719       H15-O13=0.9779       O16-H17=0.9608       O16-H18=0.9739       H17-O16=0.9608       H18-O16=0.9739       
O19-H20=0.9703       O19-H21=0.9800       H20-O19=0.9703       H21-O19=0.9800       O22-H23=0.9642       O22-H24=0.9660       
H23-O22=0.9642       H24-O22=0.9660       O25-H26=0.9788       O25-H27=0.9744       H26-O25=0.9788       H27-O25=0.9744       
O28-H29=0.9776       O28-H30=0.9806       H29-O28=0.9776       H30-O28=0.9806       O31-H32=0.9693       O31-H33=0.9732       
H32-O31=0.9693       H33-O31=0.9732       O34-H35=0.9673       O34-H36=0.9806       H35-O34=0.9673       H36-O34=0.9806       
O37-H38=0.9691       O37-H39=0.9804       H38-O37=0.9691       H39-O37=0.9804       O40-H41=0.9625       O40-H42=0.9731       
H41-O40=0.9625       H42-O40=0.9731       O43-H44=0.9883       O43-H45=0.9800       H44-O43=0.9883       H45-O43=0.9800       
O46-H47=0.9890       O46-H48=0.9562       H47-O46=0.9890       H48-O46=0.9562       O49-H50=0.9950       O49-H51=0.9699       
H50-O49=0.9950       H51-O49=0.9699       O52-H53=0.9779       O52-H54=0.9728       H53-O52=0.9779       H54-O52=0.9728       
O55-H56=0.9792       O55-H57=0.9701       H56-O55=0.9792       H57-O55=0.9701       O58-H59=0.9739       O58-H60=0.9727       
H59-O58=0.9739       H60-O58=0.9727       O61-H62=0.9885       O61-H63=0.9649       H62-O61=0.9885       H63-O61=0.9649       
O64-H65=0.9744       O64-H66=0.9879       H65-O64=0.9744       H66-O64=0.9879       O67-H68=0.9662       O67-H69=0.9695       
H68-O67=0.9662       H69-O67=0.9695       O70-H71=0.9793       O70-H72=0.9799       H71-O70=0.9793       H72-O70=0.9799       
O73-H74=0.9718       O73-H75=0.9759       H74-O73=0.9718       H75-O73=0.9759       O76-H77=0.9656       O76-H78=0.9762       
H77-O76=0.9656       H78-O76=0.9762       O79-H80=0.9809       O79-H81=0.9692       H80-O79=0.9809       H81-O79=0.9692       
O82-H83=0.9708       O82-H84=0.9818       H83-O82=0.9708       H84-O82=0.9818       O85-H86=0.9771       O85-H87=0.9850       
H86-O85=0.9771       H87-O85=0.9850       O88-H89=0.9789       O88-H90=0.9643       H89-O88=0.9789       H90-O88=0.9643       
O91-H92=0.9652       O91-H93=0.9749       H92-O91=0.9652       H93-O91=0.9749       O94-H95=0.9556       O94-H96=0.9863       
H95-O94=0.9556       H96-O94=0.9863       O97-H98=0.9681       O97-H99=0.9716       H98-O97=0.9681       H99-O97=0.9716       
O100-H101=0.9798     O100-H102=0.9815     H101-O100=0.9798     H102-O100=0.9815     O103-H104=0.9666     O103-H105=0.9847     
H104-O103=0.9666     H105-O103=0.9847     O106-H107=0.9781     O106-H108=0.9806     H107-O106=0.9781     H108-O106=0.9806     
O109-H110=0.9698     O109-H111=0.9742     H110-O109=0.9698     H111-O109=0.9742     O112-H113=0.9675     O112-H114=0.9724     
H113-O112=0.9675     H114-O112=0.9724     O115-H116=0.9676     O115-H117=0.9895     H116-O115=0.9676     H117-O115=0.9895     
O118-H119=0.9603     O118-H120=0.9876     H119-O118=0.9603     H120-O118=0.9876     O121-H122=0.9759     O121-H123=0.9700     
H122-O121=0.9759     H123-O121=0.9700     O124-H125=0.9560     O124-H126=0.9893     H125-O124=0.9560     H126-O124=0.9893     
O127-H128=0.9720     O127-H129=0.9708     H128-O127=0.9720     H129-O127=0.9708     O130-H131=0.9661     O130-H132=0.9912     
H131-O130=0.9661     H132-O130=0.9912     O133-H134=0.9616     O133-H135=0.9798     H134-O133=0.9616     H135-O133=0.9798     
O136-H137=0.9710     O136-H138=0.9669     H137-O136=0.9710     H138-O136=0.9669     O139-H140=0.9754     O139-H141=0.9697     
H140-O139=0.9754     H141-O139=0.9697     O142-H143=0.9714     O142-H144=0.9743     H143-O142=0.9714     H144-O142=0.9743     
O145-H146=0.9698     O145-H147=0.9820     H146-O145=0.9698     H147-O145=0.9820     O148-H149=0.9793     O148-H150=0.9602     
H149-O148=0.9793     H150-O148=0.9602     O151-H152=0.9867     O151-H153=0.9801     H152-O151=0.9867     H153-O151=0.9801     
O154-H155=0.9631     O154-H156=0.9888     H155-O154=0.9631     H156-O154=0.9888     O157-H158=0.9777     O157-H159=0.9658     
H158-O157=0.9777     H159-O157=0.9658     O160-H161=0.9727     O160-H162=0.9663     H161-O160=0.9727     H162-O160=0.9663     
O163-H164=0.9769     O163-H165=0.9797     H164-O163=0.9769     H165-O163=0.9797     O166-H167=0.9649     O166-H168=0.9696     
H167-O166=0.9649     H168-O166=0.9696     O169-H170=0.9696     O169-H171=0.9712     H170-O169=0.9696     H171-O169=0.9712     
O172-H173=0.9751     O172-H174=0.9637     H173-O172=0.9751     H174-O172=0.9637     O175-H176=0.9767     O175-H177=0.9621     
H176-O175=0.9767     H177-O175=0.9621     O178-H179=0.9796     O178-H180=0.9806     H179-O178=0.9796     H180-O178=0.9806     
O181-H182=0.9795     O181-H183=0.9838     H182-O181=0.9795     H183-O181=0.9838     O184-H185=0.9710     O184-H186=0.9834     
H185-O184=0.9710     H186-O184=0.9834     O187-H188=0.9683     O187-H189=0.9646     H188-O187=0.9683     H189-O187=0.9646     
O190-H191=0.9799     O190-H192=0.9819     H191-O190=0.9799     H192-O190=0.9819     O193-H194=0.9937     O193-H195=0.9721     
H194-O193=0.9937     H195-O193=0.9721     O196-H197=0.9921     O196-H198=0.9746     H197-O196=0.9921     H198-O196=0.9746     
O199-H200=0.9595     O199-H201=0.9766     H200-O199=0.9595     H201-O199=0.9766     O202-H203=0.9762     O202-H204=0.9718     
H203-O202=0.9762     H204-O202=0.9718     O205-H206=0.9953     O205-H207=0.9568     H206-O205=0.9953     H207-O205=0.9568     
O208-H209=0.9798     O208-H210=0.9753     H209-O208=0.9798     H210-O208=0.9753     O211-H212=0.9969     O211-H213=0.9594     
H212-O211=0.9969     H213-O211=0.9594     O214-H215=0.9679     O214-H216=0.9842     H215-O214=0.9679     H216-O214=0.9842     
O217-H218=0.9800     O217-H219=0.9675     H218-O217=0.9800     H219-O217=0.9675     O220-H221=0.9646     O220-H222=0.9863     
H221-O220=0.9646     H222-O220=0.9863     O223-H224=0.9850     O223-H225=0.9631     H224-O223=0.9850     H225-O223=0.9631     
O226-H227=0.9660     O226-H228=0.9665     H227-O226=0.9660     H228-O226=0.9665     O229-H230=0.9740     O229-H231=0.9841     
H230-O229=0.9740     H231-O229=0.9841     O232-H233=0.9884     O232-H234=0.9722     H233-O232=0.9884     H234-O232=0.9722     
O235-H236=0.9844     O235-H237=0.9587     H236-O235=0.9844     H237-O235=0.9587     O238-H239=0.9978     O238-H240=0.9697     
H239-O238=0.9978     H240-O238=0.9697     O241-H242=0.9666     O241-H243=0.9784     H242-O241=0.9666     H243-O241=0.9784     
O244-H245=0.9687     O244-H246=0.9701     H245-O244=0.9687     H246-O244=0.9701     O247-H248=0.9741     O247-H249=0.9770     
H248-O247=0.9741     H249-O247=0.9770     O250-H251=0.9607     O250-H252=0.9730     H251-O250=0.9607     H252-O250=0.9730     
O253-H254=0.9846     O253-H255=0.9644     H254-O253=0.9846     H255-O253=0.9644     O256-H257=0.9712     O256-H258=0.9828     
H257-O256=0.9712     H258-O256=0.9828     O259-H260=0.9723     O259-H261=0.9856     H260-O259=0.9723     H261-O259=0.9856     
O262-H263=0.9802     O262-H264=0.9618     H263-O262=0.9802     H264-O262=0.9618     O265-H266=0.9898     O265-H267=0.9644     
H266-O265=0.9898     H267-O265=0.9644     O268-H269=0.9780     O268-H270=0.9611     H269-O268=0.9780     H270-O268=0.9611     
O271-H272=0.9735     O271-H273=0.9648     H272-O271=0.9735     H273-O271=0.9648     O274-H275=0.9743     O274-H276=0.9663     
H275-O274=0.9743     H276-O274=0.9663     O277-H278=0.9837     O277-H279=0.9663     H278-O277=0.9837     H279-O277=0.9663     
O280-H281=0.9663     O280-H282=0.9836     H281-O280=0.9663     H282-O280=0.9836     O283-H284=0.9756     O283-H285=0.9600     
H284-O283=0.9756     H285-O283=0.9600     O286-H287=0.9569     O286-H288=0.9932     H287-O286=0.9569     H288-O286=0.9932     
[...]
   160   8 o      162   1 h                                       0.9662535
   163   8 o      164   1 h                                       0.9769423
   163   8 o      165   1 h                                       0.9796726
   166   8 o      167   1 h                                       0.9649132
   166   8 o      168   1 h                                       0.9696351
   169   8 o      170   1 h                                       0.9696092
   169   8 o      171   1 h                                       0.9711640
   172   8 o      173   1 h                                       0.9751335
   172   8 o      174   1 h                                       0.9637494
   175   8 o      176   1 h                                       0.9767302
   175   8 o      177   1 h                                       0.9620969
   178   8 o      179   1 h                                       0.9796461
   178   8 o      180   1 h                                       0.9806472
   181   8 o      182   1 h                                       0.9795095
   181   8 o      183   1 h                                       0.9837537
   184   8 o      185   1 h                                       0.9710479
   184   8 o      186   1 h                                       0.9834326
   187   8 o      188   1 h                                       0.9682917
   187   8 o      189   1 h                                       0.9645583
   190   8 o      191   1 h                                       0.9798650
   190   8 o      192   1 h                                       0.9819076
   193   8 o      194   1 h                                       0.9936604
   193   8 o      195   1 h                                       0.9720957
   196   8 o      197   1 h                                       0.9920871
   196   8 o      198   1 h                                       0.9746415
   199   8 o      200   1 h                                       0.9594726
   199   8 o      201   1 h                                       0.9766445
   202   8 o      203   1 h                                       0.9761888
   202   8 o      204   1 h                                       0.9717669
   205   8 o      206   1 h                                       0.9952933
   205   8 o      207   1 h                                       0.9568018
   208   8 o      209   1 h                                       0.9797625
   208   8 o      210   1 h                                       0.9753023
   211   8 o      212   1 h                                       0.9968801
   211   8 o      213   1 h                                       0.9593575
   214   8 o      215   1 h                                       0.9678559
   214   8 o      216   1 h                                       0.9841780
   217   8 o      218   1 h                                       0.9799617
   217   8 o      219   1 h                                       0.9675385
   220   8 o      221   1 h                                       0.9646454
   220   8 o      222   1 h                                       0.9862753
   223   8 o      224   1 h                                       0.9849696
   223   8 o      225   1 h                                       0.9631486
   226   8 o      227   1 h                                       0.9659764
   226   8 o      228   1 h                                       0.9664906
   229   8 o      230   1 h                                       0.9739819
   229   8 o      231   1 h                                       0.9841003
   232   8 o      233   1 h                                       0.9883682
   232   8 o      234   1 h                                       0.9721832
   235   8 o      236   1 h                                       0.9843661
   235   8 o      237   1 h                                       0.9587294
   238   8 o      239   1 h                                       0.9978029 (max)
   238   8 o      240   1 h                                       0.9697132
   241   8 o      242   1 h                                       0.9665820
   241   8 o      243   1 h                                       0.9784366
   244   8 o      245   1 h                                       0.9686757
   244   8 o      246   1 h                                       0.9701348
   247   8 o      248   1 h                                       0.9741011
   247   8 o      249   1 h                                       0.9770225
   250   8 o      251   1 h                                       0.9607253
   250   8 o      252   1 h                                       0.9729542
   253   8 o      254   1 h                                       0.9845560
   253   8 o      255   1 h                                       0.9643835
   256   8 o      257   1 h                                       0.9711795
   256   8 o      258   1 h                                       0.9828225
   259   8 o      260   1 h                                       0.9723106
   259   8 o      261   1 h                                       0.9856340
   262   8 o      263   1 h                                       0.9802381
   262   8 o      264   1 h                                       0.9618280
   265   8 o      266   1 h                                       0.9897932
   265   8 o      267   1 h                                       0.9643795
   268   8 o      269   1 h                                       0.9779977
   268   8 o      270   1 h                                       0.9610597
   271   8 o      272   1 h                                       0.9735493
   271   8 o      273   1 h                                       0.9647634
   274   8 o      275   1 h                                       0.9743232
   274   8 o      276   1 h                                       0.9663285
   277   8 o      278   1 h                                       0.9836644
   277   8 o      279   1 h                                       0.9663139
   280   8 o      281   1 h                                       0.9662830
   280   8 o      282   1 h                                       0.9836275
   283   8 o      284   1 h                                       0.9756112
   283   8 o      285   1 h                                       0.9600066
   286   8 o      287   1 h                                       0.9569311
   286   8 o      288   1 h                                       0.9932056
   289   8 o      290   1 h                                       0.9705698
   289   8 o      291   1 h                                       0.9694271
   292   8 o      293   1 h                                       0.9789668
   292   8 o      294   1 h                                       0.9866055
   295   8 o      296   1 h                                       0.9744525
   295   8 o      297   1 h                                       0.9824657
   298   8 o      299   1 h                                       0.9744990
   298   8 o      300   1 h                                       0.9707887
   301   8 o      302   1 h                                       0.9844283
   301   8 o      303   1 h                                       0.9659368
   304   8 o      305   1 h                                       0.9842892
   304   8 o      306   1 h                                       0.9782403
   307   8 o      308   1 h                                       0.9708734
   307   8 o      309   1 h                                       0.9703235
   310   8 o      311   1 h                                       0.9737032
   310   8 o      312   1 h                                       0.9731019
   313   8 o      314   1 h                                       0.9968880
   313   8 o      315   1 h                                       0.9762509
   316   8 o      317   1 h                                       0.9711458
   316   8 o      318   1 h                                       0.9765729
   319   8 o      320   1 h                                       0.9766427
   319   8 o      321   1 h                                       0.9664275
   322   8 o      323   1 h                                       0.9867829
   322   8 o      324   1 h                                       0.9567734
   325   8 o      326   1 h                                       0.9740573
   325   8 o      327   1 h                                       0.9726328
   328   8 o      329   1 h                                       0.9691270
   328   8 o      330   1 h                                       0.9667839
   331   8 o      332   1 h                                       0.9751983
   331   8 o      333   1 h                                       0.9844858
   334   8 o      335   1 h                                       0.9870335
   334   8 o      336   1 h                                       0.9629267
   337   8 o      338   1 h                                       0.9851083
   337   8 o      339   1 h                                       0.9719072
   340   8 o      341   1 h                                       0.9716857
   340   8 o      342   1 h                                       0.9841920
   343   8 o      344   1 h                                       0.9713498
   343   8 o      345   1 h                                       0.9729603
   346   8 o      347   1 h                                       0.9872010
   346   8 o      348   1 h                                       0.9679627
   349   8 o      350   1 h                                       0.9807876
   349   8 o      351   1 h                                       0.9818918
   352   8 o      353   1 h                                       0.9786526
   352   8 o      354   1 h                                       0.9719486
   355   8 o      356   1 h                                       0.9839475
   355   8 o      357   1 h                                       0.9570036
   358   8 o      359   1 h                                       0.9629587
   358   8 o      360   1 h                                       0.9735940
   361   8 o      362   1 h                                       0.9727609
   361   8 o      363   1 h                                       0.9660995
   364   8 o      365   1 h                                       0.9592943
   364   8 o      366   1 h                                       0.9654982
   367   8 o      368   1 h                                       0.9822026
   367   8 o      369   1 h                                       0.9707140
   370   8 o      371   1 h                                       0.9890187
   370   8 o      372   1 h                                       0.9575384
   373   8 o      374   1 h                                       0.9872987
   373   8 o      375   1 h                                       0.9607206
   376   8 o      377   1 h                                       0.9780646
   376   8 o      378   1 h                                       0.9968341
   379   8 o      380   1 h                                       0.9808460
   379   8 o      381   1 h                                       0.9789394
   382   8 o      383   1 h                                       0.9825979
   382   8 o      384   1 h                                       0.9558665
   385   8 o      386   1 h                                       0.9641204
   385   8 o      387   1 h                                       0.9689944
   388   8 o      389   1 h                                       0.9727337
   388   8 o      390   1 h                                       0.9777118
   391   8 o      392   1 h                                       0.9581696
   391   8 o      393   1 h                                       0.9695251
   394   8 o      395   1 h                                       0.9731790
   394   8 o      396   1 h                                       0.9720730
   397   8 o      398   1 h                                       0.9679850
   397   8 o      399   1 h                                       0.9729930
   400   8 o      401   1 h                                       0.9741229
   400   8 o      402   1 h                                       0.9697387
   403   8 o      404   1 h                                       0.9822576
   403   8 o      405   1 h                                       0.9646654
   406   8 o      407   1 h                                       0.9833060
   406   8 o      408   1 h                                       0.9645492
   409   8 o      410   1 h                                       0.9686206
   409   8 o      411   1 h                                       0.9705061
   412   8 o      413   1 h                                       0.9802480
   412   8 o      414   1 h                                       0.9575195
   415   8 o      416   1 h                                       0.9720135
   415   8 o      417   1 h                                       0.9840152
   418   8 o      419   1 h                                       0.9813281
   418   8 o      420   1 h                                       0.9692478
   421   8 o      422   1 h                                       0.9567170
   421   8 o      423   1 h                                       0.9960039
   424   8 o      425   1 h                                       0.9724210
   424   8 o      426   1 h                                       0.9569949
   427   8 o      428   1 h                                       0.9857751
   427   8 o      429   1 h                                       0.9795891
   430   8 o      431   1 h                                       0.9649166
   430   8 o      432   1 h                                       0.9786466
   433   8 o      434   1 h                                       0.9764476
   433   8 o      435   1 h                                       0.9711000
   436   8 o      437   1 h                                       0.9722994
   436   8 o      438   1 h                                       0.9651454
   439   8 o      440   1 h                                       0.9905213
   439   8 o      441   1 h                                       0.9595464
   442   8 o      443   1 h                                       0.9771354
   442   8 o      444   1 h                                       0.9773248
   445   8 o      446   1 h                                       0.9662599
   445   8 o      447   1 h                                       0.9800030
   448   8 o      449   1 h                                       0.9891447
   448   8 o      450   1 h                                       0.9803388
   451   8 o      452   1 h                                       0.9830097
   451   8 o      453   1 h                                       0.9729220
   454   8 o      455   1 h                                       0.9721614
   454   8 o      456   1 h                                       0.9695135
   457   8 o      458   1 h                                       0.9725067
   457   8 o      459   1 h                                       0.9581789
   460   8 o      461   1 h                                       0.9728774
   460   8 o      462   1 h                                       0.9834605
   463   8 o      464   1 h                                       0.9703384
   463   8 o      465   1 h                                       0.9790659
   466   8 o      467   1 h                                       0.9904950
   466   8 o      468   1 h                                       0.9601509
   469   8 o      470   1 h                                       0.9724221
   469   8 o      471   1 h                                       0.9665143
   472   8 o      473   1 h                                       0.9781811
   472   8 o      474   1 h                                       0.9623999
   475   8 o      476   1 h                                       0.9611829
   475   8 o      477   1 h                                       0.9794989
   478   8 o      479   1 h                                       0.9721634
   478   8 o      480   1 h                                       0.9669053
   481   8 o      482   1 h                                       0.9764310
   481   8 o      483   1 h                                       0.9829590
   484   8 o      485   1 h                                       0.9834056
   484   8 o      486   1 h                                       0.9685222
   487   8 o      488   1 h                                       0.9660312
   487   8 o      489   1 h                                       0.9752759
   490   8 o      491   1 h                                       0.9808210
   490   8 o      492   1 h                                       0.9753051
   493   8 o      494   1 h                                       0.9834372
   493   8 o      495   1 h                                       0.9861427
   496   8 o      497   1 h                                       0.9818682
   496   8 o      498   1 h                                       0.9845263
   499   8 o      500   1 h                                       0.9831863
   499   8 o      501   1 h                                       0.9679398
   502   8 o      503   1 h                                       0.9576044
   502   8 o      504   1 h                                       0.9722878
   505   8 o      506   1 h                                       0.9855992
   505   8 o      507   1 h                                       0.9758198
   508   8 o      509   1 h                                       0.9702979
   508   8 o      510   1 h                                       0.9785592
   511   8 o      512   1 h                                       0.9691155
   511   8 o      513   1 h                                       0.9763312
   514   8 o      515   1 h                                       0.9555264 (min)
   514   8 o      516   1 h                                       0.9828225
   517   8 o      518   1 h                                       0.9667927
   517   8 o      519   1 h                                       0.9655711
   520   8 o      521   1 h                                       0.9871642
   520   8 o      522   1 h                                       0.9724197
   523   8 o      524   1 h                                       0.9673420
   523   8 o      525   1 h                                       0.9773272
   526   8 o      527   1 h                                       0.9578628
   526   8 o      528   1 h                                       0.9627356
   529   8 o      530   1 h                                       0.9735305
   529   8 o      531   1 h                                       0.9736170

 * 1 distinct bonds (by element types)

   Z      Z             #   av. dist./Å        max./Å        min./Å
   1 H    8 O         354     0.9742153     0.9978029     0.9555264


optimized geometry written to: xtbopt.coord


           -------------------------------------------------
          | TOTAL ENERGY             -901.190518941962 Eh   |
          | GRADIENT NORM               0.006057610453 Eh/α |
          | HOMO-LUMO GAP               7.173116941755 eV   |
           -------------------------------------------------

------------------------------------------------------------------------
 * finished run on 2022/11/17 at 06:50:50.289     
------------------------------------------------------------------------
 total:
 * wall-time:     0 d,  0 h,  2 min,  2.304 sec
 *  cpu-time:     0 d,  0 h,  3 min,  9.046 sec
 * ratio c/w:     1.546 speedup
 SCF:
 * wall-time:     0 d,  0 h,  0 min,  8.759 sec
 *  cpu-time:     0 d,  0 h,  0 min, 13.387 sec
 * ratio c/w:     1.528 speedup
 ANC optimizer:
 * wall-time:     0 d,  0 h,  1 min, 52.907 sec
 *  cpu-time:     0 d,  0 h,  2 min, 54.603 sec
 * ratio c/w:     1.546 speedup

