      -----------------------------------------------------------      
     |                   =====================                   |     
     |                           x T B                           |     
     |                   =====================                   |     
     |                         S. Grimme                         |     
     |          Mulliken Center for Theoretical Chemistry        |     
     |                    University of Bonn                     |     
      -----------------------------------------------------------      

   * xtb version 6.5.1 (579679a) compiled by 'ehlert@majestix' on 2022-07-11

   xtb is free software: you can redistribute it and/or modify it under
   the terms of the GNU Lesser General Public License as published by
   the Free Software Foundation, either version 3 of the License, or
   (at your option) any later version.
   
   xtb is distributed in the hope that it will be useful,
   but WITHOUT ANY WARRANTY; without even the implied warranty of
   MERCHANTABILITY or FITNESS FOR A PARTICULAR PURPOSE.  See the
   GNU Lesser General Public License for more details.
   
   Cite this work as:
   * C. Bannwarth, E. Caldeweyher, S. Ehlert, A. Hansen, P. Pracht,
     J. Seibert, S. Spicher, S. Grimme, WIREs Comput. Mol. Sci., 2020, 11,
     e01493. DOI: 10.1002/wcms.1493
   
   for GFN2-xTB:
   * C. Bannwarth, S. Ehlert and S. Grimme., J. Chem. Theory Comput., 2019,
     15, 1652-1671. DOI: 10.1021/acs.jctc.8b01176
   for GFN1-xTB:
   * S. Grimme, C. Bannwarth, P. Shushkov, J. Chem. Theory Comput., 2017,
     13, 1989-2009. DOI: 10.1021/acs.jctc.7b00118
   for GFN0-xTB:
   * P. Pracht, E. Caldeweyher, S. Ehlert, S. Grimme, ChemRxiv, 2019, preprint.
     DOI: 10.26434/chemrxiv.8326202.v1
   for GFN-FF:
   * S. Spicher and S. Grimme, Angew. Chem. Int. Ed., 2020, 59, 15665-15673.
     DOI: 10.1002/anie.202004239
   
   for ALPB and GBSA implicit solvation:
   * S. Ehlert, M. Stahn, S. Spicher, S. Grimme, J. Chem. Theory Comput.,
     2021, 17, 4250-4261. DOI: 10.1021/acs.jctc.1c00471
   
   for DFT-D4:
   * E. Caldeweyher, C. Bannwarth and S. Grimme, J. Chem. Phys., 2017,
     147, 034112. DOI: 10.1063/1.4993215
   * E. Caldeweyher, S. Ehlert, A. Hansen, H. Neugebauer, S. Spicher,
     C. Bannwarth and S. Grimme, J. Chem. Phys., 2019, 150, 154122.
     DOI: 10.1063/1.5090222
   * E. Caldeweyher, J.-M. Mewes, S. Ehlert and S. Grimme, Phys. Chem. Chem. Phys.
     2020, 22, 8499-8512. DOI: 10.1039/D0CP00502A
   
   for sTDA-xTB:
   * S. Grimme and C. Bannwarth, J. Chem. Phys., 2016, 145, 054103.
     DOI: 10.1063/1.4959605
   
   in the mass-spec context:
   * V. Asgeirsson, C. Bauer and S. Grimme, Chem. Sci., 2017, 8, 4879.
     DOI: 10.1039/c7sc00601b
   * J. Koopman and S. Grimme, ACS Omega 2019, 4, 12, 15120-15133.
     DOI: 10.1021/acsomega.9b02011
   
   for metadynamics refer to:
   * S. Grimme, J. Chem. Theory Comput., 2019, 155, 2847-2862
     DOI: 10.1021/acs.jctc.9b00143
   
   for SPH calculations refer to:
   * S. Spicher and S. Grimme, J. Chem. Theory Comput., 2021, 17, 1701-1714
     DOI: 10.1021/acs.jctc.0c01306
   
   with help from (in alphabetical order)
   P. Atkinson, C. Bannwarth, F. Bohle, G. Brandenburg, E. Caldeweyher
   M. Checinski, S. Dohm, S. Ehlert, S. Ehrlich, I. Gerasimov, C. Hölzer
   A. Katbashev, J. Koopman, C. Lavigne, S. Lehtola, F. März, M. Müller,
   F. Musil, H. Neugebauer, J. Pisarek, C. Plett, P. Pracht, F. Pultar,
   J. Seibert, P. Shushkov, S. Spicher, M. Stahn, M. Steiner, T. Strunk,
   J. Stückrath, T. Rose, and J. Unsleber
   
 * started run on 2022/11/17 at 06:54:59.739     

           -------------------------------------------------
          |                Calculation Setup                |
           -------------------------------------------------

          program call               : xtb solvent_cluster.coord --gfn2 --sp --lmo --chrg 0
          hostname                   : cn0363
          coordinate file            : solvent_cluster.coord
          omp threads                :                     2

   ID    Z sym.   atoms
    1    8 o      1, 4, 7, 10, 13, 16, 19, 22, 25, 28, 31, 34, 37, 40, 43,
                  46, 49, 52, 55, 58, 61, 64, 67, 70, 73, 76, 79, 82, 85, 88,
                  91, 94, 97, 100, 103, 106, 109, 112, 115, 118, 121, 124,
                  127, 130, 133, 136, 139, 142, 145, 148, 151, 154, 157, 160,
                  163, 166, 169, 172, 175, 178, 181, 184, 187, 190, 193, 196,
                  199, 202, 205, 208, 211, 214, 217, 220, 223, 226, 229, 232,
                  235, 238, 241, 244, 247, 250, 253, 256, 259, 262, 265, 268,
                  271, 274, 277, 280, 283, 286, 289, 292, 295, 298, 301, 304,
                  307, 310, 313, 316, 319, 322, 325, 328, 331, 334, 337, 340,
                  343, 346, 349, 352, 355, 358, 361, 364, 367, 370, 373, 376,
                  379, 382, 385, 388, 391, 394, 397, 400, 403, 406, 409, 412,
                  415, 418, 421, 424, 427, 430, 433, 436, 439, 442, 445, 448,
                  451, 454, 457, 460, 463, 466, 469, 472, 475, 478, 481, 484,
                  487, 490, 493, 496, 499, 502, 505, 508, 511, 514, 517, 520,
                  523, 526, 529
    2    1 h      2, 3, 5, 6, 8, 9, 11, 12, 14, 15, 17, 18, 20, 21, 23, 24,
                  26, 27, 29, 30, 32, 33, 35, 36, 38, 39, 41, 42, 44, 45, 47,
                  48, 50, 51, 53, 54, 56, 57, 59, 60, 62, 63, 65, 66, 68, 69,
                  71, 72, 74, 75, 77, 78, 80, 81, 83, 84, 86, 87, 89, 90, 92,
                  93, 95, 96, 98, 99, 101, 102, 104, 105, 107, 108, 110, 111,
                  113, 114, 116, 117, 119, 120, 122, 123, 125, 126, 128, 129,
                  131, 132, 134, 135, 137, 138, 140, 141, 143, 144, 146, 147,
                  149, 150, 152, 153, 155, 156, 158, 159, 161, 162, 164, 165,
                  167, 168, 170, 171, 173, 174, 176, 177, 179, 180, 182, 183,
                  185, 186, 188, 189, 191, 192, 194, 195, 197, 198, 200, 201,
                  203, 204, 206, 207, 209, 210, 212, 213, 215, 216, 218, 219,
                  221, 222, 224, 225, 227, 228, 230, 231, 233, 234, 236, 237,
                  239, 240, 242, 243, 245, 246, 248, 249, 251, 252, 254, 255,
                  257, 258, 260, 261, 263, 264, 266, 267, 269, 270, 272, 273,
                  275, 276, 278, 279, 281, 282, 284, 285, 287, 288, 290, 291,
                  293, 294, 296, 297, 299, 300, 302, 303, 305, 306, 308, 309,
                  311, 312, 314, 315, 317, 318, 320, 321, 323, 324, 326, 327,
                  329, 330, 332, 333, 335, 336, 338, 339, 341, 342, 344, 345,
                  347, 348, 350, 351, 353, 354, 356, 357, 359, 360, 362, 363,
                  365, 366, 368, 369, 371, 372, 374, 375, 377, 378, 380, 381,
                  383, 384, 386, 387, 389, 390, 392, 393, 395, 396, 398, 399,
                  401, 402, 404, 405, 407, 408, 410, 411, 413, 414, 416, 417,
                  419, 420, 422, 423, 425, 426, 428, 429, 431, 432, 434, 435,
                  437, 438, 440, 441, 443, 444, 446, 447, 449, 450, 452, 453,
                  455, 456, 458, 459, 461, 462, 464, 465, 467, 468, 470, 471,
                  473, 474, 476, 477, 479, 480, 482, 483, 485, 486, 488, 489,
                  491, 492, 494, 495, 497, 498, 500, 501, 503, 504, 506, 507,
                  509, 510, 512, 513, 515, 516, 518, 519, 521, 522, 524, 525,
                  527, 528, 530, 531

molecular fragmentation (1/2 indicates fragments):
111222222222222222222222222222222222222222222222222222222222222222222222
222222222222222222222222222222222222222222222222222222222222222222222222
222222222222222222222222222222222222222222222222222222222222222222222222
222222222222222222222222222222222222222222222222222222222222222222222222
222222222222222222222222222222222222222222222222222222222222222222222222
222222222222222222222222222222222222222222222222222222222222222222222222
222222222222222222222222222222222222222222222222222222222222222222222222
222222222222222222222222222
# atoms in fragment 1/2:     3   528
 fragment masses (1/2) :       18.02     3170.69
CMA distance (Bohr)    :   4.658
constraining FC (au)   :  0.0500

           -------------------------------------------------
          |                 G F N 2 - x T B                 |
           -------------------------------------------------

        Reference                      10.1021/acs.jctc.8b01176
      * Hamiltonian:
        H0-scaling (s, p, d)           1.850000    2.230000    2.230000
        zeta-weighting                 0.500000
      * Dispersion:
        s8                             2.700000
        a1                             0.520000
        a2                             5.000000
        s9                             5.000000
      * Repulsion:
        kExp                           1.500000    1.000000
        rExp                           1.000000
      * Coulomb:
        alpha                          2.000000
        third order                    shell-resolved
        anisotropic                    true
        a3                             3.000000
        a5                             4.000000
        cn-shift                       1.200000
        cn-exp                         4.000000
        max-rad                        5.000000


          ...................................................
          :                      SETUP                      :
          :.................................................:
          :  # basis functions                1062          :
          :  # atomic orbitals                1062          :
          :  # shells                          708          :
          :  # electrons                      1416          :
          :  max. iterations                   250          :
          :  Hamiltonian                  GFN2-xTB          :
          :  restarted?                      false          :
          :  GBSA solvation                  false          :
          :  PC potential                    false          :
          :  electronic temp.          300.0000000     K    :
          :  accuracy                    1.0000000          :
          :  -> integral cutoff          0.2500000E+02      :
          :  -> integral neglect         0.1000000E-07      :
          :  -> SCF convergence          0.1000000E-05 Eh   :
          :  -> wf. convergence          0.1000000E-03 e    :
          :  Broyden damping             0.4000000          :
          ...................................................

 iter      E             dE          RMSdq      gap      omega  full diag
   1   -906.5382670 -0.906538E+03  0.405E+00    8.75       0.0  T
   2   -906.5903996 -0.521325E-01  0.241E+00    8.01       1.0  T
   3   -906.6123442 -0.219446E-01  0.208E-01    6.88       1.0  T
   4   -906.6159948 -0.365062E-02  0.453E-02    7.19       1.0  T
   5   -906.6160575 -0.627602E-04  0.309E-02    7.15       1.0  T
   6   -906.6160857 -0.281772E-04  0.384E-03    7.18       1.1  T
   7   -906.6160871 -0.139846E-05  0.776E-04    7.17       5.6  T
   8   -906.6160871 -0.238357E-07  0.387E-04    7.17      11.2  T
   9   -906.6160871 -0.102218E-07  0.520E-05    7.17      83.5  T

   *** convergence criteria satisfied after 9 iterations ***

         #    Occupation            Energy/Eh            Energy/eV
      -------------------------------------------------------------
         1        2.0000           -0.6978764             -18.9902
       ...           ...                  ...                  ...
       702        2.0000           -0.3572449              -9.7211
       703        2.0000           -0.3557178              -9.6796
       704        2.0000           -0.3541767              -9.6376
       705        2.0000           -0.3435799              -9.3493
       706        2.0000           -0.3406400              -9.2693
       707        2.0000           -0.3362341              -9.1494
       708        2.0000           -0.3312416              -9.0135 (HOMO)
       709                         -0.0676365              -1.8405 (LUMO)
       710                         -0.0620014              -1.6871
       711                         -0.0473322              -1.2880
       712                         -0.0423596              -1.1527
       713                         -0.0367299              -0.9995
       ...                                ...                  ...
      1062                          0.4869647              13.2510
      -------------------------------------------------------------
                  HL-Gap            0.2636051 Eh            7.1731 eV
             Fermi-level           -0.1994391 Eh           -5.4270 eV
 
 localization/xTB-IFF output generation
 averaging CT terms over            3  occ. levels
 averaging CT terms over            2  virt. levels
 dipole moment from electron density (au)
     X       Y       Z   
  -1.7629   0.6054   0.8532  total (Debye):    5.211
cpu  time for init local    0.40 s
wall time for init local    0.20 s
 doing rotations ...
 initialization of trafo matrix to unity

 converged in     16 iterations, threshold :   0.99998904D-06
 doing transformations ...
 lmo centers(Z=2) and atoms on file <lmocent.coord>
 LMO Fii/eV  ncent    charge center   contributions...
    1 LP   *******   0.00  11.38759  -6.73419  -0.12168  229O :  8.16  118O :  5.59   43O :  4.48  112O :  4.37   91O :  4.32   79O :  4.06  469O :  3.62   10O :  3.50  106O :  3.45  304O :  3.45  493O :  3.37  490O :  3.28
  148O :  3.11  460O :  2.88  448O :  2.73  202O :  2.61  103O :  2.57  418O :  2.42  292O :  2.32   49O :  2.31  466O :  2.31   31O :  2.27  247O :  2.19  157O :  2.14
   64O :  2.06  427O :  2.05  160O :  2.04    1O :  2.02   34O :  1.98  529O :  1.94  451O :  1.89  187O :  1.87   28O :  1.86  178O :  1.77  196O :  1.77  181O :  1.70
  502O :  1.64  352O :  1.63  475O :  1.61  136O :  1.59  184O :  1.59    7O :  1.58  253O :  1.58  445O :  1.57  142O :  1.56  265O :  1.55   40O :  1.54  268O :  1.52
   25O :  1.52  526O :  1.51  367O :  1.48  169O :  1.48  310O :  1.40  403O :  1.39  358O :  1.39  385O :  1.38   97O :  1.37  262O :  1.37  508O :  1.37   13O :  1.36
  166O :  1.35  394O :  1.32   88O :  1.29   76O :  1.28   46O :  1.28  484O :  1.25  523O :  1.21  154O :  1.20  250O :  1.16   19O :  1.13   58O :  1.12  211O :  1.10
  406O :  1.10  364O :  1.10  163O :  1.08  199O :  1.06  346O :  1.05  172O :  1.02  388O :  1.01  313O :  1.00  286O :  1.00  274O :  0.98  145O :  0.98  151O :  0.98
  472O :  0.97  280O :  0.96  307O :  0.96  277O :  0.92  496O :  0.91  481O :  0.90  256O :  0.88  397O :  0.87   16O :  0.87   94O :  0.84  130O :  0.82  334O :  0.82
  214O :  0.80  361O :  0.76  454O :  0.75  409O :  0.73  208O :  0.73  421O :  0.73   37O :  0.73  382O :  0.71  340O :  0.70  301O :  0.69  190O :  0.68   70O :  0.68
   85O :  0.68  376O :  0.67  271O :  0.66  223O :  0.65  298O :  0.62  295O :  0.61  433O :  0.61   82O :  0.59   61O :  0.59  133O :  0.58  175O :  0.55   93H :  0.52
  127O :  0.52  337O :  0.52  217O :  0.52  430O :  0.48  499O :  0.48  238O :  0.47  220O :  0.45   33H :  0.45  283O :  0.44  143H :  0.42  259O :  0.41  514O :  0.41
  331O :  0.41  109O :  0.41  349O :  0.39  511O :  0.38  478O :  0.38  528H :  0.38  391O :  0.37  244O :  0.37  463O :  0.37  520O :  0.37  355O :  0.35  183H :  0.35
  241O :  0.35   52O :  0.34  442O :  0.34  470H :  0.33  343O :  0.33  322O :  0.32   67O :  0.32  100O :  0.32  492H :  0.31  505O :  0.31   80H :  0.31  249H :  0.31
  491H :  0.31   98H :  0.30  396H :  0.30  254H :  0.29  193O :  0.29  369H :  0.29  420H :  0.29   44H :  0.29  226O :  0.28  373O :  0.28  121O :  0.27  232O :  0.27
  436O :  0.26  412O :  0.26   65H :  0.26  411H :  0.24  138H :  0.24  354H :  0.24  487O :  0.24  205O :  0.23  139O :  0.23  267H :  0.23   22O :  0.23  328O :  0.22
  306H :  0.22  161H :  0.22  312H :  0.22   12H :  0.22  197H :  0.22  379O :  0.21  319O :  0.21   15H :  0.21  439O :  0.20   56H :  0.20  115O :  0.19  415O :  0.19
  359H :  0.18  517O :  0.18   55O :  0.17   29H :  0.17   18H :  0.17  457O :  0.16    4O :  0.16  287H :  0.15   92H :  0.15  522H :  0.15  316O :  0.15  308H :  0.14
  203H :  0.14  135H :  0.14  422H :  0.13  325O :  0.13  339H :  0.13  360H :  0.13  269H :  0.12   78H :  0.12  189H :  0.12  132H :  0.12  384H :  0.12  303H :  0.11
    2H :  0.11  131H :  0.11  356H :  0.11  257H :  0.11   59H :  0.10  305H :  0.10  456H :  0.10   24H :  0.10   62H :  0.10  245H :  0.10  407H :  0.10  311H :  0.10
  179H :  0.10   84H :  0.10  399H :  0.10  216H :  0.10  173H :  0.09  405H :  0.09   73O :  0.09  509H :  0.09   60H :  0.09  424O :  0.09  289O :  0.09  147H :  0.09
  279H :  0.09  174H :  0.09  162H :  0.09  504H :  0.09  471H :  0.08   51H :  0.08  531H :  0.08  344H :  0.08  177H :  0.08  124O :  0.08  488H :  0.08  182H :  0.08
   47H :  0.08  170H :  0.08  153H :  0.08  521H :  0.07  525H :  0.07  363H :  0.07   38H :  0.07   71H :  0.07
    2 LP   *******   0.00   3.27311   9.74550  -6.16446  118O :  8.58  229O :  4.94   43O :  4.38  112O :  4.29   91O :  4.25   79O :  3.99  469O :  3.55   10O :  3.44  106O :  3.39  304O :  3.39  493O :  3.31  490O :  3.23
  148O :  3.05  460O :  2.83  448O :  2.68  202O :  2.56  103O :  2.52  418O :  2.34  292O :  2.28   49O :  2.27  466O :  2.26   31O :  2.23  247O :  2.15  157O :  2.10
   64O :  2.03  427O :  2.01  160O :  2.00    1O :  1.98   34O :  1.95  529O :  1.90  451O :  1.86  187O :  1.84   28O :  1.82  178O :  1.74  196O :  1.74  181O :  1.67
  502O :  1.61  352O :  1.61  475O :  1.58  136O :  1.56  184O :  1.56    7O :  1.55  253O :  1.55  445O :  1.55  142O :  1.53  265O :  1.52   40O :  1.51  268O :  1.49
   25O :  1.49  526O :  1.49  367O :  1.46  169O :  1.46  310O :  1.38  403O :  1.37  358O :  1.37   97O :  1.35  262O :  1.35  508O :  1.34  385O :  1.34   13O :  1.33
  166O :  1.32  394O :  1.30   88O :  1.27   46O :  1.26   76O :  1.26  484O :  1.22  523O :  1.19  154O :  1.18  250O :  1.14   19O :  1.11   58O :  1.10  406O :  1.08
  211O :  1.08  364O :  1.08  163O :  1.06  199O :  1.04  346O :  1.03  172O :  1.00  388O :  1.00  313O :  0.98  286O :  0.98  274O :  0.96  145O :  0.96  151O :  0.96
  472O :  0.95  280O :  0.95  307O :  0.94  277O :  0.91  496O :  0.89  481O :  0.88  256O :  0.87   16O :  0.86  397O :  0.86   94O :  0.82  130O :  0.81  334O :  0.80
  214O :  0.79  361O :  0.75  454O :  0.74  409O :  0.72  208O :  0.72   37O :  0.72  421O :  0.72  382O :  0.70  340O :  0.69  301O :  0.68  190O :  0.67   85O :  0.66
  376O :  0.66   70O :  0.66  271O :  0.65  223O :  0.64  298O :  0.61  295O :  0.60  433O :  0.60   82O :  0.58   61O :  0.58  133O :  0.57  175O :  0.54   93H :  0.51
  127O :  0.51  217O :  0.51  337O :  0.50  430O :  0.47  499O :  0.47  238O :  0.47  220O :  0.44   33H :  0.44  283O :  0.43  143H :  0.41  259O :  0.41  514O :  0.40
  331O :  0.40  109O :  0.40  349O :  0.38  511O :  0.38  478O :  0.38  528H :  0.38  391O :  0.37  244O :  0.37  463O :  0.36  520O :  0.36  183H :  0.35  355O :  0.35
  241O :  0.35   52O :  0.33  442O :  0.33  470H :  0.32  343O :  0.32  322O :  0.32   67O :  0.31  100O :  0.31  505O :  0.31   80H :  0.31  492H :  0.31  249H :  0.31
  491H :  0.30   98H :  0.30  396H :  0.29   44H :  0.29  193O :  0.28  254H :  0.28  369H :  0.28  226O :  0.28  373O :  0.27  121O :  0.27  232O :  0.26  436O :  0.26
  412O :  0.25   65H :  0.25  411H :  0.24  138H :  0.24  354H :  0.24  487O :  0.23   22O :  0.23  205O :  0.22  139O :  0.22  267H :  0.22  328O :  0.22  306H :  0.22
  161H :  0.22  312H :  0.21   12H :  0.21  197H :  0.21  379O :  0.21  319O :  0.21   15H :  0.21  439O :  0.20  420H :  0.20   56H :  0.19  115O :  0.19  415O :  0.19
  359H :  0.18  517O :  0.17   55O :  0.17   29H :  0.17   18H :  0.16  457O :  0.16    4O :  0.15  287H :  0.15   92H :  0.15  316O :  0.15  522H :  0.15  308H :  0.14
  203H :  0.14  135H :  0.13  422H :  0.13  325O :  0.13  339H :  0.13  360H :  0.13  269H :  0.12  189H :  0.12  132H :  0.12  384H :  0.11  303H :  0.11    2H :  0.11
  131H :  0.11  356H :  0.11  257H :  0.11   59H :  0.10  456H :  0.10   24H :  0.10   62H :  0.10  305H :  0.10  245H :  0.10  407H :  0.10  311H :  0.10  179H :  0.10
   84H :  0.10  399H :  0.09  216H :  0.09   78H :  0.09  173H :  0.09  405H :  0.09   73O :  0.09  509H :  0.09   60H :  0.09  424O :  0.09  289O :  0.09  147H :  0.09
  279H :  0.09  174H :  0.09  162H :  0.08  504H :  0.08  471H :  0.08   51H :  0.08  531H :  0.08  344H :  0.08  177H :  0.08  124O :  0.08  488H :  0.08  182H :  0.08
   47H :  0.08  170H :  0.07  153H :  0.07   71H :  0.07  521H :  0.07  525H :  0.07  363H :  0.07
    3 LP   *******   0.00  11.68792  -5.65973  -8.31239   91O :  6.67  118O :  4.84  229O :  4.35   43O :  3.87  112O :  3.78   79O :  3.51  469O :  3.13   10O :  3.03  106O :  2.99  304O :  2.98  493O :  2.91  490O :  2.84
  148O :  2.69  460O :  2.49  448O :  2.36  202O :  2.25  103O :  2.22  418O :  2.06  292O :  2.01   49O :  2.00  466O :  1.99   31O :  1.96  247O :  1.89  157O :  1.85
   64O :  1.78  427O :  1.77  160O :  1.76    1O :  1.74   34O :  1.71  529O :  1.67  451O :  1.63  187O :  1.62   28O :  1.60  178O :  1.53  196O :  1.53  181O :  1.47
  502O :  1.41  352O :  1.41  475O :  1.39  136O :  1.38  184O :  1.37    7O :  1.37  253O :  1.36  445O :  1.36  142O :  1.35  265O :  1.34   40O :  1.33  268O :  1.32
   25O :  1.31  526O :  1.31  367O :  1.28  169O :  1.28  310O :  1.21  403O :  1.20  358O :  1.20  385O :  1.20   97O :  1.19  262O :  1.19  508O :  1.18   13O :  1.17
  166O :  1.16  394O :  1.14   88O :  1.12   76O :  1.11   46O :  1.11  484O :  1.08  523O :  1.05  154O :  1.04  250O :  1.01   19O :  0.98   58O :  0.97  211O :  0.95
  406O :  0.95  364O :  0.95  163O :  0.93  199O :  0.91  346O :  0.91  172O :  0.88  388O :  0.88  313O :  0.87  286O :  0.86  274O :  0.85  145O :  0.85  151O :  0.85
  472O :  0.84  280O :  0.83  307O :  0.83  277O :  0.80  496O :  0.78  481O :  0.77  256O :  0.76   16O :  0.76  397O :  0.76   94O :  0.72  130O :  0.71  334O :  0.71
  214O :  0.69  361O :  0.66  454O :  0.65  409O :  0.63  208O :  0.63  421O :  0.63   37O :  0.63  382O :  0.61  340O :  0.61  301O :  0.60  190O :  0.59   85O :  0.58
  376O :  0.58   70O :  0.58  271O :  0.57  223O :  0.56  298O :  0.53  295O :  0.53  433O :  0.52   82O :  0.51   61O :  0.51  133O :  0.50  175O :  0.47  127O :  0.45
  217O :  0.43  430O :  0.42  499O :  0.42  238O :  0.41   93H :  0.41  337O :  0.41  220O :  0.39   33H :  0.39  283O :  0.38  143H :  0.36  259O :  0.36  514O :  0.36
  331O :  0.35  109O :  0.35  349O :  0.34  511O :  0.33  478O :  0.33  528H :  0.33  391O :  0.32  463O :  0.32  244O :  0.32  520O :  0.32  183H :  0.31  355O :  0.31
  241O :  0.30   52O :  0.29  442O :  0.29  470H :  0.28  343O :  0.28  322O :  0.28   67O :  0.27  100O :  0.27  492H :  0.27  505O :  0.27   80H :  0.27  249H :  0.27
  491H :  0.26   98H :  0.26  396H :  0.26  254H :  0.25  369H :  0.25  193O :  0.25   44H :  0.25  226O :  0.24  373O :  0.24  121O :  0.24  232O :  0.23  436O :  0.23
  412O :  0.22   65H :  0.22  411H :  0.21  138H :  0.21  354H :  0.21  487O :  0.20   22O :  0.20  205O :  0.20  139O :  0.20  267H :  0.20  328O :  0.19  306H :  0.19
  161H :  0.19  312H :  0.19   12H :  0.19  197H :  0.19  379O :  0.19  319O :  0.18   15H :  0.18  439O :  0.17  420H :  0.17   56H :  0.17  115O :  0.17  415O :  0.17
  359H :  0.15  517O :  0.15   55O :  0.15   29H :  0.15   18H :  0.14  457O :  0.14    4O :  0.14  287H :  0.13  316O :  0.13  522H :  0.13  308H :  0.12  203H :  0.12
  135H :  0.12  422H :  0.12  325O :  0.12  339H :  0.11  360H :  0.11   92H :  0.11  269H :  0.11  189H :  0.10  132H :  0.10  384H :  0.10  303H :  0.10    2H :  0.10
  131H :  0.10  356H :  0.10  245H :  0.10  257H :  0.09   59H :  0.09  456H :  0.09   62H :  0.09   24H :  0.09  305H :  0.09  407H :  0.09  311H :  0.09  179H :  0.08
   84H :  0.08  399H :  0.08  216H :  0.08   78H :  0.08  173H :  0.08  405H :  0.08   73O :  0.08  509H :  0.08   60H :  0.08  424O :  0.08  289O :  0.08  147H :  0.08
  279H :  0.08  174H :  0.08  162H :  0.07  504H :  0.07  471H :  0.07   51H :  0.07  531H :  0.07  344H :  0.07
    4 LP   *******   0.00  -1.69050   7.69843 -10.50617   43O :  6.51  118O :  4.71  229O :  4.24  112O :  3.68   91O :  3.64   79O :  3.42  469O :  3.05   10O :  2.95  106O :  2.91  304O :  2.91  493O :  2.84  490O :  2.76
  148O :  2.62  460O :  2.43  448O :  2.30  202O :  2.20  103O :  2.16  418O :  2.01   49O :  1.98  292O :  1.95  466O :  1.94   31O :  1.91  247O :  1.84  157O :  1.80
   64O :  1.74  427O :  1.73  160O :  1.71    1O :  1.70   34O :  1.67  529O :  1.63  451O :  1.59  187O :  1.58   28O :  1.56  178O :  1.49  196O :  1.49  181O :  1.43
  502O :  1.38  352O :  1.38  475O :  1.36  136O :  1.34  184O :  1.34    7O :  1.33  253O :  1.33  445O :  1.32  142O :  1.32  265O :  1.31   40O :  1.29  268O :  1.28
   25O :  1.28  526O :  1.28  367O :  1.25  169O :  1.25  310O :  1.18  403O :  1.17  358O :  1.17  385O :  1.17   97O :  1.16  262O :  1.16  508O :  1.15   13O :  1.14
  166O :  1.13  394O :  1.11   88O :  1.09   76O :  1.08   46O :  1.08  484O :  1.05  523O :  1.02  154O :  1.01  250O :  0.98   19O :  0.95   58O :  0.95  406O :  0.93
  211O :  0.93  364O :  0.92  163O :  0.91  199O :  0.89  346O :  0.88  172O :  0.86  388O :  0.85  313O :  0.84  286O :  0.84  274O :  0.83  145O :  0.82  151O :  0.82
  472O :  0.82  280O :  0.81  307O :  0.81  277O :  0.78  496O :  0.76  481O :  0.75  256O :  0.74   16O :  0.74  397O :  0.74   94O :  0.70  130O :  0.69  334O :  0.69
  214O :  0.68  361O :  0.64  454O :  0.63  409O :  0.62  208O :  0.62  421O :  0.61   37O :  0.61  382O :  0.60  340O :  0.59  301O :  0.58  190O :  0.57   85O :  0.57
  376O :  0.57   70O :  0.56  271O :  0.55  223O :  0.55  298O :  0.52  295O :  0.51  433O :  0.51   82O :  0.50   61O :  0.49  133O :  0.46  175O :  0.46   93H :  0.44
  127O :  0.44  217O :  0.43  337O :  0.43  430O :  0.41  499O :  0.41  238O :  0.40  220O :  0.38   33H :  0.38  283O :  0.37  143H :  0.35  259O :  0.35  514O :  0.35
  331O :  0.34  109O :  0.34  349O :  0.33  511O :  0.32  528H :  0.32  478O :  0.32  391O :  0.31  244O :  0.31  463O :  0.31  520O :  0.31  183H :  0.30  355O :  0.30
  241O :  0.30   52O :  0.29  470H :  0.27  343O :  0.27  322O :  0.27  442O :  0.27   67O :  0.27  100O :  0.27  505O :  0.27   80H :  0.26  492H :  0.26  249H :  0.26
  491H :  0.26   98H :  0.25  396H :  0.25  193O :  0.24  254H :  0.24  369H :  0.24  226O :  0.24  373O :  0.23  121O :  0.23  232O :  0.23  436O :  0.22   44H :  0.22
  412O :  0.22   65H :  0.21  411H :  0.21  138H :  0.20  354H :  0.20  487O :  0.20   22O :  0.19  205O :  0.19  139O :  0.19  267H :  0.19  328O :  0.19  306H :  0.19
  161H :  0.18  312H :  0.18   12H :  0.18  197H :  0.18  379O :  0.18  319O :  0.18   15H :  0.18  439O :  0.17  420H :  0.17   56H :  0.17  115O :  0.16  415O :  0.16
  359H :  0.15  517O :  0.15   55O :  0.15   29H :  0.14   18H :  0.14  457O :  0.13    4O :  0.13  287H :  0.13   92H :  0.13  316O :  0.12  522H :  0.12  308H :  0.12
  203H :  0.12  422H :  0.11  135H :  0.11  325O :  0.11  339H :  0.11  360H :  0.11  269H :  0.10  189H :  0.10  132H :  0.10  384H :  0.10  303H :  0.10    2H :  0.10
  131H :  0.09  356H :  0.09  257H :  0.09   59H :  0.09  456H :  0.09   24H :  0.09  305H :  0.09   62H :  0.09  245H :  0.09  407H :  0.08  311H :  0.08  179H :  0.08
   84H :  0.08  399H :  0.08  216H :  0.08   78H :  0.08  173H :  0.08  405H :  0.08   73O :  0.08  509H :  0.08   60H :  0.08  174H :  0.08  424O :  0.08  289O :  0.07
  147H :  0.07  279H :  0.07  162H :  0.07  504H :  0.07  471H :  0.07
    5 LP   *******   0.00  -5.70259  -4.68297   7.45581   79O :  5.26  118O :  4.00  229O :  3.60   43O :  3.20  112O :  3.12   91O :  3.09  469O :  2.59   10O :  2.51  106O :  2.47  304O :  2.47  493O :  2.41  490O :  2.35
  148O :  2.22  460O :  2.06  448O :  1.95  202O :  1.86  103O :  1.84  418O :  1.70  292O :  1.66   49O :  1.65  466O :  1.65   31O :  1.62  247O :  1.56  157O :  1.53
   64O :  1.47  427O :  1.47    1O :  1.44  160O :  1.43   34O :  1.42  529O :  1.38  451O :  1.35  187O :  1.34   28O :  1.33  178O :  1.27  196O :  1.26  181O :  1.21
  502O :  1.17  352O :  1.17  475O :  1.15  136O :  1.14  184O :  1.14    7O :  1.13  253O :  1.13  445O :  1.13  142O :  1.12  265O :  1.11   40O :  1.10  268O :  1.09
   25O :  1.09  526O :  1.08  367O :  1.06  169O :  1.06  310O :  1.00  403O :  1.00  358O :  0.99  385O :  0.99   97O :  0.98  262O :  0.98  508O :  0.98  166O :  0.96
   13O :  0.95  394O :  0.95   88O :  0.93   76O :  0.91   46O :  0.91  484O :  0.89  523O :  0.87  154O :  0.86  250O :  0.83   19O :  0.81   58O :  0.80  406O :  0.79
  211O :  0.79  364O :  0.78  163O :  0.77  199O :  0.75  346O :  0.75  172O :  0.73  388O :  0.73  286O :  0.71  274O :  0.70  145O :  0.70  151O :  0.70  472O :  0.69
  280O :  0.69  307O :  0.68  313O :  0.66  277O :  0.66  496O :  0.65  481O :  0.64  256O :  0.63   16O :  0.63  397O :  0.63   94O :  0.60  130O :  0.59  334O :  0.58
  214O :  0.58  361O :  0.54  454O :  0.54  208O :  0.53  409O :  0.52  421O :  0.52   37O :  0.52  382O :  0.51  340O :  0.50  301O :  0.49  190O :  0.49   85O :  0.48
  376O :  0.48   70O :  0.48  271O :  0.47  223O :  0.46  298O :  0.44  295O :  0.44  433O :  0.43   82O :  0.43   61O :  0.42  133O :  0.41  175O :  0.39   93H :  0.37
  127O :  0.37  217O :  0.37  337O :  0.36  430O :  0.35  499O :  0.34  238O :  0.34  220O :  0.32   33H :  0.32  283O :  0.32  143H :  0.30  259O :  0.30  514O :  0.29
  331O :  0.29  109O :  0.29  349O :  0.28  478O :  0.27  528H :  0.27  511O :  0.27  391O :  0.27  244O :  0.27  463O :  0.27  520O :  0.26  183H :  0.25  355O :  0.25
  241O :  0.25   52O :  0.24  442O :  0.24  470H :  0.23  343O :  0.23  322O :  0.23   67O :  0.23  100O :  0.23  505O :  0.23  492H :  0.23  249H :  0.22  491H :  0.22
   98H :  0.22  396H :  0.21  193O :  0.21  254H :  0.21  369H :  0.21   44H :  0.21  226O :  0.20  373O :  0.20  121O :  0.20  232O :  0.19  436O :  0.19  412O :  0.18
   65H :  0.18   80H :  0.18  411H :  0.17  138H :  0.17  354H :  0.17  487O :  0.17  205O :  0.17   22O :  0.17  139O :  0.16  267H :  0.16  328O :  0.16  306H :  0.16
  312H :  0.16  161H :  0.16   12H :  0.16  197H :  0.15  379O :  0.15  319O :  0.15   15H :  0.15  439O :  0.14  420H :  0.14   56H :  0.14  115O :  0.14  415O :  0.14
  359H :  0.13  517O :  0.13   55O :  0.12   29H :  0.12   18H :  0.12  457O :  0.11    4O :  0.11  287H :  0.11   92H :  0.11  316O :  0.11  522H :  0.11  308H :  0.10
  203H :  0.10  135H :  0.10  422H :  0.10  325O :  0.10  339H :  0.09  360H :  0.09  132H :  0.09  269H :  0.09  189H :  0.09  384H :  0.08  303H :  0.08    2H :  0.08
  131H :  0.08  356H :  0.08  257H :  0.08   59H :  0.07  456H :  0.07   24H :  0.07   62H :  0.07  305H :  0.07  245H :  0.07  407H :  0.07  311H :  0.07
    6 LP   *******   0.00   1.72237  13.29501   3.78770  469O :  4.94  118O :  3.88  229O :  3.49   43O :  3.11  112O :  3.03   91O :  3.00   79O :  2.82   10O :  2.43  106O :  2.40  304O :  2.39  493O :  2.33  490O :  2.27
  148O :  2.15  460O :  2.00  448O :  1.89  202O :  1.81  103O :  1.78  418O :  1.65  292O :  1.61   49O :  1.60  466O :  1.60   31O :  1.57  247O :  1.52  157O :  1.49
   64O :  1.43  427O :  1.42  160O :  1.41    1O :  1.40   34O :  1.37  529O :  1.34  451O :  1.31  187O :  1.30   28O :  1.29  178O :  1.23  196O :  1.22  181O :  1.18
  502O :  1.13  352O :  1.13  475O :  1.11  136O :  1.10  184O :  1.10    7O :  1.10  253O :  1.09  445O :  1.09  142O :  1.08  265O :  1.07   40O :  1.07  268O :  1.06
   25O :  1.05  526O :  1.05  367O :  1.03  169O :  1.03  310O :  0.97  403O :  0.97  358O :  0.96  385O :  0.96   97O :  0.95  262O :  0.95  508O :  0.95   13O :  0.94
  166O :  0.93  394O :  0.92   88O :  0.90   76O :  0.89   46O :  0.89  484O :  0.87  523O :  0.84  154O :  0.83  250O :  0.81   19O :  0.78   58O :  0.78  406O :  0.76
  211O :  0.76  364O :  0.76  163O :  0.75  199O :  0.73  346O :  0.73  172O :  0.71  388O :  0.70  313O :  0.70  286O :  0.69  274O :  0.68  145O :  0.68  151O :  0.68
  472O :  0.67  280O :  0.67  307O :  0.67  277O :  0.64  496O :  0.63  481O :  0.62  256O :  0.61   16O :  0.61  397O :  0.61   94O :  0.58  130O :  0.57  334O :  0.57
  214O :  0.56  361O :  0.53  454O :  0.52  208O :  0.51  421O :  0.51   37O :  0.51  409O :  0.50  382O :  0.49  340O :  0.49  301O :  0.48  190O :  0.47   85O :  0.47
  376O :  0.47   70O :  0.46  271O :  0.46  223O :  0.45  298O :  0.43  295O :  0.42  433O :  0.42   82O :  0.41   61O :  0.41  133O :  0.40  175O :  0.38   93H :  0.36
  127O :  0.36  217O :  0.36  337O :  0.35  430O :  0.33  499O :  0.33  238O :  0.33  220O :  0.31   33H :  0.31  283O :  0.31  143H :  0.29  259O :  0.29  514O :  0.28
  331O :  0.28  109O :  0.28  349O :  0.27  511O :  0.27  478O :  0.27  528H :  0.26  391O :  0.26  244O :  0.26  463O :  0.26  520O :  0.26  183H :  0.25  355O :  0.25
   52O :  0.24  442O :  0.23  343O :  0.23  322O :  0.23  241O :  0.22  492H :  0.22   67O :  0.22  100O :  0.22  505O :  0.22   80H :  0.22  249H :  0.22   98H :  0.21
  491H :  0.21  396H :  0.21  193O :  0.20  254H :  0.20  369H :  0.20   44H :  0.20  226O :  0.20  470H :  0.19  373O :  0.19  121O :  0.19  232O :  0.19  436O :  0.18
  412O :  0.18   65H :  0.18  138H :  0.17  354H :  0.17  411H :  0.16  487O :  0.16   22O :  0.16  205O :  0.16  139O :  0.16  267H :  0.16  328O :  0.16  306H :  0.15
  161H :  0.15  312H :  0.15   12H :  0.15  197H :  0.15  379O :  0.15  319O :  0.15   15H :  0.15  439O :  0.14  420H :  0.14   56H :  0.14  115O :  0.13  415O :  0.13
  359H :  0.12  517O :  0.12   55O :  0.12   29H :  0.12   18H :  0.12  457O :  0.11    4O :  0.11  287H :  0.10   92H :  0.10  316O :  0.10  522H :  0.10  308H :  0.10
  135H :  0.09  203H :  0.09  422H :  0.09  325O :  0.09  339H :  0.09  360H :  0.09  269H :  0.09  189H :  0.08  132H :  0.08  384H :  0.08  303H :  0.08    2H :  0.08
  131H :  0.08  356H :  0.08  257H :  0.07   59H :  0.07  456H :  0.07   24H :  0.07   62H :  0.07  305H :  0.07  245H :  0.07
    7 LP   *******   0.00   5.80150 -12.59266  -2.42000  106O :  4.80  118O :  3.82  229O :  3.43   43O :  3.05  112O :  2.98   91O :  2.95   79O :  2.77  469O :  2.47   10O :  2.39  304O :  2.31  493O :  2.30  490O :  2.24
  148O :  2.12  460O :  1.97  448O :  1.86  202O :  1.78  103O :  1.75  418O :  1.62   49O :  1.58  466O :  1.57  292O :  1.57   31O :  1.55  247O :  1.49  157O :  1.46
   64O :  1.41  427O :  1.40  160O :  1.39    1O :  1.38   34O :  1.35  529O :  1.32  451O :  1.29  187O :  1.28   28O :  1.27  178O :  1.21  196O :  1.21  181O :  1.16
  502O :  1.12  352O :  1.11  475O :  1.10  136O :  1.09  184O :  1.08    7O :  1.08  253O :  1.08  445O :  1.07  142O :  1.07  265O :  1.06   40O :  1.05  268O :  1.04
   25O :  1.04  526O :  1.03  367O :  1.01  169O :  1.01  310O :  0.96  403O :  0.95  358O :  0.95  385O :  0.95   97O :  0.94  262O :  0.94  508O :  0.93   13O :  0.93
  166O :  0.92  394O :  0.90   88O :  0.88   76O :  0.87   46O :  0.87  484O :  0.85  523O :  0.83  154O :  0.82  250O :  0.79   19O :  0.77   58O :  0.77  211O :  0.75
  364O :  0.75  406O :  0.75  163O :  0.74  199O :  0.72  346O :  0.71  172O :  0.70  388O :  0.69  313O :  0.68  286O :  0.68  274O :  0.67  145O :  0.67  151O :  0.67
  472O :  0.66  280O :  0.66  307O :  0.65  277O :  0.63  496O :  0.62  481O :  0.61  256O :  0.60   16O :  0.60  397O :  0.60   94O :  0.57  130O :  0.56  334O :  0.56
  214O :  0.55  361O :  0.52  454O :  0.51  409O :  0.50  208O :  0.50  421O :  0.50   37O :  0.50  382O :  0.48  340O :  0.48  301O :  0.47  190O :  0.47   85O :  0.46
  376O :  0.46  271O :  0.46   70O :  0.46  223O :  0.44  298O :  0.42  295O :  0.42  433O :  0.41   82O :  0.41   61O :  0.40  133O :  0.39  175O :  0.37   93H :  0.36
  127O :  0.35  217O :  0.35  337O :  0.35  430O :  0.33  499O :  0.33  238O :  0.33  220O :  0.31   33H :  0.30  283O :  0.30  143H :  0.28  259O :  0.28  514O :  0.28
  331O :  0.28  109O :  0.28  349O :  0.27  511O :  0.26  478O :  0.26  528H :  0.26  391O :  0.25  244O :  0.25  463O :  0.25  520O :  0.25  183H :  0.24  355O :  0.24
  241O :  0.24   52O :  0.23  442O :  0.23  470H :  0.22  343O :  0.22  322O :  0.22   67O :  0.22  492H :  0.21  505O :  0.21   80H :  0.21  249H :  0.21  100O :  0.21
  491H :  0.21   98H :  0.21  396H :  0.20  193O :  0.20  254H :  0.20  369H :  0.20   44H :  0.20  226O :  0.19  373O :  0.19  121O :  0.19  232O :  0.18  436O :  0.18
  412O :  0.17   65H :  0.17  411H :  0.17  138H :  0.16  354H :  0.16  487O :  0.16   22O :  0.16  205O :  0.16  139O :  0.15  267H :  0.15  328O :  0.15  161H :  0.15
  312H :  0.15   12H :  0.15  197H :  0.15  379O :  0.15  319O :  0.14   15H :  0.14  439O :  0.14  420H :  0.14   56H :  0.13  115O :  0.13  415O :  0.13  359H :  0.12
  517O :  0.12   55O :  0.12   29H :  0.12   18H :  0.11  457O :  0.11    4O :  0.11  287H :  0.10   92H :  0.10  316O :  0.10  522H :  0.10  308H :  0.10  203H :  0.09
  135H :  0.09  422H :  0.09  325O :  0.09  339H :  0.09  360H :  0.09  269H :  0.09  189H :  0.08  132H :  0.08  384H :  0.08  303H :  0.08    2H :  0.08  131H :  0.08
  356H :  0.08  257H :  0.07   59H :  0.07  305H :  0.07
    8 LP   *******   0.01   2.48067  -2.47670  -6.34501   10O :  4.05  118O :  3.47  229O :  3.12   43O :  2.78  112O :  2.71   91O :  2.68   79O :  2.52  469O :  2.24  106O :  2.14  304O :  2.14  493O :  2.09  490O :  2.03
  148O :  1.93  460O :  1.79  448O :  1.69  202O :  1.62  103O :  1.59  418O :  1.48  292O :  1.44   49O :  1.43  466O :  1.43   31O :  1.41  247O :  1.36  157O :  1.33
   64O :  1.28  160O :  1.26    1O :  1.25  427O :  1.25   34O :  1.23  529O :  1.20  451O :  1.17  187O :  1.16   28O :  1.15  178O :  1.10  196O :  1.10  181O :  1.05
  352O :  1.02  502O :  1.01  475O :  1.00  136O :  0.99  184O :  0.99    7O :  0.98  253O :  0.98  445O :  0.98  142O :  0.97  265O :  0.96   40O :  0.95  268O :  0.94
   25O :  0.94  526O :  0.94  367O :  0.92  169O :  0.92  310O :  0.87  403O :  0.86  358O :  0.86  385O :  0.86   97O :  0.85  262O :  0.85  508O :  0.85   13O :  0.84
  166O :  0.83  394O :  0.82   88O :  0.80   76O :  0.79   46O :  0.79  484O :  0.77  523O :  0.75  154O :  0.74  250O :  0.72   19O :  0.70   58O :  0.70  211O :  0.68
  406O :  0.68  364O :  0.68  163O :  0.67  199O :  0.65  346O :  0.65  172O :  0.63  388O :  0.63  313O :  0.62  286O :  0.62  274O :  0.61  145O :  0.61  151O :  0.61
  472O :  0.60  280O :  0.60  307O :  0.59  277O :  0.57  496O :  0.56  481O :  0.56  256O :  0.55   16O :  0.54  397O :  0.54   94O :  0.52  130O :  0.51  334O :  0.51
  214O :  0.50  361O :  0.47  454O :  0.47  409O :  0.46  208O :  0.45  421O :  0.45   37O :  0.45  382O :  0.44  340O :  0.44  301O :  0.43  190O :  0.42   85O :  0.42
  376O :  0.42   70O :  0.41  271O :  0.41  223O :  0.40  298O :  0.38  295O :  0.38  433O :  0.38   82O :  0.37   61O :  0.36  133O :  0.36  175O :  0.34   93H :  0.32
  127O :  0.32  337O :  0.31  217O :  0.31  430O :  0.30  499O :  0.30  238O :  0.29  220O :  0.28   33H :  0.28  283O :  0.27  143H :  0.26  259O :  0.26  514O :  0.25
  331O :  0.25  109O :  0.25  349O :  0.24  528H :  0.24  511O :  0.24  478O :  0.24  244O :  0.23  391O :  0.23  463O :  0.23  520O :  0.23  183H :  0.22  355O :  0.22
  241O :  0.22   52O :  0.22  100O :  0.21  442O :  0.21  343O :  0.20  470H :  0.20  322O :  0.20   67O :  0.20  492H :  0.20  505O :  0.20   80H :  0.20  249H :  0.19
  491H :  0.19   98H :  0.19  396H :  0.19  193O :  0.18  254H :  0.18  369H :  0.18   44H :  0.18  226O :  0.17  373O :  0.17  121O :  0.17  232O :  0.17  436O :  0.16
  412O :  0.16   65H :  0.16  354H :  0.16  411H :  0.15  138H :  0.15  487O :  0.15   22O :  0.14  205O :  0.14  139O :  0.14  267H :  0.14  328O :  0.14  306H :  0.14
  161H :  0.14  312H :  0.14  197H :  0.13  379O :  0.13  319O :  0.13   15H :  0.13  439O :  0.13  420H :  0.12   56H :  0.12   12H :  0.12  115O :  0.12  415O :  0.12
  359H :  0.11  517O :  0.11   55O :  0.11   29H :  0.11   18H :  0.10  457O :  0.10    4O :  0.10  287H :  0.09   92H :  0.09  316O :  0.09  522H :  0.09  308H :  0.09
  203H :  0.09  135H :  0.08  422H :  0.08  325O :  0.08  339H :  0.08  360H :  0.08  269H :  0.08  189H :  0.07  132H :  0.07  384H :  0.07  303H :  0.07    2H :  0.07
    9 LP   *******   0.01  -8.00801  -6.12662  -2.06701  112O :  4.50  118O :  3.41  229O :  3.06   43O :  2.73   91O :  2.63   79O :  2.48  469O :  2.20   10O :  2.14  106O :  2.11  304O :  2.10  493O :  2.05  490O :  2.00
  148O :  1.89  460O :  1.76  448O :  1.66  202O :  1.59  103O :  1.57  418O :  1.45  292O :  1.41   49O :  1.41  466O :  1.40   31O :  1.38  247O :  1.33  157O :  1.31
   64O :  1.26  427O :  1.25  160O :  1.24    1O :  1.23   34O :  1.21  529O :  1.18  451O :  1.15  187O :  1.14   28O :  1.13  178O :  1.08  196O :  1.08  181O :  1.03
  502O :  1.00  352O :  1.00  475O :  0.98  142O :  0.97  136O :  0.97  184O :  0.97    7O :  0.96  253O :  0.96  445O :  0.96   25O :  0.95  265O :  0.94   40O :  0.94
  268O :  0.93  526O :  0.92  367O :  0.91  169O :  0.90  508O :  0.86  310O :  0.85  403O :  0.85  358O :  0.85  385O :  0.85   97O :  0.84  262O :  0.84   13O :  0.82
  394O :  0.82  166O :  0.82   88O :  0.79   76O :  0.78   46O :  0.78  484O :  0.76  523O :  0.74  154O :  0.73  250O :  0.69   19O :  0.69   58O :  0.68  406O :  0.67
  211O :  0.67  364O :  0.67  163O :  0.66  199O :  0.64  346O :  0.64  172O :  0.62  388O :  0.62  313O :  0.61  286O :  0.61  274O :  0.60  145O :  0.60  151O :  0.60
  472O :  0.59  280O :  0.59  307O :  0.58  277O :  0.56  496O :  0.55  481O :  0.55  256O :  0.54   16O :  0.53  397O :  0.53   94O :  0.51  130O :  0.50  334O :  0.50
  214O :  0.50  361O :  0.46  454O :  0.46  409O :  0.45  208O :  0.44  421O :  0.44   37O :  0.44  382O :  0.43  340O :  0.43  301O :  0.42  190O :  0.42   85O :  0.41
  376O :  0.41   70O :  0.41  271O :  0.40  223O :  0.40  298O :  0.38  295O :  0.37  433O :  0.37   82O :  0.36   61O :  0.36  133O :  0.35  175O :  0.34   93H :  0.32
  127O :  0.32  217O :  0.31  337O :  0.31  430O :  0.29  499O :  0.29  238O :  0.29  220O :  0.28   33H :  0.27  283O :  0.27  331O :  0.26  143H :  0.25  259O :  0.25
  514O :  0.25  109O :  0.25  349O :  0.24  511O :  0.23  478O :  0.23  528H :  0.23  391O :  0.23  244O :  0.23  463O :  0.23  520O :  0.22  355O :  0.22  183H :  0.22
  241O :  0.21   52O :  0.21  442O :  0.20  343O :  0.20  470H :  0.20  322O :  0.20   67O :  0.19  100O :  0.19  492H :  0.19  505O :  0.19   80H :  0.19  249H :  0.19
  491H :  0.19  396H :  0.19   98H :  0.18  254H :  0.18  193O :  0.18  369H :  0.18   44H :  0.18  226O :  0.17  373O :  0.17  121O :  0.17  232O :  0.16  436O :  0.16
  412O :  0.16   65H :  0.16  312H :  0.15  411H :  0.15  138H :  0.15  354H :  0.15  487O :  0.14   22O :  0.14  205O :  0.14  139O :  0.14  267H :  0.14  328O :  0.14
  306H :  0.13  161H :  0.13   12H :  0.13  197H :  0.13  379O :  0.13  319O :  0.13  439O :  0.12   15H :  0.12  420H :  0.12   56H :  0.12  115O :  0.12  415O :  0.12
  359H :  0.11  517O :  0.11   55O :  0.11   29H :  0.10   18H :  0.10  457O :  0.10    4O :  0.10  287H :  0.09   92H :  0.09  316O :  0.09  522H :  0.09  308H :  0.09
  203H :  0.08  135H :  0.08  422H :  0.08  325O :  0.08  339H :  0.08  360H :  0.08  269H :  0.08  189H :  0.07  132H :  0.07  384H :  0.07
   10 LP   *******   0.01  11.68407 -11.26521   1.67465  418O :  3.60  118O :  3.31  229O :  3.02   43O :  2.65  112O :  2.59   91O :  2.56   79O :  2.41  469O :  2.14  304O :  2.09   10O :  2.08  106O :  2.04  493O :  1.99
  490O :  1.94  148O :  1.84  460O :  1.71  448O :  1.61  202O :  1.54  103O :  1.52   49O :  1.37  466O :  1.37  292O :  1.36   31O :  1.34  247O :  1.30  157O :  1.27
   64O :  1.22  427O :  1.21  160O :  1.21    1O :  1.19   34O :  1.17  529O :  1.15  451O :  1.12  187O :  1.11   28O :  1.10  178O :  1.05  196O :  1.05  181O :  1.00
  502O :  0.97  352O :  0.97  475O :  0.95  136O :  0.94  184O :  0.94    7O :  0.94  253O :  0.93  445O :  0.93  142O :  0.92  265O :  0.92   40O :  0.91  268O :  0.90
   25O :  0.90  526O :  0.90  367O :  0.88  169O :  0.88  310O :  0.83  403O :  0.82  358O :  0.82  385O :  0.82   97O :  0.81  262O :  0.81  508O :  0.81   13O :  0.80
  166O :  0.80  394O :  0.78   88O :  0.77   76O :  0.76   46O :  0.76  484O :  0.74  523O :  0.72  154O :  0.71  250O :  0.69   19O :  0.67   58O :  0.67  406O :  0.65
  211O :  0.65  364O :  0.65  163O :  0.64  199O :  0.62  346O :  0.62  172O :  0.60  388O :  0.60  313O :  0.59  286O :  0.59  145O :  0.58  151O :  0.58  274O :  0.58
  472O :  0.57  280O :  0.57  307O :  0.57  277O :  0.55  496O :  0.54  481O :  0.53  256O :  0.52  397O :  0.52   16O :  0.52   94O :  0.49  130O :  0.49  334O :  0.48
  214O :  0.48  361O :  0.45  454O :  0.44  409O :  0.43  208O :  0.43  421O :  0.43   37O :  0.43  382O :  0.42  340O :  0.42  301O :  0.41  190O :  0.40   85O :  0.40
  376O :  0.40   70O :  0.39  271O :  0.39  223O :  0.38  298O :  0.36  295O :  0.36  433O :  0.36   82O :  0.35   61O :  0.35  133O :  0.34  175O :  0.32   93H :  0.31
  127O :  0.31  217O :  0.30  337O :  0.30  430O :  0.29  499O :  0.29  238O :  0.28  220O :  0.27   33H :  0.26  283O :  0.26  143H :  0.25  259O :  0.24  514O :  0.24
  331O :  0.24  109O :  0.24  349O :  0.23  511O :  0.23  478O :  0.23  528H :  0.23  391O :  0.22  244O :  0.22  463O :  0.22  520O :  0.22  183H :  0.21  355O :  0.21
  241O :  0.21   52O :  0.20  442O :  0.20  470H :  0.19  343O :  0.19  322O :  0.19   67O :  0.19  100O :  0.19  492H :  0.19  505O :  0.19   80H :  0.19  249H :  0.18
  491H :  0.18   98H :  0.18  396H :  0.18  193O :  0.17  254H :  0.17  369H :  0.17   44H :  0.17  226O :  0.17  373O :  0.16  121O :  0.16  232O :  0.16  436O :  0.15
  412O :  0.15   65H :  0.15  411H :  0.14  138H :  0.14  354H :  0.14  487O :  0.14   22O :  0.14  205O :  0.14  139O :  0.13  267H :  0.13  328O :  0.13  161H :  0.13
  312H :  0.13   12H :  0.13  197H :  0.13  379O :  0.13  306H :  0.13  319O :  0.13   15H :  0.12  439O :  0.12   56H :  0.12  415O :  0.11  115O :  0.11  359H :  0.11
  517O :  0.11   55O :  0.10   29H :  0.10   18H :  0.10  420H :  0.10  457O :  0.09    4O :  0.09  287H :  0.09   92H :  0.09  316O :  0.09  522H :  0.09  308H :  0.08
  203H :  0.08  135H :  0.08  422H :  0.08  325O :  0.08  360H :  0.08  339H :  0.08  269H :  0.07  189H :  0.07
   11 LP   *******   0.01  -8.45900  -6.27228   0.89180  112O :  4.38  118O :  3.27  229O :  2.94   43O :  2.62   91O :  2.53   79O :  2.38  469O :  2.12   10O :  2.05  106O :  2.02  304O :  2.02  493O :  1.97  490O :  1.92
  148O :  1.82  460O :  1.69  448O :  1.59  202O :  1.53  103O :  1.50  418O :  1.39  292O :  1.36   49O :  1.35  466O :  1.35   31O :  1.33  247O :  1.28  157O :  1.25
   64O :  1.21  427O :  1.20  160O :  1.19    1O :  1.18   34O :  1.16  529O :  1.13  451O :  1.11  187O :  1.10   28O :  1.09  178O :  1.04  196O :  1.03  181O :  0.99
  502O :  0.96  352O :  0.96  475O :  0.94  136O :  0.93  184O :  0.93    7O :  0.92  253O :  0.92  445O :  0.92  265O :  0.91   40O :  0.90   25O :  0.89  142O :  0.89
  268O :  0.89  526O :  0.89  367O :  0.87  169O :  0.87  310O :  0.82  403O :  0.81  358O :  0.81  385O :  0.81   97O :  0.80  262O :  0.80  394O :  0.79   13O :  0.79
  508O :  0.79  166O :  0.79   88O :  0.76   76O :  0.75   46O :  0.75  484O :  0.73  523O :  0.71  154O :  0.70  250O :  0.68   19O :  0.66   58O :  0.66  406O :  0.64
  211O :  0.64  364O :  0.64  163O :  0.63  199O :  0.62  346O :  0.61  172O :  0.60  388O :  0.59  313O :  0.59  286O :  0.58  274O :  0.57  151O :  0.57  145O :  0.57
  472O :  0.57  280O :  0.56  307O :  0.56  277O :  0.54  496O :  0.53  481O :  0.52  256O :  0.52  397O :  0.51   16O :  0.51  214O :  0.50   94O :  0.49  130O :  0.48
  334O :  0.48  361O :  0.44  454O :  0.44  409O :  0.43  208O :  0.43  421O :  0.43   37O :  0.43  382O :  0.42  340O :  0.41  301O :  0.40  190O :  0.40   85O :  0.40
  376O :  0.39   70O :  0.39  271O :  0.39  223O :  0.38  298O :  0.36  295O :  0.36  433O :  0.35   82O :  0.35   61O :  0.34  133O :  0.34  175O :  0.32   93H :  0.31
  127O :  0.30  217O :  0.30  337O :  0.30  430O :  0.28  499O :  0.28  238O :  0.28  220O :  0.26   33H :  0.26  283O :  0.26  331O :  0.25  143H :  0.24  259O :  0.24
  514O :  0.24  109O :  0.24  349O :  0.23  511O :  0.22  478O :  0.22  528H :  0.22  391O :  0.22  244O :  0.22  463O :  0.22  520O :  0.22  183H :  0.21  355O :  0.21
  241O :  0.21   52O :  0.20  442O :  0.20  470H :  0.19  343O :  0.19  322O :  0.19   67O :  0.19  100O :  0.18  492H :  0.18  505O :  0.18   80H :  0.18  249H :  0.18
  396H :  0.18  491H :  0.18   98H :  0.18  193O :  0.17  254H :  0.17  369H :  0.17   44H :  0.17  226O :  0.17  373O :  0.16  121O :  0.16  232O :  0.16  436O :  0.15
  412O :  0.15  216H :  0.15   65H :  0.15  411H :  0.14  138H :  0.14  354H :  0.14  487O :  0.14   22O :  0.13  205O :  0.13  139O :  0.13  267H :  0.13  328O :  0.13
  312H :  0.13  306H :  0.13  161H :  0.13   12H :  0.13  197H :  0.13  379O :  0.13  319O :  0.12  439O :  0.12  420H :  0.12   56H :  0.12   15H :  0.11  115O :  0.11
  415O :  0.11  359H :  0.10  517O :  0.10   55O :  0.10   29H :  0.10   18H :  0.10  457O :  0.09    4O :  0.09  287H :  0.09   92H :  0.09  316O :  0.09  522H :  0.09
  308H :  0.08  203H :  0.08  135H :  0.08  422H :  0.08  325O :  0.08  339H :  0.08  360H :  0.08  269H :  0.07  189H :  0.07
   12 LP   *******   0.01 -16.05948   8.98795  -3.22250  493O :  4.26  118O :  3.24  229O :  2.91   43O :  2.59  112O :  2.53   91O :  2.50   79O :  2.35  469O :  2.09   10O :  2.03  106O :  2.00  304O :  2.00  490O :  1.90
  148O :  1.80  460O :  1.67  448O :  1.58  202O :  1.51  103O :  1.49  418O :  1.38  292O :  1.34   49O :  1.34  466O :  1.33   31O :  1.31  247O :  1.27  157O :  1.24
   64O :  1.19  427O :  1.19  160O :  1.18    1O :  1.17   34O :  1.15  529O :  1.12  451O :  1.09  187O :  1.08   28O :  1.07  178O :  1.02  196O :  1.02  181O :  0.98
  502O :  0.95  352O :  0.95  475O :  0.93  136O :  0.92  184O :  0.92    7O :  0.91  253O :  0.91  445O :  0.91  142O :  0.90  265O :  0.90   40O :  0.89  268O :  0.88
   25O :  0.88  526O :  0.88  169O :  0.86  367O :  0.86  310O :  0.81  403O :  0.81  358O :  0.80  385O :  0.80   97O :  0.80  262O :  0.79  508O :  0.79   13O :  0.79
  166O :  0.78  394O :  0.77   88O :  0.75   76O :  0.74   46O :  0.74  484O :  0.72  523O :  0.70  154O :  0.70  250O :  0.67   19O :  0.65   58O :  0.65  406O :  0.64
  211O :  0.64  364O :  0.64  163O :  0.62  199O :  0.61  346O :  0.61  172O :  0.59  388O :  0.59  313O :  0.58  286O :  0.58  274O :  0.57  145O :  0.57  151O :  0.57
  472O :  0.56  280O :  0.56  307O :  0.56  277O :  0.53  496O :  0.52  481O :  0.52  256O :  0.51   16O :  0.51  397O :  0.51   94O :  0.48  130O :  0.48  334O :  0.47
  214O :  0.46  361O :  0.44  454O :  0.43  409O :  0.42  208O :  0.42  421O :  0.42   37O :  0.42  382O :  0.41  340O :  0.41  301O :  0.40  376O :  0.39   70O :  0.39
  190O :  0.38   85O :  0.38  271O :  0.38  223O :  0.38  298O :  0.36  295O :  0.35  433O :  0.35   82O :  0.34  133O :  0.33   61O :  0.33  175O :  0.32   93H :  0.30
  127O :  0.30  217O :  0.30  337O :  0.29  430O :  0.28  499O :  0.28  238O :  0.28  220O :  0.26   33H :  0.26  283O :  0.26  143H :  0.24  259O :  0.24  514O :  0.24
  331O :  0.24  109O :  0.24  349O :  0.23  511O :  0.22  478O :  0.22  528H :  0.22  391O :  0.22  244O :  0.22  463O :  0.22  520O :  0.21  355O :  0.20  241O :  0.20
  183H :  0.20   52O :  0.20  442O :  0.19  470H :  0.19  343O :  0.19  322O :  0.19   67O :  0.18  100O :  0.18  505O :  0.18  492H :  0.18   80H :  0.18  249H :  0.18
  491H :  0.18   98H :  0.18  396H :  0.17  254H :  0.17  193O :  0.17  369H :  0.17   44H :  0.17  226O :  0.16  373O :  0.16  121O :  0.16  232O :  0.16  436O :  0.15
  412O :  0.15   65H :  0.15  411H :  0.14  138H :  0.14  354H :  0.14  487O :  0.14   22O :  0.13  205O :  0.13  139O :  0.13  267H :  0.13  328O :  0.13  306H :  0.13
  161H :  0.13  312H :  0.13   12H :  0.13  197H :  0.13  379O :  0.12  319O :  0.12   15H :  0.12  439O :  0.12  420H :  0.12   56H :  0.11  115O :  0.11  415O :  0.11
  359H :  0.10  517O :  0.10   55O :  0.10   29H :  0.10   18H :  0.10  457O :  0.09    4O :  0.09  287H :  0.09   92H :  0.09  316O :  0.09  522H :  0.09  308H :  0.08
  203H :  0.08  135H :  0.08  422H :  0.08  325O :  0.08  339H :  0.07  360H :  0.07  269H :  0.07
   13 LP   *******   0.01  -4.79213  11.39766  -4.78645   49O :  3.43  118O :  3.21  229O :  2.88   43O :  2.57  112O :  2.51   91O :  2.48   79O :  2.33  469O :  2.07   10O :  2.01  106O :  1.98  304O :  1.98  493O :  1.93
  490O :  1.88  148O :  1.78  460O :  1.65  448O :  1.56  202O :  1.50  103O :  1.47  418O :  1.37  292O :  1.33  466O :  1.32   31O :  1.30  247O :  1.26  157O :  1.23
   64O :  1.18  427O :  1.18  160O :  1.17    1O :  1.16   34O :  1.14  529O :  1.11  451O :  1.08  187O :  1.07   28O :  1.06  178O :  1.01  196O :  1.01  181O :  0.97
  502O :  0.94  352O :  0.94  475O :  0.92  136O :  0.91  184O :  0.91    7O :  0.91  253O :  0.90  445O :  0.90  142O :  0.90  265O :  0.89   40O :  0.88  268O :  0.87
   25O :  0.87  526O :  0.87  367O :  0.85  169O :  0.85  310O :  0.80   97O :  0.80  403O :  0.80  358O :  0.80  385O :  0.80  262O :  0.79  508O :  0.78   13O :  0.78
  166O :  0.77  394O :  0.76   46O :  0.74   88O :  0.74   76O :  0.73  484O :  0.72  523O :  0.69  154O :  0.69  250O :  0.67   19O :  0.65   58O :  0.64  406O :  0.63
  211O :  0.63  364O :  0.63  163O :  0.62  199O :  0.61  346O :  0.60  172O :  0.58  388O :  0.58  313O :  0.57  286O :  0.57  274O :  0.56  151O :  0.56  145O :  0.56
  472O :  0.56  280O :  0.55  307O :  0.55  277O :  0.53  496O :  0.52  481O :  0.51  256O :  0.51   16O :  0.50  397O :  0.50   94O :  0.48  130O :  0.47  334O :  0.47
  214O :  0.46  361O :  0.44  454O :  0.43  409O :  0.42  208O :  0.42  421O :  0.42   37O :  0.42  382O :  0.41  340O :  0.40  301O :  0.39  190O :  0.39   85O :  0.39
  376O :  0.39   70O :  0.38  271O :  0.38  223O :  0.37  298O :  0.35  295O :  0.35  433O :  0.35   82O :  0.35   61O :  0.34  133O :  0.33  175O :  0.31   93H :  0.30
  127O :  0.30  217O :  0.30  337O :  0.29  430O :  0.28  499O :  0.28  238O :  0.27  220O :  0.26   33H :  0.26  283O :  0.25  143H :  0.24  259O :  0.24  514O :  0.24
  331O :  0.23  109O :  0.23  349O :  0.22  511O :  0.22  478O :  0.22  528H :  0.22  391O :  0.21  244O :  0.21  463O :  0.21  520O :  0.21  183H :  0.20  355O :  0.20
  241O :  0.20   52O :  0.20  442O :  0.19  470H :  0.19  343O :  0.19  322O :  0.19   67O :  0.18  100O :  0.18  492H :  0.18  505O :  0.18   80H :  0.18  249H :  0.18
  491H :  0.18  396H :  0.17   44H :  0.17   98H :  0.17  193O :  0.17  254H :  0.17  369H :  0.17  226O :  0.16  373O :  0.16  121O :  0.16  232O :  0.15  436O :  0.15
  412O :  0.15   65H :  0.15  411H :  0.14  138H :  0.14  354H :  0.14  487O :  0.14   47H :  0.13   22O :  0.13  205O :  0.13  139O :  0.13  267H :  0.13  328O :  0.13
  306H :  0.13  161H :  0.13  312H :  0.13   12H :  0.12  197H :  0.12  379O :  0.12  319O :  0.12   15H :  0.12  439O :  0.12  420H :  0.11   56H :  0.11  115O :  0.11
  415O :  0.11  359H :  0.10  517O :  0.10   55O :  0.10   29H :  0.10   18H :  0.10  457O :  0.09    4O :  0.09  287H :  0.09   92H :  0.09  316O :  0.08  522H :  0.08
  308H :  0.08  203H :  0.08  135H :  0.08  422H :  0.08  325O :  0.08  339H :  0.07  360H :  0.07  269H :  0.07
   14 LP   *******   0.01  -6.99469   6.47930 -10.22825  148O :  3.86  118O :  3.13  229O :  2.81   43O :  2.50  112O :  2.44   91O :  2.42   79O :  2.27  469O :  2.02   10O :  1.96  106O :  1.93  304O :  1.93  493O :  1.88
  490O :  1.83  460O :  1.61  448O :  1.52  202O :  1.46  103O :  1.44  418O :  1.33  292O :  1.30   49O :  1.29  466O :  1.29   31O :  1.27  247O :  1.22  157O :  1.20
   64O :  1.15  427O :  1.15  160O :  1.14    1O :  1.13   34O :  1.11  529O :  1.08  451O :  1.06  187O :  1.05   28O :  1.04  178O :  0.99  196O :  0.99  181O :  0.95
  502O :  0.91  352O :  0.91  475O :  0.90  136O :  0.89  184O :  0.89    7O :  0.88  253O :  0.88  445O :  0.88  142O :  0.87  265O :  0.87   40O :  0.86  268O :  0.85
   25O :  0.85  526O :  0.85  367O :  0.83  169O :  0.83  310O :  0.78  403O :  0.78  358O :  0.78  385O :  0.78   97O :  0.77  262O :  0.77  508O :  0.76   13O :  0.76
  166O :  0.75  394O :  0.74   88O :  0.72   76O :  0.71   46O :  0.71  484O :  0.70  523O :  0.68  154O :  0.67  250O :  0.65   19O :  0.63   58O :  0.63  406O :  0.61
  211O :  0.61  364O :  0.61  163O :  0.60  199O :  0.59  346O :  0.59  172O :  0.57  388O :  0.57  313O :  0.56  286O :  0.56  274O :  0.55  151O :  0.55  145O :  0.55
  472O :  0.54  280O :  0.54  307O :  0.54  277O :  0.52  496O :  0.51  481O :  0.50  256O :  0.49   16O :  0.49  397O :  0.49   94O :  0.47  130O :  0.46  334O :  0.46
  214O :  0.45  361O :  0.43  409O :  0.41  208O :  0.41   37O :  0.41  421O :  0.40  454O :  0.40  382O :  0.40  340O :  0.39  301O :  0.38  190O :  0.38   85O :  0.38
  376O :  0.38   70O :  0.37  271O :  0.37  223O :  0.36  298O :  0.34  295O :  0.34  433O :  0.34   61O :  0.33   82O :  0.33  133O :  0.32  175O :  0.31   93H :  0.29
  127O :  0.29  217O :  0.29  337O :  0.28  499O :  0.27  430O :  0.27  238O :  0.27  220O :  0.25   33H :  0.25  283O :  0.25  143H :  0.23  259O :  0.23  514O :  0.23
  331O :  0.23  109O :  0.23  349O :  0.22  511O :  0.21  478O :  0.21  528H :  0.21  391O :  0.21  244O :  0.21  463O :  0.21  520O :  0.21  355O :  0.20  183H :  0.20
  241O :  0.20   52O :  0.19  442O :  0.19  470H :  0.18  343O :  0.18  322O :  0.18   67O :  0.18  100O :  0.18  505O :  0.18  492H :  0.18   80H :  0.18  249H :  0.17
  491H :  0.17   98H :  0.17  396H :  0.17  193O :  0.16  254H :  0.16  369H :  0.16   44H :  0.16  226O :  0.16  373O :  0.15  121O :  0.15  232O :  0.15  436O :  0.15
  412O :  0.14  411H :  0.14   65H :  0.14  138H :  0.13  354H :  0.13  487O :  0.13   22O :  0.13  205O :  0.13  139O :  0.13  267H :  0.13  328O :  0.13  306H :  0.12
  161H :  0.12  312H :  0.12   12H :  0.12  197H :  0.12  379O :  0.12  319O :  0.12   15H :  0.12  439O :  0.11  420H :  0.11   56H :  0.11  115O :  0.11  415O :  0.11
  359H :  0.10  517O :  0.10   55O :  0.10   29H :  0.10   18H :  0.09  457O :  0.09    4O :  0.09  287H :  0.08   92H :  0.08  316O :  0.08  522H :  0.08  308H :  0.08
  203H :  0.08  135H :  0.08  325O :  0.07  422H :  0.07  339H :  0.07  360H :  0.07
   15 LP   *******   0.01   5.90712   7.86073  -3.78043  448O :  3.23  118O :  2.95  229O :  2.60   43O :  2.32  112O :  2.26   91O :  2.24   79O :  2.11  469O :  1.87   10O :  1.82  106O :  1.79  304O :  1.79  493O :  1.74
  490O :  1.72  148O :  1.61  460O :  1.49  202O :  1.35  103O :  1.33  418O :  1.23  292O :  1.20   49O :  1.20  466O :  1.19   31O :  1.17  247O :  1.13  157O :  1.11
   64O :  1.07  427O :  1.06  160O :  1.05    1O :  1.05   34O :  1.03  529O :  1.00  451O :  0.98  187O :  0.97   28O :  0.96  196O :  0.92  181O :  0.88  178O :  0.87
  502O :  0.85  352O :  0.85  475O :  0.83  184O :  0.82  136O :  0.82    7O :  0.82  253O :  0.82  445O :  0.81  142O :  0.81  265O :  0.80   40O :  0.80  268O :  0.79
   25O :  0.79  526O :  0.78  367O :  0.77  169O :  0.77  385O :  0.74  310O :  0.73  403O :  0.72  358O :  0.72  262O :  0.71   97O :  0.71  508O :  0.71   13O :  0.70
  166O :  0.70  394O :  0.68   88O :  0.67   76O :  0.66   46O :  0.66  484O :  0.64  523O :  0.63  154O :  0.62  250O :  0.60   19O :  0.59   58O :  0.58  406O :  0.57
  211O :  0.57  364O :  0.57  163O :  0.56  199O :  0.55  346O :  0.54  172O :  0.53  388O :  0.53  313O :  0.52  286O :  0.52  274O :  0.51  145O :  0.51  151O :  0.51
  472O :  0.50  280O :  0.50  307O :  0.50  277O :  0.48  496O :  0.47  481O :  0.46  256O :  0.46   16O :  0.45  397O :  0.45   94O :  0.43  130O :  0.43  334O :  0.42
  214O :  0.42  361O :  0.39  454O :  0.39  409O :  0.38  208O :  0.38  421O :  0.38   37O :  0.38  382O :  0.37  340O :  0.36  301O :  0.36  190O :  0.35   85O :  0.35
  376O :  0.35   70O :  0.35  271O :  0.34  223O :  0.34  298O :  0.32  295O :  0.32  433O :  0.31   82O :  0.31   61O :  0.30  133O :  0.29  175O :  0.28   93H :  0.27
  127O :  0.27  217O :  0.27  337O :  0.26  430O :  0.25  499O :  0.25  238O :  0.25  220O :  0.23   33H :  0.23  283O :  0.23  143H :  0.22  259O :  0.21  514O :  0.21
  331O :  0.21  109O :  0.21  349O :  0.20  511O :  0.20  478O :  0.20  528H :  0.20  244O :  0.19  391O :  0.19  463O :  0.19  520O :  0.19  183H :  0.18  355O :  0.18
  241O :  0.18   52O :  0.18  442O :  0.17  470H :  0.17  343O :  0.17  322O :  0.17   67O :  0.16  100O :  0.16  492H :  0.16  505O :  0.16   80H :  0.16  249H :  0.16
  491H :  0.16   98H :  0.16  396H :  0.15   44H :  0.15  193O :  0.15  254H :  0.15  369H :  0.15  226O :  0.15  373O :  0.14  121O :  0.14  232O :  0.14  436O :  0.14
  412O :  0.13   65H :  0.13  411H :  0.13  138H :  0.12  354H :  0.12  487O :  0.12   22O :  0.12  205O :  0.12  139O :  0.12  267H :  0.12  328O :  0.12  306H :  0.11
  161H :  0.11  312H :  0.11   12H :  0.11  197H :  0.11  379O :  0.11  319O :  0.11   15H :  0.11  439O :  0.10  420H :  0.10   56H :  0.10  115O :  0.10  415O :  0.10
  359H :  0.09  517O :  0.09   55O :  0.09   29H :  0.09   18H :  0.09  457O :  0.08    4O :  0.08  287H :  0.08   92H :  0.08  316O :  0.08  522H :  0.08  308H :  0.07
  203H :  0.07
   16 LP   *******   0.01   2.04318  12.49945  -6.41500  118O :  4.75  229O :  2.55   43O :  2.32  112O :  2.21   91O :  2.19   79O :  2.06  469O :  1.83   10O :  1.78  106O :  1.75  304O :  1.75  493O :  1.71  490O :  1.67
  148O :  1.57  460O :  1.46  448O :  1.38  202O :  1.32  103O :  1.30  418O :  1.21  292O :  1.18   49O :  1.17  466O :  1.17   31O :  1.15  247O :  1.11  157O :  1.09
   64O :  1.05  427O :  1.04  160O :  1.03    1O :  1.02   34O :  1.00  529O :  0.98  451O :  0.96  187O :  0.95   28O :  0.94  178O :  0.90  196O :  0.90  181O :  0.86
  502O :  0.83  352O :  0.83  475O :  0.82  136O :  0.81  184O :  0.80    7O :  0.80  253O :  0.80  445O :  0.80  142O :  0.79  265O :  0.79   40O :  0.78  268O :  0.77
   25O :  0.77  526O :  0.77  367O :  0.75  169O :  0.75  310O :  0.71  403O :  0.71  358O :  0.70   97O :  0.70  262O :  0.70  508O :  0.69  385O :  0.69   13O :  0.69
  166O :  0.68  394O :  0.67   88O :  0.66   76O :  0.65   46O :  0.65  484O :  0.63  523O :  0.61  154O :  0.61  250O :  0.59   19O :  0.57   58O :  0.57  406O :  0.56
  211O :  0.56  364O :  0.56  163O :  0.55  199O :  0.53  346O :  0.53  172O :  0.52  388O :  0.51  313O :  0.51  286O :  0.51  274O :  0.50  145O :  0.50  151O :  0.50
  472O :  0.49  280O :  0.49  307O :  0.49  277O :  0.47  496O :  0.46  481O :  0.45  256O :  0.45   16O :  0.44  397O :  0.44   94O :  0.42  130O :  0.42  334O :  0.41
  214O :  0.41  361O :  0.39  454O :  0.38  409O :  0.37  208O :  0.37   37O :  0.37  421O :  0.37  382O :  0.36  340O :  0.36  301O :  0.35  190O :  0.35   85O :  0.34
  376O :  0.34   70O :  0.34  271O :  0.33  223O :  0.33  298O :  0.31  295O :  0.31  433O :  0.31   82O :  0.30   61O :  0.30  133O :  0.29  175O :  0.28   93H :  0.26
  127O :  0.26  217O :  0.26  337O :  0.26  430O :  0.24  499O :  0.24  238O :  0.24  220O :  0.23   33H :  0.23  283O :  0.22  143H :  0.21  259O :  0.21  514O :  0.21
  331O :  0.21  109O :  0.21  349O :  0.20  511O :  0.19  528H :  0.19  391O :  0.19  244O :  0.19  463O :  0.19  478O :  0.19  520O :  0.19  355O :  0.18  183H :  0.18
  241O :  0.18   52O :  0.17  442O :  0.17  470H :  0.17  343O :  0.16  322O :  0.16   67O :  0.16  492H :  0.16  100O :  0.16  505O :  0.16   80H :  0.16  249H :  0.16
  491H :  0.16   98H :  0.15  396H :  0.15   44H :  0.15  193O :  0.15  254H :  0.15  369H :  0.15  226O :  0.14  373O :  0.14  121O :  0.14  232O :  0.14  436O :  0.13
  412O :  0.13   65H :  0.13  138H :  0.12  411H :  0.12  354H :  0.12  487O :  0.12   22O :  0.12  205O :  0.12  139O :  0.11  267H :  0.11  328O :  0.11  306H :  0.11
  161H :  0.11  312H :  0.11   12H :  0.11  197H :  0.11  379O :  0.11  319O :  0.11   15H :  0.11  439O :  0.10  420H :  0.10   56H :  0.10  115O :  0.10  415O :  0.10
  359H :  0.09  517O :  0.09   55O :  0.09   29H :  0.09   18H :  0.08  457O :  0.08    4O :  0.08  287H :  0.08   92H :  0.08  316O :  0.07  522H :  0.07  308H :  0.07
   17 LP   *******   0.01   5.82876 -11.98777  -2.36870  304O :  3.54  118O :  2.78  229O :  2.50   43O :  2.23  112O :  2.17   91O :  2.15   79O :  2.02  469O :  1.80   10O :  1.74  493O :  1.67  490O :  1.63  106O :  1.59
  148O :  1.55  460O :  1.43  448O :  1.36  202O :  1.30  103O :  1.28  418O :  1.18  292O :  1.15   49O :  1.15  466O :  1.15   31O :  1.13  247O :  1.09  157O :  1.07
   64O :  1.03  427O :  1.02  160O :  1.01    1O :  1.00   34O :  0.99  529O :  0.96  451O :  0.94  187O :  0.93   28O :  0.92  178O :  0.88  196O :  0.88  181O :  0.84
  502O :  0.81  352O :  0.81  475O :  0.80  136O :  0.79  184O :  0.79    7O :  0.79  253O :  0.78  445O :  0.78  142O :  0.78  265O :  0.77   40O :  0.76  268O :  0.76
   25O :  0.75  526O :  0.75  367O :  0.74  169O :  0.74  306H :  0.73  310O :  0.70  403O :  0.69  358O :  0.69  385O :  0.69   97O :  0.68  262O :  0.68  508O :  0.68
   13O :  0.67  166O :  0.67  394O :  0.66   88O :  0.64   76O :  0.64   46O :  0.64  484O :  0.62  523O :  0.60  154O :  0.60  250O :  0.58   19O :  0.56   58O :  0.56
  406O :  0.55  211O :  0.55  364O :  0.55  163O :  0.54  199O :  0.52  346O :  0.52  172O :  0.51  388O :  0.50  313O :  0.50  286O :  0.50  274O :  0.49  145O :  0.49
  151O :  0.49  472O :  0.48  280O :  0.48  307O :  0.48  277O :  0.47  496O :  0.45  481O :  0.45  256O :  0.44   16O :  0.44  397O :  0.44   94O :  0.42  130O :  0.41
  334O :  0.41  214O :  0.40  361O :  0.38  454O :  0.37  409O :  0.36  208O :  0.36  421O :  0.36   37O :  0.36  382O :  0.35  340O :  0.35  301O :  0.34  190O :  0.34
   85O :  0.34  376O :  0.34   70O :  0.33  271O :  0.32  223O :  0.32  298O :  0.31  295O :  0.30  433O :  0.30   82O :  0.30   61O :  0.29  133O :  0.29  175O :  0.27
   93H :  0.26  127O :  0.26  217O :  0.26  337O :  0.25  430O :  0.24  499O :  0.24  238O :  0.24  220O :  0.23   33H :  0.22  283O :  0.22  143H :  0.21  259O :  0.21
  514O :  0.20  331O :  0.20  109O :  0.20  349O :  0.19  511O :  0.19  478O :  0.19  528H :  0.19  391O :  0.19  244O :  0.19  463O :  0.18  520O :  0.18  183H :  0.18
  355O :  0.18  241O :  0.18   52O :  0.17  442O :  0.17  470H :  0.16  343O :  0.16  322O :  0.16   67O :  0.16  492H :  0.16  505O :  0.16   80H :  0.16  100O :  0.16
  249H :  0.15  491H :  0.15   98H :  0.15  396H :  0.15  193O :  0.14  254H :  0.14  369H :  0.14   44H :  0.14  226O :  0.14  373O :  0.14  232O :  0.13  121O :  0.13
  436O :  0.13  412O :  0.13   65H :  0.13  411H :  0.12  138H :  0.12  354H :  0.12  487O :  0.12   22O :  0.11  205O :  0.11  139O :  0.11  267H :  0.11  328O :  0.11
  161H :  0.11   12H :  0.11  312H :  0.11  197H :  0.11  379O :  0.11  319O :  0.11   15H :  0.10  439O :  0.10   56H :  0.10  420H :  0.10  115O :  0.10  415O :  0.10
  359H :  0.09  517O :  0.09   55O :  0.09   29H :  0.09   18H :  0.08  457O :  0.08    4O :  0.08  287H :  0.08   92H :  0.07  316O :  0.07  522H :  0.07
   18 LP   *******   0.01 -12.07465  -4.45737  -5.83155  466O :  3.09  118O :  2.72  229O :  2.45   43O :  2.18  112O :  2.13   91O :  2.10   79O :  1.98  469O :  1.76   10O :  1.71  106O :  1.68  304O :  1.68  493O :  1.64
  490O :  1.60  148O :  1.51  460O :  1.40  448O :  1.33  202O :  1.27  103O :  1.25  418O :  1.16  292O :  1.13   49O :  1.12   31O :  1.10  247O :  1.07  157O :  1.05
   64O :  1.00  427O :  1.00  160O :  0.99    1O :  0.98   34O :  0.96  529O :  0.94  451O :  0.92  187O :  0.91   28O :  0.90  178O :  0.86  196O :  0.86  181O :  0.83
  502O :  0.80  352O :  0.80  475O :  0.78  136O :  0.77  184O :  0.77    7O :  0.77  253O :  0.77  445O :  0.77  142O :  0.76  265O :  0.75   40O :  0.75  268O :  0.74
   25O :  0.74  526O :  0.74  367O :  0.72  169O :  0.72  310O :  0.68  403O :  0.68  358O :  0.68  385O :  0.67   97O :  0.67  262O :  0.67  508O :  0.67   13O :  0.66
  166O :  0.65  394O :  0.65   88O :  0.63   76O :  0.62   46O :  0.62  484O :  0.61  523O :  0.59  154O :  0.58  250O :  0.57   19O :  0.55   58O :  0.55  406O :  0.53
  211O :  0.53  364O :  0.53  163O :  0.52  199O :  0.51  346O :  0.51  172O :  0.50  388O :  0.49  313O :  0.49  286O :  0.49  274O :  0.48  145O :  0.48  151O :  0.48
  472O :  0.47  280O :  0.47  307O :  0.47  277O :  0.45  496O :  0.44  481O :  0.44  256O :  0.43  397O :  0.43   16O :  0.43   94O :  0.41  130O :  0.40  334O :  0.40
  214O :  0.39  361O :  0.37  454O :  0.37  409O :  0.36  208O :  0.36   37O :  0.35  421O :  0.35  382O :  0.35  340O :  0.34  301O :  0.33  190O :  0.33   85O :  0.33
  376O :  0.33   70O :  0.33  271O :  0.32  223O :  0.32  298O :  0.30  295O :  0.30  433O :  0.29   82O :  0.29   61O :  0.29  133O :  0.28  175O :  0.27   93H :  0.25
  127O :  0.25  217O :  0.25  396H :  0.25  337O :  0.25  430O :  0.23  499O :  0.23  238O :  0.23  220O :  0.22   33H :  0.22  283O :  0.22  143H :  0.21  259O :  0.20
  514O :  0.20  331O :  0.20  109O :  0.20  349O :  0.19  511O :  0.19  478O :  0.19  528H :  0.19  391O :  0.18  244O :  0.18  463O :  0.18  520O :  0.18  183H :  0.17
  355O :  0.17  241O :  0.17   52O :  0.17  442O :  0.16  470H :  0.16  343O :  0.16  322O :  0.16   67O :  0.15  100O :  0.15  505O :  0.15  492H :  0.15   80H :  0.15
  249H :  0.15  491H :  0.15   98H :  0.15  193O :  0.14  369H :  0.14  254H :  0.14   44H :  0.14  226O :  0.14  373O :  0.13  121O :  0.13  232O :  0.13  436O :  0.13
  412O :  0.12   65H :  0.12  411H :  0.12  138H :  0.12  354H :  0.12  487O :  0.11   22O :  0.11  205O :  0.11  139O :  0.11  267H :  0.11  328O :  0.11  306H :  0.11
  312H :  0.11  161H :  0.11   12H :  0.11  197H :  0.11  379O :  0.10  319O :  0.10   15H :  0.10  439O :  0.10  420H :  0.10   56H :  0.10  115O :  0.09  415O :  0.09
  359H :  0.09  517O :  0.09   55O :  0.09   29H :  0.08   18H :  0.08  457O :  0.08    4O :  0.08  287H :  0.07   92H :  0.07  316O :  0.07  522H :  0.07
   19 LP   *******   0.01   4.51315   9.33490   6.14700  202O :  2.99  118O :  2.65  229O :  2.38   43O :  2.12  112O :  2.07   91O :  2.05   79O :  1.93  469O :  1.72   10O :  1.66  106O :  1.64  304O :  1.64  493O :  1.60
  490O :  1.56  148O :  1.47  460O :  1.37  448O :  1.29  103O :  1.22  418O :  1.13  292O :  1.10   49O :  1.10  466O :  1.09   31O :  1.07  247O :  1.04  157O :  1.02
   64O :  0.98  427O :  0.97  160O :  0.97    1O :  0.96   34O :  0.93  529O :  0.92  451O :  0.90  187O :  0.89   28O :  0.88  178O :  0.84  196O :  0.84  181O :  0.80
  502O :  0.78  352O :  0.78  475O :  0.76  184O :  0.75  136O :  0.75    7O :  0.75  253O :  0.75  445O :  0.75  142O :  0.74  265O :  0.73   40O :  0.73  268O :  0.72
   25O :  0.72  526O :  0.72  367O :  0.70  169O :  0.70  310O :  0.66  403O :  0.66  358O :  0.66  385O :  0.66   97O :  0.65  262O :  0.65  508O :  0.65   13O :  0.64
  166O :  0.64  394O :  0.63   88O :  0.61   76O :  0.61   46O :  0.61  484O :  0.59  523O :  0.57  154O :  0.56  250O :  0.55   19O :  0.54   58O :  0.53  406O :  0.52
  211O :  0.52  364O :  0.52  163O :  0.51  199O :  0.50  346O :  0.50  172O :  0.48  388O :  0.48  313O :  0.48  286O :  0.47  274O :  0.47  145O :  0.46  151O :  0.46
  472O :  0.46  280O :  0.46  307O :  0.45  277O :  0.44  496O :  0.43  481O :  0.42  256O :  0.42   16O :  0.42  397O :  0.41   94O :  0.40  130O :  0.39  334O :  0.39
  214O :  0.38  361O :  0.36  454O :  0.36  409O :  0.35  208O :  0.35  421O :  0.35   37O :  0.34  382O :  0.34  340O :  0.33  301O :  0.33  190O :  0.32   85O :  0.32
  376O :  0.32   70O :  0.32  271O :  0.31  223O :  0.31  298O :  0.29  295O :  0.29  433O :  0.29   82O :  0.28   61O :  0.28  133O :  0.27  175O :  0.26   93H :  0.25
  127O :  0.25  217O :  0.24  337O :  0.24  430O :  0.23  499O :  0.23  238O :  0.23  220O :  0.21   33H :  0.21  283O :  0.21  143H :  0.20  259O :  0.20  514O :  0.19
  331O :  0.19  109O :  0.19  349O :  0.19  511O :  0.18  478O :  0.18  528H :  0.18  391O :  0.18  244O :  0.18  463O :  0.18  520O :  0.17  183H :  0.17  355O :  0.17
  241O :  0.17   52O :  0.16  470H :  0.16  442O :  0.16  343O :  0.15  322O :  0.15   67O :  0.15  100O :  0.15  505O :  0.15   80H :  0.15  492H :  0.15  249H :  0.15
  491H :  0.15   98H :  0.14  396H :  0.14  193O :  0.14  254H :  0.14  369H :  0.14   44H :  0.14  226O :  0.13  373O :  0.13  121O :  0.13  232O :  0.13  436O :  0.13
  412O :  0.12   65H :  0.12  411H :  0.12  138H :  0.11  354H :  0.11  487O :  0.11   22O :  0.11  205O :  0.11  139O :  0.11  267H :  0.11  328O :  0.11  306H :  0.10
  161H :  0.10  312H :  0.10  319O :  0.10   12H :  0.10  197H :  0.10  379O :  0.10   15H :  0.10  439O :  0.10  420H :  0.09   56H :  0.09  115O :  0.09  415O :  0.09
  359H :  0.08  517O :  0.08   29H :  0.08   55O :  0.08   18H :  0.08  457O :  0.08    4O :  0.07  287H :  0.07   92H :  0.07  316O :  0.07  522H :  0.07
   20 LP   *******   0.01  10.92137   6.58122 -13.81805  460O :  3.23  118O :  2.62  229O :  2.35   43O :  2.10  112O :  2.05   91O :  2.02   79O :  1.90  469O :  1.69   10O :  1.64  106O :  1.62  304O :  1.62  493O :  1.58
  490O :  1.53  148O :  1.45  448O :  1.28  202O :  1.22  103O :  1.20  418O :  1.11  292O :  1.09   49O :  1.08  466O :  1.08   31O :  1.06  247O :  1.02  157O :  1.00
   64O :  0.97  427O :  0.96  160O :  0.95    1O :  0.94   34O :  0.93  529O :  0.91  451O :  0.89  187O :  0.88   28O :  0.87  178O :  0.83  196O :  0.83  181O :  0.79
  502O :  0.77  352O :  0.77  475O :  0.75  136O :  0.74  184O :  0.74    7O :  0.74  253O :  0.74  445O :  0.74  142O :  0.73  265O :  0.73   40O :  0.72  268O :  0.71
   25O :  0.71  526O :  0.71  367O :  0.70  169O :  0.69  310O :  0.66  403O :  0.65  385O :  0.65   97O :  0.64  262O :  0.64  508O :  0.64  358O :  0.64   13O :  0.64
  166O :  0.63  394O :  0.62   88O :  0.61   76O :  0.60   46O :  0.60  484O :  0.58  523O :  0.57  154O :  0.56  250O :  0.54   19O :  0.53   58O :  0.53  406O :  0.51
  211O :  0.51  364O :  0.51  163O :  0.50  199O :  0.49  346O :  0.49  172O :  0.48  388O :  0.47  313O :  0.47  286O :  0.47  274O :  0.46  151O :  0.46  145O :  0.46
  472O :  0.45  280O :  0.45  307O :  0.45  277O :  0.43  496O :  0.42  481O :  0.42  256O :  0.41   16O :  0.41  397O :  0.41   94O :  0.39  130O :  0.39  334O :  0.38
  214O :  0.38  361O :  0.36  454O :  0.35  409O :  0.34  208O :  0.34  421O :  0.34   37O :  0.34  382O :  0.33  340O :  0.33  301O :  0.32  190O :  0.32   85O :  0.32
  376O :  0.32   70O :  0.31  271O :  0.31  223O :  0.30  298O :  0.29  295O :  0.28  433O :  0.28   82O :  0.28   61O :  0.28  133O :  0.27  175O :  0.26   93H :  0.24
  127O :  0.24  217O :  0.24  337O :  0.24  499O :  0.23  430O :  0.23  238O :  0.22  220O :  0.21   33H :  0.21  283O :  0.21  143H :  0.19  259O :  0.19  514O :  0.19
  331O :  0.19  109O :  0.19  349O :  0.18  511O :  0.18  478O :  0.18  528H :  0.18  391O :  0.17  463O :  0.17  520O :  0.17  244O :  0.17  183H :  0.17  355O :  0.17
  241O :  0.17   52O :  0.16  442O :  0.16  470H :  0.15  343O :  0.15  322O :  0.15   67O :  0.15  100O :  0.15  505O :  0.15  492H :  0.15   80H :  0.15  249H :  0.15
  491H :  0.14   98H :  0.14  396H :  0.14  254H :  0.14  193O :  0.14  369H :  0.14   44H :  0.13  226O :  0.13  373O :  0.13  121O :  0.13  232O :  0.13  436O :  0.12
  412O :  0.12   65H :  0.12  411H :  0.11  138H :  0.11  354H :  0.11  487O :  0.11   22O :  0.11  205O :  0.11  139O :  0.11  267H :  0.11  328O :  0.11  306H :  0.10
  161H :  0.10  312H :  0.10   12H :  0.10  197H :  0.10  319O :  0.10  379O :  0.10   15H :  0.10  439O :  0.09  420H :  0.09   56H :  0.09  115O :  0.09  415O :  0.09
  359H :  0.08  517O :  0.08   55O :  0.08   29H :  0.08   18H :  0.08  457O :  0.07    4O :  0.07  287H :  0.07
   21 LP   *******   0.01   2.49636   7.85537  -1.77433  490O :  2.99  118O :  2.52  229O :  2.26   43O :  2.01  112O :  1.96   91O :  1.94   79O :  1.82  469O :  1.62   10O :  1.57  106O :  1.55  304O :  1.55  493O :  1.51
  148O :  1.39  460O :  1.29  448O :  1.25  202O :  1.17  103O :  1.15  418O :  1.07  292O :  1.04   49O :  1.04  466O :  1.03   31O :  1.02  247O :  0.98  157O :  0.96
   64O :  0.93  427O :  0.92  160O :  0.91    1O :  0.91   34O :  0.89  529O :  0.87  451O :  0.85  187O :  0.84   28O :  0.83  178O :  0.79  196O :  0.79  181O :  0.76
  502O :  0.73  352O :  0.73  136O :  0.72  475O :  0.72  184O :  0.71    7O :  0.71  253O :  0.71  445O :  0.71  142O :  0.70  265O :  0.70   40O :  0.69  268O :  0.68
   25O :  0.68  526O :  0.68  367O :  0.67  169O :  0.67  310O :  0.63  403O :  0.62  358O :  0.62  385O :  0.62  262O :  0.62  508O :  0.61   97O :  0.61   13O :  0.61
  166O :  0.60  394O :  0.59   88O :  0.58   76O :  0.57   46O :  0.57  484O :  0.56  523O :  0.54  154O :  0.54  250O :  0.52   19O :  0.51   58O :  0.50  406O :  0.49
  211O :  0.49  364O :  0.49  163O :  0.48  346O :  0.48  199O :  0.47  172O :  0.46  388O :  0.46  313O :  0.45  286O :  0.45  274O :  0.44  145O :  0.44  151O :  0.44
  472O :  0.44  280O :  0.43  307O :  0.43  277O :  0.41  496O :  0.41  481O :  0.40  256O :  0.40   16O :  0.39  397O :  0.39   94O :  0.37  130O :  0.37  334O :  0.37
  214O :  0.36  361O :  0.34  454O :  0.34  409O :  0.33  208O :  0.33  421O :  0.33   37O :  0.32  382O :  0.32  340O :  0.31  301O :  0.31  190O :  0.31   85O :  0.30
  376O :  0.30   70O :  0.30  271O :  0.30  223O :  0.29  298O :  0.28  295O :  0.27  433O :  0.27   82O :  0.27   61O :  0.26  133O :  0.26  175O :  0.25   93H :  0.23
  127O :  0.23  217O :  0.23  337O :  0.23  430O :  0.22  499O :  0.22  238O :  0.21  220O :  0.20   33H :  0.20  283O :  0.20  143H :  0.19  259O :  0.19  514O :  0.18
  331O :  0.18  109O :  0.18  349O :  0.18  511O :  0.17  478O :  0.17  528H :  0.17  244O :  0.17  391O :  0.17  463O :  0.17  520O :  0.16  355O :  0.16  183H :  0.16
  241O :  0.16  491H :  0.16   52O :  0.15  442O :  0.15  343O :  0.15  322O :  0.15  470H :  0.14   67O :  0.14  100O :  0.14  505O :  0.14   80H :  0.14  249H :  0.14
  396H :  0.13   98H :  0.13  193O :  0.13  254H :  0.13  369H :  0.13   44H :  0.13  226O :  0.13  373O :  0.12  121O :  0.12  232O :  0.12  436O :  0.12  412O :  0.12
   65H :  0.11  411H :  0.11  138H :  0.11  354H :  0.11  487O :  0.11  492H :  0.11   22O :  0.10  205O :  0.10  449H :  0.10  139O :  0.10  267H :  0.10  328O :  0.10
  306H :  0.10  161H :  0.10  312H :  0.10   12H :  0.10  197H :  0.10  379O :  0.10  319O :  0.10   15H :  0.09  439O :  0.09  420H :  0.09   56H :  0.09  115O :  0.09
  415O :  0.09  359H :  0.08  517O :  0.08   55O :  0.08   29H :  0.08   18H :  0.07  457O :  0.07    4O :  0.07
   22 LP   *******   0.01 -15.04425  -1.59301  -2.66277  157O :  2.84  118O :  2.42  229O :  2.18   43O :  1.94  112O :  1.89   91O :  1.87   79O :  1.76  469O :  1.57   10O :  1.52  106O :  1.50  304O :  1.49  493O :  1.46
  490O :  1.42  148O :  1.35  460O :  1.25  448O :  1.18  202O :  1.13  103O :  1.11  418O :  1.03  466O :  1.01  292O :  1.00   49O :  1.00   31O :  0.98  247O :  0.95
   64O :  0.89  427O :  0.89  160O :  0.88    1O :  0.87   34O :  0.86  529O :  0.84  451O :  0.82  187O :  0.81   28O :  0.80  178O :  0.77  196O :  0.77  181O :  0.73
  502O :  0.71  352O :  0.71  253O :  0.70  475O :  0.70  142O :  0.69  136O :  0.69  184O :  0.69    7O :  0.68  445O :  0.68  265O :  0.67   40O :  0.66  268O :  0.66
[...]
   144   1 h    0.886 --   142 o    0.821
   145   8 o    1.847 --   146 h    0.858   147 h    0.816
   146   1 h    0.896 --   145 o    0.858
   147   1 h    0.887 --   145 o    0.816
   148   8 o    1.858 --   150 h    0.875   149 h    0.826
   149   1 h    0.887 --   148 o    0.826
   150   1 h    0.900 --   148 o    0.875
   151   8 o    1.882 --   153 h    0.814   152 h    0.795
   152   1 h    0.879 --   151 o    0.795
   153   1 h    0.887 --   151 o    0.814
   154   8 o    1.837 --   155 h    0.883   156 h    0.789
   155   1 h    0.905 --   154 o    0.883
   156   1 h    0.878 --   154 o    0.789
   157   8 o    1.889 --   159 h    0.859   158 h    0.821
   158   1 h    0.882 --   157 o    0.821
   159   1 h    0.898 --   157 o    0.859
   160   8 o    1.858 --   162 h    0.837   161 h    0.832
   161   1 h    0.885 --   160 o    0.832
   162   1 h    0.881 --   160 o    0.837
   163   8 o    1.841 --   165 h    0.829   164 h    0.826
   164   1 h    0.888 --   163 o    0.826
   165   1 h    0.890 --   163 o    0.829
   166   8 o    1.815 --   167 h    0.846   168 h    0.842
   167   1 h    0.885 --   166 o    0.846
   168   1 h    0.900 --   166 o    0.842
   169   8 o    1.856 --   170 h    0.856   171 h    0.853
   170   1 h    0.899 --   169 o    0.856
   171   1 h    0.901 --   169 o    0.853
   172   8 o    1.849 --   174 h    0.876   173 h    0.839
   173   1 h    0.891 --   172 o    0.839
   174   1 h    0.901 --   172 o    0.876
   175   8 o    1.834 --   177 h    0.881   176 h    0.812
   176   1 h    0.877 --   175 o    0.812
   177   1 h    0.902 --   175 o    0.881
   178   8 o    1.840 --   179 h    0.817   180 h    0.805
   179   1 h    0.890 --   178 o    0.817
   180   1 h    0.882 --   178 o    0.805
   181   8 o    1.896 --   182 h    0.819   183 h    0.787
   182   1 h    0.883 --   181 o    0.819
   183   1 h    0.870 --   181 o    0.787
   184   8 o    1.874 --   185 h    0.836   186 h    0.802
   185   1 h    0.887 --   184 o    0.836
   186   1 h    0.881 --   184 o    0.802
   187   8 o    1.854 --   189 h    0.877   188 h    0.870
   188   1 h    0.900 --   187 o    0.870
   189   1 h    0.897 --   187 o    0.877
   190   8 o    1.888 --   191 h    0.815   192 h    0.809
   191   1 h    0.879 --   190 o    0.815
   192   1 h    0.889 --   190 o    0.809
   193   8 o    1.878 --   195 h    0.844   194 h    0.768
   194   1 h    0.870 --   193 o    0.768
   195   1 h    0.890 --   193 o    0.844
   196   8 o    1.880 --   198 h    0.819   197 h    0.780
   197   1 h    0.878 --   196 o    0.780
   198   1 h    0.879 --   196 o    0.819
   199   8 o    1.870 --   200 h    0.867   201 h    0.812
   200   1 h    0.892 --   199 o    0.867
   201   1 h    0.881 --   199 o    0.812
   202   8 o    1.856 --   204 h    0.839   203 h    0.838
   203   1 h    0.893 --   202 o    0.838
   204   1 h    0.894 --   202 o    0.839
   205   8 o    1.873 --   207 h    0.904   206 h    0.781
   206   1 h    0.874 --   205 o    0.781
   207   1 h    0.914 --   205 o    0.904
   208   8 o    1.850 --   210 h    0.810   209 h    0.803
   209   1 h    0.878 --   208 o    0.803
   210   1 h    0.874 --   208 o    0.810
   211   8 o    1.834 --   213 h    0.896   212 h    0.771
   212   1 h    0.868 --   211 o    0.771
   213   1 h    0.911 --   211 o    0.896
   214   8 o    1.854 --   215 h    0.846   216 h    0.787
   215   1 h    0.894 --   214 o    0.846
   216   1 h    0.871 --   214 o    0.787
   217   8 o    1.808 --   219 h    0.866   218 h    0.807
   218   1 h    0.880 --   217 o    0.807
   219   1 h    0.901 --   217 o    0.866
   220   8 o    1.863 --   221 h    0.862   222 h    0.793
   221   1 h    0.894 --   220 o    0.862
   222   1 h    0.873 --   220 o    0.793
   223   8 o    1.876 --   225 h    0.881   224 h    0.800
   224   1 h    0.872 --   223 o    0.800
   225   1 h    0.903 --   223 o    0.881
   226   8 o    1.850 --   227 h    0.869   228 h    0.869
   227   1 h    0.889 --   226 o    0.869
   228   1 h    0.900 --   226 o    0.869
   229   8 o    1.850 --   230 h    0.833   231 h    0.810
   230   1 h    0.892 --   229 o    0.833
   231   1 h    0.883 --   229 o    0.810
   232   8 o    1.876 --   234 h    0.843   233 h    0.794
   233   1 h    0.882 --   232 o    0.794
   234   1 h    0.893 --   232 o    0.843
   235   8 o    1.872 --   237 h    0.893   236 h    0.813
   236   1 h    0.881 --   235 o    0.813
   237   1 h    0.902 --   235 o    0.893
   238   8 o    1.865 --   240 h    0.847   239 h    0.758
   239   1 h    0.864 --   238 o    0.758
   240   1 h    0.888 --   238 o    0.847
   241   8 o    1.847 --   242 h    0.859   243 h    0.825
   242   1 h    0.897 --   241 o    0.859
   243   1 h    0.891 --   241 o    0.825
   244   8 o    1.837 --   246 h    0.858   245 h    0.846
   245   1 h    0.880 --   244 o    0.846
   246   1 h    0.901 --   244 o    0.858
   247   8 o    1.842 --   249 h    0.830   248 h    0.823
   248   1 h    0.883 --   247 o    0.823
   249   1 h    0.886 --   247 o    0.830
   250   8 o    1.876 --   251 h    0.893   252 h    0.838
   251   1 h    0.904 --   250 o    0.893
   252   1 h    0.892 --   250 o    0.838
   253   8 o    1.841 --   255 h    0.877   254 h    0.812
   254   1 h    0.883 --   253 o    0.812
   255   1 h    0.905 --   253 o    0.877
   256   8 o    1.856 --   257 h    0.848   258 h    0.789
   257   1 h    0.894 --   256 o    0.848
   258   1 h    0.873 --   256 o    0.789
   259   8 o    1.869 --   260 h    0.840   261 h    0.793
   260   1 h    0.895 --   259 o    0.840
   261   1 h    0.879 --   259 o    0.793
   262   8 o    1.849 --   264 h    0.882   263 h    0.824
   263   1 h    0.886 --   262 o    0.824
   264   1 h    0.900 --   262 o    0.882
   265   8 o    1.874 --   267 h    0.879   266 h    0.785
   266   1 h    0.875 --   265 o    0.785
   267   1 h    0.905 --   265 o    0.879
   268   8 o    1.885 --   270 h    0.876   269 h    0.815
   269   1 h    0.874 --   268 o    0.815
   270   1 h    0.899 --   268 o    0.876
   271   8 o    1.851 --   273 h    0.871   272 h    0.842
   272   1 h    0.887 --   271 o    0.842
   273   1 h    0.897 --   271 o    0.871
   274   8 o    1.878 --   276 h    0.866   275 h    0.832
   275   1 h    0.872 --   274 o    0.832
   276   1 h    0.898 --   274 o    0.866
   277   8 o    1.827 --   279 h    0.867   278 h    0.802
   278   1 h    0.880 --   277 o    0.802
   279   1 h    0.899 --   277 o    0.867
   280   8 o    1.853 --   281 h    0.869   282 h    0.808
   281   1 h    0.900 --   280 o    0.869
   282   1 h    0.888 --   280 o    0.808
   283   8 o    1.844 --   285 h    0.901   284 h    0.834
   284   1 h    0.886 --   283 o    0.834
   285   1 h    0.913 --   283 o    0.901
   286   8 o    1.865 --   287 h    0.910   288 h    0.783
   287   1 h    0.916 --   286 o    0.910
   288   1 h    0.878 --   286 o    0.783
   289   8 o    1.856 --   291 h    0.858   290 h    0.838
   290   1 h    0.889 --   289 o    0.838
   291   1 h    0.896 --   289 o    0.858
   292   8 o    1.851 --   293 h    0.838   294 h    0.802
   293   1 h    0.896 --   292 o    0.838
   294   1 h    0.881 --   292 o    0.802
   295   8 o    1.868 --   296 h    0.816   297 h    0.790
   296   1 h    0.879 --   295 o    0.816
   297   1 h    0.874 --   295 o    0.790
   298   8 o    1.859 --   299 h    0.837   300 h    0.821
   299   1 h    0.895 --   298 o    0.837
   300   1 h    0.876 --   298 o    0.821
   301   8 o    1.873 --   303 h    0.868   302 h    0.799
   302   1 h    0.880 --   301 o    0.799
   303   1 h    0.899 --   301 o    0.868
   304   8 o    1.873 --   306 h    0.824   305 h    0.785
   305   1 h    0.872 --   304 o    0.785
   306   1 h    0.894 --   304 o    0.824
   307   8 o    1.872 --   309 h    0.852   308 h    0.847
   308   1 h    0.892 --   307 o    0.847
   309   1 h    0.889 --   307 o    0.852
   310   8 o    1.854 --   312 h    0.830   311 h    0.811
   311   1 h    0.879 --   310 o    0.811
   312   1 h    0.884 --   310 o    0.830
   313   8 o    1.826 --   315 h    0.839   314 h    0.757
   314   1 h    0.877 --   313 o    0.757    79 o    0.108
   315   1 h    0.897 --   313 o    0.839
   316   8 o    1.856 --   317 h    0.846   318 h    0.837
   317   1 h    0.893 --   316 o    0.846
   318   1 h    0.892 --   316 o    0.837
   319   8 o    1.853 --   321 h    0.855   320 h    0.834
   320   1 h    0.890 --   319 o    0.834
   321   1 h    0.899 --   319 o    0.855
   322   8 o    1.878 --   324 h    0.914   323 h    0.798
   323   1 h    0.874 --   322 o    0.798
   324   1 h    0.918 --   322 o    0.914
   325   8 o    1.845 --   326 h    0.826   327 h    0.766
   326   1 h    0.885 --   325 o    0.826
   327   1 h    0.864 --   325 o    0.766
   328   8 o    1.842 --   330 h    0.867   329 h    0.863
   329   1 h    0.901 --   328 o    0.863
   330   1 h    0.903 --   328 o    0.867
   331   8 o    1.887 --   332 h    0.831   333 h    0.804
   332   1 h    0.887 --   331 o    0.831
   333   1 h    0.880 --   331 o    0.804
   334   8 o    1.867 --   336 h    0.886   335 h    0.811
   335   1 h    0.890 --   334 o    0.811
   336   1 h    0.905 --   334 o    0.886
   337   8 o    1.847 --   339 h    0.850   338 h    0.803
   338   1 h    0.881 --   337 o    0.803
   339   1 h    0.898 --   337 o    0.850
   340   8 o    1.829 --   341 h    0.833   342 h    0.814
   341   1 h    0.881 --   340 o    0.833
   342   1 h    0.893 --   340 o    0.814
   343   8 o    1.855 --   345 h    0.836   344 h    0.823
   344   1 h    0.875 --   343 o    0.823
   345   1 h    0.896 --   343 o    0.836
   346   8 o    1.848 --   348 h    0.842   347 h    0.794
   347   1 h    0.879 --   346 o    0.794
   348   1 h    0.899 --   346 o    0.842
   349   8 o    1.845 --   351 h    0.816   350 h    0.813
   350   1 h    0.888 --   349 o    0.813
   351   1 h    0.888 --   349 o    0.816
   352   8 o    1.862 --   354 h    0.841   353 h    0.823
   353   1 h    0.884 --   352 o    0.823
   354   1 h    0.882 --   352 o    0.841
   355   8 o    1.862 --   357 h    0.915   356 h    0.801
   356   1 h    0.875 --   355 o    0.801
   357   1 h    0.919 --   355 o    0.915
   358   8 o    1.851 --   359 h    0.871   360 h    0.843
   359   1 h    0.899 --   358 o    0.871
   360   1 h    0.897 --   358 o    0.843
   361   8 o    1.882 --   363 h    0.877   362 h    0.846
   362   1 h    0.890 --   361 o    0.846
   363   1 h    0.898 --   361 o    0.877
   364   8 o    1.861 --   365 h    0.902   366 h    0.865
   365   1 h    0.907 --   364 o    0.902
   366   1 h    0.893 --   364 o    0.865
   367   8 o    1.885 --   369 h    0.827   368 h    0.814
   368   1 h    0.888 --   367 o    0.814
   369   1 h    0.879 --   367 o    0.827
   370   8 o    1.860 --   372 h    0.913   371 h    0.795
   371   1 h    0.877 --   370 o    0.795
   372   1 h    0.918 --   370 o    0.913
   373   8 o    1.857 --   375 h    0.894   374 h    0.797
   374   1 h    0.875 --   373 o    0.797
   375   1 h    0.905 --   373 o    0.894
   376   8 o    1.850 --   377 h    0.825   378 h    0.779
   377   1 h    0.890 --   376 o    0.825
   378   1 h    0.881 --   376 o    0.779
   379   8 o    1.864 --   381 h    0.826   380 h    0.812
   380   1 h    0.881 --   379 o    0.812
   381   1 h    0.893 --   379 o    0.826
   382   8 o    1.843 --   384 h    0.916   383 h    0.818
   383   1 h    0.884 --   382 o    0.818
   384   1 h    0.923 --   382 o    0.916
   385   8 o    1.852 --   386 h    0.866   387 h    0.835
   386   1 h    0.898 --   385 o    0.866
   387   1 h    0.889 --   385 o    0.835
   388   8 o    1.887 --   389 h    0.829   390 h    0.816
   389   1 h    0.878 --   388 o    0.829
   390   1 h    0.883 --   388 o    0.816
   391   8 o    1.854 --   392 h    0.906   393 h    0.853
   392   1 h    0.913 --   391 o    0.906
   393   1 h    0.884 --   391 o    0.853
   394   8 o    1.860 --   396 h    0.838   395 h    0.832
   395   1 h    0.886 --   394 o    0.832
   396   1 h    0.892 --   394 o    0.838
   397   8 o    1.866 --   398 h    0.859   399 h    0.842
   398   1 h    0.894 --   397 o    0.859
   399   1 h    0.889 --   397 o    0.842
   400   8 o    1.845 --   402 h    0.846   401 h    0.821
   401   1 h    0.884 --   400 o    0.821
   402   1 h    0.899 --   400 o    0.846
   403   8 o    1.856 --   405 h    0.867   404 h    0.817
   404   1 h    0.886 --   403 o    0.817
   405   1 h    0.901 --   403 o    0.867
   406   8 o    1.855 --   408 h    0.880   407 h    0.818
   407   1 h    0.887 --   406 o    0.818
   408   1 h    0.901 --   406 o    0.880
   409   8 o    1.836 --   411 h    0.863   410 h    0.850
   410   1 h    0.883 --   409 o    0.850
   411   1 h    0.901 --   409 o    0.863
   412   8 o    1.878 --   414 h    0.914   413 h    0.817
   413   1 h    0.877 --   412 o    0.817
   414   1 h    0.917 --   412 o    0.914
   415   8 o    1.878 --   416 h    0.838   417 h    0.820
   416   1 h    0.878 --   415 o    0.838
   417   1 h    0.887 --   415 o    0.820
   418   8 o    1.866 --   420 h    0.852   419 h    0.816
   419   1 h    0.885 --   418 o    0.816
   420   1 h    0.889 --   418 o    0.852
   421   8 o    1.855 --   422 h    0.914   423 h    0.782
   422   1 h    0.921 --   421 o    0.914
   423   1 h    0.877 --   421 o    0.782
   424   8 o    1.862 --   426 h    0.914   425 h    0.842
   425   1 h    0.880 --   424 o    0.842
   426   1 h    0.919 --   424 o    0.914
   427   8 o    1.840 --   429 h    0.828   428 h    0.816
   428   1 h    0.891 --   427 o    0.816
   429   1 h    0.890 --   427 o    0.828
   430   8 o    1.812 --   431 h    0.873   432 h    0.823
   431   1 h    0.906 --   430 o    0.873
   432   1 h    0.888 --   430 o    0.823
   433   8 o    1.865 --   435 h    0.858   434 h    0.849
   434   1 h    0.898 --   433 o    0.849
   435   1 h    0.901 --   433 o    0.858
   436   8 o    1.855 --   438 h    0.881   437 h    0.845
   437   1 h    0.892 --   436 o    0.845
   438   1 h    0.907 --   436 o    0.881
   439   8 o    1.861 --   441 h    0.892   440 h    0.792
   440   1 h    0.883 --   439 o    0.792
   441   1 h    0.906 --   439 o    0.892
   442   8 o    1.834 --   443 h    0.830   444 h    0.830
   443   1 h    0.890 --   442 o    0.830
   444   1 h    0.888 --   442 o    0.830
   445   8 o    1.865 --   446 h    0.865   447 h    0.825
   446   1 h    0.897 --   445 o    0.865
   447   1 h    0.888 --   445 o    0.825
   448   8 o    1.860 --   450 h    0.814   449 h    0.787
   449   1 h    0.876 --   448 o    0.787
   450   1 h    0.892 --   448 o    0.814
   451   8 o    1.882 --   453 h    0.842   452 h    0.804
   452   1 h    0.875 --   451 o    0.804
   453   1 h    0.895 --   451 o    0.842
   454   8 o    1.817 --   456 h    0.850   455 h    0.840
   455   1 h    0.890 --   454 o    0.840
   456   1 h    0.893 --   454 o    0.850
   457   8 o    1.866 --   459 h    0.904   458 h    0.845
   458   1 h    0.884 --   457 o    0.845
   459   1 h    0.910 --   457 o    0.904
   460   8 o    1.828 --   461 h    0.846   462 h    0.811
   461   1 h    0.896 --   460 o    0.846
   462   1 h    0.888 --   460 o    0.811
   463   8 o    1.839 --   464 h    0.850   465 h    0.806
   464   1 h    0.894 --   463 o    0.850
   465   1 h    0.881 --   463 o    0.806
   466   8 o    1.872 --   468 h    0.895   467 h    0.789
   467   1 h    0.880 --   466 o    0.789
   468   1 h    0.906 --   466 o    0.895
   469   8 o    1.844 --   471 h    0.865   470 h    0.833
   470   1 h    0.883 --   469 o    0.833
   471   1 h    0.897 --   469 o    0.865
   472   8 o    1.876 --   474 h    0.868   473 h    0.837
   473   1 h    0.892 --   472 o    0.837
   474   1 h    0.894 --   472 o    0.868
   475   8 o    1.823 --   476 h    0.896   477 h    0.822
   476   1 h    0.910 --   475 o    0.896
   477   1 h    0.884 --   475 o    0.822
   478   8 o    1.862 --   480 h    0.870   479 h    0.847
   479   1 h    0.886 --   478 o    0.847
   480   1 h    0.903 --   478 o    0.870
   481   8 o    1.858 --   482 h    0.822   483 h    0.794
   482   1 h    0.889 --   481 o    0.822
   483   1 h    0.879 --   481 o    0.794
   484   8 o    1.865 --   486 h    0.867   485 h    0.805
   485   1 h    0.883 --   484 o    0.805
   486   1 h    0.901 --   484 o    0.867
   487   8 o    1.852 --   488 h    0.861   489 h    0.833
   488   1 h    0.899 --   487 o    0.861
   489   1 h    0.885 --   487 o    0.833
   490   8 o    1.893 --   492 h    0.839   491 h    0.799
   491   1 h    0.875 --   490 o    0.799
   492   1 h    0.892 --   490 o    0.839
   493   8 o    1.865 --   495 h    0.805   494 h    0.802
   494   1 h    0.887 --   493 o    0.802
   495   1 h    0.888 --   493 o    0.805
   496   8 o    1.862 --   497 h    0.806   498 h    0.804
   497   1 h    0.881 --   496 o    0.806
   498   1 h    0.890 --   496 o    0.804
   499   8 o    1.887 --   501 h    0.852   500 h    0.811
   500   1 h    0.879 --   499 o    0.811
   501   1 h    0.894 --   499 o    0.852
   502   8 o    1.862 --   503 h    0.913   504 h    0.838
   503   1 h    0.916 --   502 o    0.913
   504   1 h    0.881 --   502 o    0.838
   505   8 o    1.829 --   507 h    0.818   506 h    0.791
   506   1 h    0.876 --   505 o    0.791
   507   1 h    0.879 --   505 o    0.818
   508   8 o    1.836 --   509 h    0.847   510 h    0.827
   509   1 h    0.897 --   508 o    0.847
   510   1 h    0.886 --   508 o    0.827
   511   8 o    1.851 --   512 h    0.860   513 h    0.832
   512   1 h    0.898 --   511 o    0.860
   513   1 h    0.885 --   511 o    0.832
   514   8 o    1.837 --   515 h    0.918   516 h    0.809
   515   1 h    0.924 --   514 o    0.918
   516   1 h    0.879 --   514 o    0.809
   517   8 o    1.861 --   519 h    0.870   518 h    0.864
   518   1 h    0.889 --   517 o    0.864
   519   1 h    0.892 --   517 o    0.870
   520   8 o    1.839 --   522 h    0.843   521 h    0.796
   521   1 h    0.877 --   520 o    0.796
   522   1 h    0.898 --   520 o    0.843
   523   8 o    1.867 --   524 h    0.857   525 h    0.829
   524   1 h    0.894 --   523 o    0.857
   525   1 h    0.886 --   523 o    0.829
   526   8 o    1.845 --   527 h    0.883   528 h    0.869
   527   1 h    0.894 --   526 o    0.883
   528   1 h    0.887 --   526 o    0.869
   529   8 o    1.823 --   531 h    0.815   530 h    0.814
   530   1 h    0.880 --   529 o    0.814
   531   1 h    0.890 --   529 o    0.815
 ---------------------------------------------------------------------------

Topologies differ in total number of bonds
Writing topology from bond orders to xtbtopo.mol

molecular dipole:
                 x           y           z       tot (Debye)
 q only:       -1.543       0.266       1.170
   full:       -1.763       0.605       0.853       5.210
molecular quadrupole (traceless):
                xx          xy          yy          xz          yz          zz
 q only:      111.020      94.705     -52.982     -10.251      -5.810     -58.038
  q+dip:      160.527     133.661     -81.684     -29.501     -21.266     -78.843
   full:      161.681     134.509     -82.806     -29.885     -21.240     -78.875


           -------------------------------------------------
          | TOTAL ENERGY             -901.190518941798 Eh   |
          | GRADIENT NORM               0.100702411310 Eh/α |
          | HOMO-LUMO GAP               7.173059429241 eV   |
           -------------------------------------------------

------------------------------------------------------------------------
 * finished run on 2022/11/17 at 06:55:17.731     
------------------------------------------------------------------------
 total:
 * wall-time:     0 d,  0 h,  0 min, 17.992 sec
 *  cpu-time:     0 d,  0 h,  0 min, 24.407 sec
 * ratio c/w:     1.357 speedup
 SCF:
 * wall-time:     0 d,  0 h,  0 min, 17.469 sec
 *  cpu-time:     0 d,  0 h,  0 min, 23.407 sec
 * ratio c/w:     1.340 speedup

