      -----------------------------------------------------------      
     |                   =====================                   |     
     |                           x T B                           |     
     |                   =====================                   |     
     |                         S. Grimme                         |     
     |          Mulliken Center for Theoretical Chemistry        |     
     |                    University of Bonn                     |     
      -----------------------------------------------------------      

   * xtb version 6.5.1 (579679a) compiled by 'ehlert@majestix' on 2022-07-11

   xtb is free software: you can redistribute it and/or modify it under
   the terms of the GNU Lesser General Public License as published by
   the Free Software Foundation, either version 3 of the License, or
   (at your option) any later version.
   
   xtb is distributed in the hope that it will be useful,
   but WITHOUT ANY WARRANTY; without even the implied warranty of
   MERCHANTABILITY or FITNESS FOR A PARTICULAR PURPOSE.  See the
   GNU Lesser General Public License for more details.
   
   Cite this work as:
   * C. Bannwarth, E. Caldeweyher, S. Ehlert, A. Hansen, P. Pracht,
     J. Seibert, S. Spicher, S. Grimme, WIREs Comput. Mol. Sci., 2020, 11,
     e01493. DOI: 10.1002/wcms.1493
   
   for GFN2-xTB:
   * C. Bannwarth, S. Ehlert and S. Grimme., J. Chem. Theory Comput., 2019,
     15, 1652-1671. DOI: 10.1021/acs.jctc.8b01176
   for GFN1-xTB:
   * S. Grimme, C. Bannwarth, P. Shushkov, J. Chem. Theory Comput., 2017,
     13, 1989-2009. DOI: 10.1021/acs.jctc.7b00118
   for GFN0-xTB:
   * P. Pracht, E. Caldeweyher, S. Ehlert, S. Grimme, ChemRxiv, 2019, preprint.
     DOI: 10.26434/chemrxiv.8326202.v1
   for GFN-FF:
   * S. Spicher and S. Grimme, Angew. Chem. Int. Ed., 2020, 59, 15665-15673.
     DOI: 10.1002/anie.202004239
   
   for ALPB and GBSA implicit solvation:
   * S. Ehlert, M. Stahn, S. Spicher, S. Grimme, J. Chem. Theory Comput.,
     2021, 17, 4250-4261. DOI: 10.1021/acs.jctc.1c00471
   
   for DFT-D4:
   * E. Caldeweyher, C. Bannwarth and S. Grimme, J. Chem. Phys., 2017,
     147, 034112. DOI: 10.1063/1.4993215
   * E. Caldeweyher, S. Ehlert, A. Hansen, H. Neugebauer, S. Spicher,
     C. Bannwarth and S. Grimme, J. Chem. Phys., 2019, 150, 154122.
     DOI: 10.1063/1.5090222
   * E. Caldeweyher, J.-M. Mewes, S. Ehlert and S. Grimme, Phys. Chem. Chem. Phys.
     2020, 22, 8499-8512. DOI: 10.1039/D0CP00502A
   
   for sTDA-xTB:
   * S. Grimme and C. Bannwarth, J. Chem. Phys., 2016, 145, 054103.
     DOI: 10.1063/1.4959605
   
   in the mass-spec context:
   * V. Asgeirsson, C. Bauer and S. Grimme, Chem. Sci., 2017, 8, 4879.
     DOI: 10.1039/c7sc00601b
   * J. Koopman and S. Grimme, ACS Omega 2019, 4, 12, 15120-15133.
     DOI: 10.1021/acsomega.9b02011
   
   for metadynamics refer to:
   * S. Grimme, J. Chem. Theory Comput., 2019, 155, 2847-2862
     DOI: 10.1021/acs.jctc.9b00143
   
   for SPH calculations refer to:
   * S. Spicher and S. Grimme, J. Chem. Theory Comput., 2021, 17, 1701-1714
     DOI: 10.1021/acs.jctc.0c01306
   
   with help from (in alphabetical order)
   P. Atkinson, C. Bannwarth, F. Bohle, G. Brandenburg, E. Caldeweyher
   M. Checinski, S. Dohm, S. Ehlert, S. Ehrlich, I. Gerasimov, C. Hölzer
   A. Katbashev, J. Koopman, C. Lavigne, S. Lehtola, F. März, M. Müller,
   F. Musil, H. Neugebauer, J. Pisarek, C. Plett, P. Pracht, F. Pultar,
   J. Seibert, P. Shushkov, S. Spicher, M. Stahn, M. Steiner, T. Strunk,
   J. Stückrath, T. Rose, and J. Unsleber
   
 * started run on 2022/11/17 at 06:54:49.174     

           -------------------------------------------------
          |                Calculation Setup                |
           -------------------------------------------------

          program call               : xtb xtbopt.coord --gfn2 --sp --gbsa water
          hostname                   : cn0363
          coordinate file            : xtbopt.coord
          omp threads                :                     2

   ID    Z sym.   atoms
    1    8 o      1, 4, 7, 10, 13, 16, 19, 22, 25, 28, 31, 34, 37, 40, 43,
                  46, 49, 52, 55, 58, 61, 64, 67, 70, 73, 76, 79, 82, 85, 88,
                  91, 94, 97, 100, 103, 106, 109, 112, 115, 118, 121, 124,
                  127, 130, 133, 136, 139, 142, 145, 148, 151, 154, 157, 160,
                  163, 166, 169, 172, 175, 178, 181, 184, 187, 190, 193, 196,
                  199, 202, 205, 208, 211, 214, 217, 220, 223, 226, 229, 232,
                  235, 238, 241, 244, 247, 250, 253, 256, 259, 262, 265, 268,
                  271, 274, 277, 280, 283, 286, 289, 292, 295, 298, 301, 304,
                  307, 310, 313, 316, 319, 322, 325, 328, 331, 334, 337, 340,
                  343, 346, 349, 352, 355, 358, 361, 364, 367, 370, 373, 376,
                  379, 382, 385, 388, 391, 394, 397, 400, 403, 406, 409, 412,
                  415, 418, 421, 424, 427, 430, 433, 436, 439, 442, 445, 448,
                  451, 454, 457, 460, 463, 466, 469, 472, 475, 478, 481, 484,
                  487, 490, 493, 496, 499, 502, 505, 508, 511, 514, 517, 520,
                  523, 526, 529
    2    1 h      2, 3, 5, 6, 8, 9, 11, 12, 14, 15, 17, 18, 20, 21, 23, 24,
                  26, 27, 29, 30, 32, 33, 35, 36, 38, 39, 41, 42, 44, 45, 47,
                  48, 50, 51, 53, 54, 56, 57, 59, 60, 62, 63, 65, 66, 68, 69,
                  71, 72, 74, 75, 77, 78, 80, 81, 83, 84, 86, 87, 89, 90, 92,
                  93, 95, 96, 98, 99, 101, 102, 104, 105, 107, 108, 110, 111,
                  113, 114, 116, 117, 119, 120, 122, 123, 125, 126, 128, 129,
                  131, 132, 134, 135, 137, 138, 140, 141, 143, 144, 146, 147,
                  149, 150, 152, 153, 155, 156, 158, 159, 161, 162, 164, 165,
                  167, 168, 170, 171, 173, 174, 176, 177, 179, 180, 182, 183,
                  185, 186, 188, 189, 191, 192, 194, 195, 197, 198, 200, 201,
                  203, 204, 206, 207, 209, 210, 212, 213, 215, 216, 218, 219,
                  221, 222, 224, 225, 227, 228, 230, 231, 233, 234, 236, 237,
                  239, 240, 242, 243, 245, 246, 248, 249, 251, 252, 254, 255,
                  257, 258, 260, 261, 263, 264, 266, 267, 269, 270, 272, 273,
                  275, 276, 278, 279, 281, 282, 284, 285, 287, 288, 290, 291,
                  293, 294, 296, 297, 299, 300, 302, 303, 305, 306, 308, 309,
                  311, 312, 314, 315, 317, 318, 320, 321, 323, 324, 326, 327,
                  329, 330, 332, 333, 335, 336, 338, 339, 341, 342, 344, 345,
                  347, 348, 350, 351, 353, 354, 356, 357, 359, 360, 362, 363,
                  365, 366, 368, 369, 371, 372, 374, 375, 377, 378, 380, 381,
                  383, 384, 386, 387, 389, 390, 392, 393, 395, 396, 398, 399,
                  401, 402, 404, 405, 407, 408, 410, 411, 413, 414, 416, 417,
                  419, 420, 422, 423, 425, 426, 428, 429, 431, 432, 434, 435,
                  437, 438, 440, 441, 443, 444, 446, 447, 449, 450, 452, 453,
                  455, 456, 458, 459, 461, 462, 464, 465, 467, 468, 470, 471,
                  473, 474, 476, 477, 479, 480, 482, 483, 485, 486, 488, 489,
                  491, 492, 494, 495, 497, 498, 500, 501, 503, 504, 506, 507,
                  509, 510, 512, 513, 515, 516, 518, 519, 521, 522, 524, 525,
                  527, 528, 530, 531

molecular fragmentation (1/2 indicates fragments):
111222222222222222222222222222222222222222222222222222222222222222222222
222222222222222222222222222222222222222222222222222222222222222222222222
222222222222222222222222222222222222222222222222222222222222222222222222
222222222222222222222222222222222222222222222222222222222222222222222222
222222222222222222222222222222222222222222222222222222222222222222222222
222222222222222222222222222222222222222222222222222222222222222222222222
222222222222222222222222222222222222222222222222222222222222222222222222
222222222222222222222222222
# atoms in fragment 1/2:     3   528
 fragment masses (1/2) :       18.02     3170.69
CMA distance (Bohr)    :   4.658
constraining FC (au)   :  0.0500

           -------------------------------------------------
          |                 G F N 2 - x T B                 |
           -------------------------------------------------

        Reference                      10.1021/acs.jctc.8b01176
      * Hamiltonian:
        H0-scaling (s, p, d)           1.850000    2.230000    2.230000
        zeta-weighting                 0.500000
      * Dispersion:
        s8                             2.700000
        a1                             0.520000
        a2                             5.000000
        s9                             5.000000
      * Repulsion:
        kExp                           1.500000    1.000000
        rExp                           1.000000
      * Coulomb:
        alpha                          2.000000
        third order                    shell-resolved
        anisotropic                    true
        a3                             3.000000
        a5                             4.000000
        cn-shift                       1.200000
        cn-exp                         4.000000
        max-rad                        5.000000

      * Solvation model:               GBSA
        Solvent                        water
        Parameter file                 internal GFN2-xTB/GBSA
        Dielectric constant                8.0200E+01
        Reference state                gsolv [1 M gas/solution]
        Free energy shift                  1.8574E-03 Eh       1.1656E+00 kcal/mol
        Temperature                        2.9815E+02 K
        Density                            1.0000E+00 kg/L
        Solvent mass                       1.8000E+01 g/mol
        Interaction kernel             Still
        Born radius scaling (c1)           1.5524E+00
        Born radii integrator          GBOBC
        Born offset                        2.4628E-02 a0       4.6540E-02 AA
        H-bond correction              true
        Ion screening                  false
        Surface tension                    1.0000E-05 Eh       1.5569E+01 dyn/cm
        Grid points                               230 per atom

          ...................................................
          :                      SETUP                      :
          :.................................................:
          :  # basis functions                1062          :
          :  # atomic orbitals                1062          :
          :  # shells                          708          :
          :  # electrons                      1416          :
          :  max. iterations                   250          :
          :  Hamiltonian                  GFN2-xTB          :
          :  restarted?                      false          :
          :  GBSA solvation                   true          :
          :  PC potential                    false          :
          :  electronic temp.          300.0000000     K    :
          :  accuracy                    1.0000000          :
          :  -> integral cutoff          0.2500000E+02      :
          :  -> integral neglect         0.1000000E-07      :
          :  -> SCF convergence          0.1000000E-05 Eh   :
          :  -> wf. convergence          0.1000000E-03 e    :
          :  Broyden damping             0.4000000          :
          ...................................................

 iter      E             dE          RMSdq      gap      omega  full diag
   1   -906.7437729 -0.906744E+03  0.407E+00    8.69       0.0  T
   2   -906.8023758 -0.586029E-01  0.241E+00    8.36       1.0  T
   3   -906.8272083 -0.248325E-01  0.224E-01    7.56       1.0  T
   4   -906.8309866 -0.377835E-02  0.498E-02    7.75       1.0  T
   5   -906.8311305 -0.143901E-03  0.313E-02    7.71       1.0  T
   6   -906.8311633 -0.327899E-04  0.323E-03    7.72       1.3  T
   7   -906.8311642 -0.854521E-06  0.845E-04    7.72       5.1  T
   8   -906.8311642 -0.372653E-07  0.454E-04    7.72       9.6  T

   *** convergence criteria satisfied after 8 iterations ***

         #    Occupation            Energy/Eh            Energy/eV
      -------------------------------------------------------------
         1        2.0000           -0.6615465             -18.0016
       ...           ...                  ...                  ...
       702        2.0000           -0.3476721              -9.4606
       703        2.0000           -0.3463416              -9.4244
       704        2.0000           -0.3445569              -9.3759
       705        2.0000           -0.3444366              -9.3726
       706        2.0000           -0.3397686              -9.2456
       707        2.0000           -0.3323235              -9.0430
       708        2.0000           -0.3317462              -9.0273 (HOMO)
       709                         -0.0481838              -1.3111 (LUMO)
       710                         -0.0379028              -1.0314
       711                         -0.0266998              -0.7265
       712                         -0.0248402              -0.6759
       713                         -0.0174197              -0.4740
       ...                                ...                  ...
      1062                          0.4934965              13.4287
      -------------------------------------------------------------
                  HL-Gap            0.2835624 Eh            7.7161 eV
             Fermi-level           -0.1899650 Eh           -5.1692 eV

 SCC (total)                   0 d,  0 h,  0 min,  7.826 sec
 SCC setup                      ...        0 min,  0.060 sec (  0.768%)
 Dispersion                     ...        0 min,  0.052 sec (  0.669%)
 classical contributions        ...        0 min,  0.012 sec (  0.147%)
 integral evaluation            ...        0 min,  0.319 sec (  4.078%)
 iterations                     ...        0 min,  2.589 sec ( 33.089%)
 molecular gradient             ...        0 min,  4.764 sec ( 60.879%)
 printout                       ...        0 min,  0.029 sec (  0.369%)

         :::::::::::::::::::::::::::::::::::::::::::::::::::::
         ::                     SUMMARY                     ::
         :::::::::::::::::::::::::::::::::::::::::::::::::::::
         :: total energy            -901.405596011659 Eh    ::
         :: total w/o Gsasa/hb      -901.207746893831 Eh    ::
         :: gradient norm              0.104945993776 Eh/a0 ::
         :: HOMO-LUMO gap              7.716125928271 eV    ::
         ::.................................................::
         :: SCC energy              -906.831164210657 Eh    ::
         :: -> isotropic ES            5.274912148557 Eh    ::
         :: -> anisotropic ES         -1.128594548653 Eh    ::
         :: -> anisotropic XC         -0.086531764927 Eh    ::
         :: -> dispersion             -0.526279571102 Eh    ::
         :: -> Gsolv                  -0.227872217954 Eh    ::
         ::    -> Gelec               -0.030023100126 Eh    ::
         ::    -> Gsasa                0.003689302584 Eh    ::
         ::    -> Ghb                 -0.203395863539 Eh    ::
         ::    -> Gshift               0.001857443127 Eh    ::
         :: repulsion energy           5.334433197640 Eh    ::
         :: add. restraining           0.000000000000 Eh    ::
         :: total charge              -0.000000000000 e     ::
         :::::::::::::::::::::::::::::::::::::::::::::::::::::

           -------------------------------------------------
          |                Property Printout                |
           -------------------------------------------------

    * Orbital Energies and Occupations

         #    Occupation            Energy/Eh            Energy/eV
      -------------------------------------------------------------
         1        2.0000           -0.6615465             -18.0016
       ...           ...                  ...                  ...
       696        2.0000           -0.3563839              -9.6977
       697        2.0000           -0.3554373              -9.6719
       698        2.0000           -0.3545528              -9.6479
       699        2.0000           -0.3536123              -9.6223
       700        2.0000           -0.3516202              -9.5681
       701        2.0000           -0.3506694              -9.5422
       702        2.0000           -0.3476721              -9.4606
       703        2.0000           -0.3463416              -9.4244
       704        2.0000           -0.3445569              -9.3759
       705        2.0000           -0.3444366              -9.3726
       706        2.0000           -0.3397686              -9.2456
       707        2.0000           -0.3323235              -9.0430
       708        2.0000           -0.3317462              -9.0273 (HOMO)
       709                         -0.0481838              -1.3111 (LUMO)
       710                         -0.0379028              -1.0314
       711                         -0.0266998              -0.7265
       712                         -0.0248402              -0.6759
       713                         -0.0174197              -0.4740
       714                         -0.0091341              -0.2486
       715                         -0.0051476              -0.1401
       716                          0.0012478               0.0340
       717                          0.0016646               0.0453
       718                          0.0092874               0.2527
       719                          0.0142325               0.3873
       ...                                ...                  ...
      1062                          0.4934965              13.4287
      -------------------------------------------------------------
                  HL-Gap            0.2835624 Eh            7.7161 eV
             Fermi-level           -0.1899650 Eh           -5.1692 eV

     #   Z          covCN         q      C6AA      α(0)
     1   8 o        1.605    -0.711    28.019     7.144
     2   1 h        0.803     0.337     0.619     1.236
     3   1 h        0.803     0.330     0.637     1.254
     4   8 o        1.607    -0.667    26.844     6.993
     5   1 h        0.803     0.330     0.638     1.255
     6   1 h        0.805     0.344     0.602     1.218
     7   8 o        1.607    -0.689    27.419     7.067
     8   1 h        0.803     0.345     0.599     1.216
     9   1 h        0.805     0.326     0.648     1.264
    10   8 o        1.606    -0.694    27.552     7.084
    11   1 h        0.803     0.349     0.591     1.207
    12   1 h        0.803     0.344     0.602     1.219
    13   8 o        1.608    -0.672    26.974     7.010
    14   1 h        0.804     0.346     0.597     1.214
    15   1 h        0.803     0.343     0.604     1.221
    16   8 o        1.609    -0.662    26.708     6.975
    17   1 h        0.805     0.317     0.671     1.286
    18   1 h        0.804     0.355     0.578     1.194
    19   8 o        1.608    -0.665    26.788     6.985
    20   1 h        0.804     0.333     0.629     1.246
    21   1 h        0.803     0.351     0.586     1.203
    22   8 o        1.610    -0.677    27.114     7.028
    23   1 h        0.805     0.335     0.624     1.241
    24   1 h        0.805     0.341     0.611     1.227
    25   8 o        1.607    -0.686    27.341     7.057
    26   1 h        0.803     0.356     0.576     1.192
    27   1 h        0.804     0.340     0.613     1.230
    28   8 o        1.607    -0.688    27.382     7.062
    29   1 h        0.803     0.351     0.585     1.202
    30   1 h        0.803     0.344     0.603     1.219
    31   8 o        1.608    -0.685    27.302     7.052
    32   1 h        0.804     0.337     0.620     1.237
    33   1 h        0.804     0.347     0.595     1.212
    34   8 o        1.607    -0.670    26.917     7.002
    35   1 h        0.805     0.333     0.630     1.246
    36   1 h        0.803     0.333     0.630     1.247
    37   8 o        1.607    -0.664    26.763     6.982
    38   1 h        0.804     0.341     0.609     1.226
    39   1 h        0.803     0.336     0.623     1.240
    40   8 o        1.609    -0.673    27.003     7.013
    41   1 h        0.805     0.346     0.599     1.215
    42   1 h        0.804     0.334     0.628     1.245
    43   8 o        1.605    -0.703    27.798     7.116
    44   1 h        0.802     0.357     0.572     1.189
    45   1 h        0.803     0.335     0.624     1.241
    46   8 o        1.607    -0.678    27.128     7.030
    47   1 h        0.802     0.356     0.574     1.190
    48   1 h        0.806     0.316     0.675     1.290
    49   8 o        1.605    -0.692    27.504     7.078
    50   1 h        0.801     0.364     0.558     1.173
    51   1 h        0.804     0.330     0.638     1.255
    52   8 o        1.608    -0.683    27.267     7.048
    53   1 h        0.803     0.356     0.575     1.191
    54   1 h        0.804     0.335     0.624     1.241
    55   8 o        1.608    -0.666    26.823     6.990
    56   1 h        0.803     0.354     0.579     1.195
    57   1 h        0.804     0.324     0.652     1.268
    58   8 o        1.609    -0.692    27.494     7.077
    59   1 h        0.804     0.334     0.628     1.245
    60   1 h        0.804     0.342     0.607     1.223
    61   8 o        1.607    -0.688    27.393     7.064
    62   1 h        0.802     0.358     0.570     1.186
    63   1 h        0.805     0.327     0.644     1.260
    64   8 o        1.605    -0.679    27.153     7.033
    65   1 h        0.804     0.326     0.649     1.265
    66   1 h        0.802     0.356     0.574     1.190
    67   8 o        1.609    -0.671    26.958     7.008
    68   1 h        0.805     0.333     0.631     1.248
    69   1 h        0.804     0.336     0.622     1.239
    70   8 o        1.606    -0.683    27.270     7.048
    71   1 h        0.803     0.328     0.643     1.260
    72   1 h        0.803     0.328     0.642     1.258
    73   8 o        1.608    -0.669    26.899     7.000
    74   1 h        0.804     0.352     0.583     1.199
    75   1 h        0.804     0.344     0.603     1.219
    76   8 o        1.609    -0.664    26.771     6.983
    77   1 h        0.805     0.341     0.611     1.228
    78   1 h        0.803     0.338     0.616     1.233
    79   8 o        1.611    -0.676    27.089     7.025
    80   1 h        0.803     0.352     0.584     1.201
    81   1 h        0.804     0.328     0.644     1.260
    82   8 o        1.607    -0.681    27.221     7.042
    83   1 h        0.804     0.332     0.633     1.249
    84   1 h        0.803     0.352     0.585     1.201
    85   8 o        1.606    -0.697    27.641     7.096
    86   1 h        0.803     0.323     0.656     1.272
    87   1 h        0.802     0.359     0.569     1.185
    88   8 o        1.608    -0.674    27.017     7.015
    89   1 h        0.803     0.332     0.632     1.249
    90   1 h        0.805     0.327     0.646     1.262
    91   8 o        1.609    -0.673    27.007     7.014
    92   1 h        0.805     0.321     0.660     1.277
    93   1 h        0.804     0.355     0.578     1.194
    94   8 o        1.608    -0.668    26.880     6.997
    95   1 h        0.806     0.308     0.698     1.312
    96   1 h        0.802     0.339     0.615     1.233
    97   8 o        1.609    -0.659    26.654     6.968
    98   1 h        0.804     0.337     0.620     1.237
    99   1 h        0.804     0.335     0.626     1.243
   100   8 o        1.606    -0.684    27.284     7.050
   101   1 h        0.803     0.353     0.581     1.197
   102   1 h        0.803     0.331     0.634     1.251
   103   8 o        1.607    -0.665    26.799     6.987
   104   1 h        0.805     0.346     0.597     1.213
   105   1 h        0.802     0.343     0.606     1.223
   106   8 o        1.606    -0.698    27.663     7.099
   107   1 h        0.803     0.330     0.639     1.255
   108   1 h        0.803     0.351     0.585     1.202
   109   8 o        1.608    -0.674    27.020     7.016
   110   1 h        0.804     0.337     0.620     1.236
   111   1 h        0.804     0.332     0.632     1.249
   112   8 o        1.609    -0.671    26.961     7.008
   113   1 h        0.805     0.317     0.673     1.288
   114   1 h        0.804     0.345     0.600     1.217
   115   8 o        1.607    -0.686    27.340     7.057
   116   1 h        0.805     0.332     0.632     1.249
   117   1 h        0.803     0.360     0.565     1.181
   118   8 o        1.607    -0.661    26.694     6.973
   119   1 h        0.805     0.320     0.663     1.278
   120   1 h        0.802     0.348     0.593     1.210
   121   8 o        1.608    -0.673    26.991     7.012
   122   1 h        0.804     0.350     0.589     1.206
   123   1 h        0.804     0.345     0.599     1.216
   124   8 o        1.607    -0.678    27.146     7.032
   125   1 h        0.806     0.314     0.681     1.296
   126   1 h        0.802     0.359     0.568     1.184
   127   8 o        1.608    -0.677    27.112     7.028
   128   1 h        0.804     0.329     0.641     1.258
   129   1 h        0.804     0.326     0.647     1.264
   130   8 o        1.607    -0.697    27.628     7.094
   131   1 h        0.805     0.342     0.608     1.224
   132   1 h        0.802     0.360     0.567     1.183
   133   8 o        1.609    -0.653    26.493     6.947
   134   1 h        0.805     0.331     0.635     1.252
   135   1 h        0.803     0.353     0.581     1.198
   136   8 o        1.609    -0.662    26.708     6.975
   137   1 h        0.804     0.340     0.611     1.228
   138   1 h        0.805     0.329     0.639     1.256
   139   8 o        1.608    -0.652    26.462     6.943
   140   1 h        0.804     0.329     0.639     1.256
   141   1 h        0.804     0.334     0.628     1.245
   142   8 o        1.608    -0.673    27.005     7.014
   143   1 h        0.804     0.332     0.633     1.250
   144   1 h        0.804     0.341     0.609     1.226
   145   8 o        1.607    -0.690    27.455     7.072
   146   1 h        0.804     0.330     0.637     1.253
   147   1 h        0.803     0.345     0.601     1.218
   148   8 o        1.608    -0.651    26.434     6.939
   149   1 h        0.803     0.339     0.616     1.233
   150   1 h        0.805     0.319     0.667     1.283
   151   8 o        1.606    -0.681    27.209     7.040
   152   1 h        0.802     0.349     0.590     1.207
   153   1 h        0.803     0.332     0.633     1.250
   154   8 o        1.606    -0.689    27.416     7.067
   155   1 h        0.805     0.317     0.673     1.289
   156   1 h        0.802     0.356     0.575     1.191
   157   8 o        1.608    -0.649    26.386     6.933
   158   1 h        0.803     0.343     0.604     1.221
   159   1 h        0.805     0.325     0.651     1.267
   160   8 o        1.609    -0.670    26.934     7.004
   161   1 h        0.804     0.334     0.627     1.244
   162   1 h        0.805     0.346     0.598     1.214
   163   8 o        1.606    -0.708    27.915     7.131
   164   1 h        0.803     0.349     0.591     1.208
   165   1 h        0.803     0.336     0.622     1.239
   166   8 o        1.609    -0.670    26.916     7.002
   167   1 h        0.805     0.338     0.617     1.233
   168   1 h        0.804     0.319     0.666     1.282
   169   8 o        1.609    -0.678    27.128     7.030
   170   1 h        0.804     0.332     0.633     1.250
   171   1 h        0.804     0.330     0.638     1.255
   172   8 o        1.609    -0.678    27.137     7.031
   173   1 h        0.804     0.343     0.605     1.222
   174   1 h        0.805     0.331     0.635     1.252
   175   8 o        1.609    -0.658    26.620     6.963
   176   1 h        0.803     0.352     0.584     1.201
   177   1 h        0.805     0.312     0.687     1.302
   178   8 o        1.606    -0.699    27.697     7.103
   179   1 h        0.803     0.333     0.630     1.247
   180   1 h        0.803     0.345     0.601     1.218
   181   8 o        1.606    -0.683    27.252     7.046
   182   1 h        0.803     0.341     0.610     1.227
   183   1 h        0.802     0.362     0.562     1.177
   184   8 o        1.607    -0.676    27.077     7.023
   185   1 h        0.804     0.336     0.622     1.239
   186   1 h        0.803     0.346     0.598     1.215
   187   8 o        1.609    -0.665    26.790     6.986
   188   1 h        0.804     0.333     0.630     1.247
   189   1 h        0.805     0.339     0.615     1.232
   190   8 o        1.606    -0.674    27.024     7.016
   191   1 h        0.803     0.347     0.595     1.211
   192   1 h        0.803     0.333     0.630     1.247
   193   8 o        1.605    -0.692    27.505     7.078
   194   1 h        0.802     0.361     0.563     1.179
   195   1 h        0.804     0.336     0.622     1.239
   196   8 o        1.605    -0.688    27.399     7.065
   197   1 h        0.802     0.354     0.578     1.195
   198   1 h        0.804     0.343     0.605     1.222
   199   8 o        1.610    -0.658    26.626     6.964
   200   1 h        0.805     0.330     0.638     1.255
   201   1 h        0.803     0.347     0.596     1.213
   202   8 o        1.608    -0.675    27.056     7.020
   203   1 h        0.803     0.332     0.632     1.249
   204   1 h        0.804     0.335     0.624     1.241
   205   8 o        1.606    -0.656    26.561     6.956
   206   1 h        0.801     0.352     0.583     1.200
   207   1 h        0.806     0.312     0.685     1.300
   208   8 o        1.607    -0.694    27.565     7.086
   209   1 h        0.803     0.350     0.588     1.205
   210   1 h        0.804     0.352     0.584     1.200
   211   8 o        1.605    -0.694    27.558     7.085
   212   1 h        0.801     0.367     0.550     1.165
   213   1 h        0.805     0.315     0.678     1.293
   214   8 o        1.607    -0.681    27.221     7.042
   215   1 h        0.805     0.327     0.646     1.263
   216   1 h        0.803     0.360     0.565     1.181
   217   8 o        1.607    -0.693    27.525     7.081
   218   1 h        0.803     0.349     0.590     1.206
   219   1 h        0.805     0.315     0.676     1.292
   220   8 o        1.607    -0.680    27.186     7.037
   221   1 h        0.805     0.324     0.653     1.269
   222   1 h        0.802     0.361     0.563     1.179
   223   8 o        1.608    -0.669    26.912     7.002
   224   1 h        0.802     0.364     0.557     1.173
   225   1 h        0.805     0.319     0.665     1.281
   226   8 o        1.609    -0.658    26.621     6.964
   227   1 h        0.805     0.343     0.606     1.223
   228   1 h        0.805     0.328     0.643     1.260
   229   8 o        1.606    -0.685    27.318     7.054
   230   1 h        0.804     0.327     0.644     1.261
   231   1 h        0.802     0.346     0.598     1.215
   232   8 o        1.607    -0.674    27.031     7.017
   233   1 h        0.802     0.344     0.602     1.219
   234   1 h        0.804     0.334     0.627     1.244
   235   8 o        1.608    -0.666    26.819     6.990
   236   1 h        0.802     0.350     0.590     1.206
   237   1 h        0.805     0.329     0.640     1.257
   238   8 o        1.605    -0.692    27.509     7.079
   239   1 h        0.801     0.363     0.560     1.176
   240   1 h        0.804     0.339     0.615     1.232
   241   8 o        1.609    -0.680    27.194     7.038
   242   1 h        0.805     0.331     0.635     1.252
   243   1 h        0.803     0.336     0.622     1.239
   244   8 o        1.609    -0.677    27.095     7.025
   245   1 h        0.804     0.351     0.586     1.203
   246   1 h        0.804     0.324     0.654     1.270
   247   8 o        1.607    -0.687    27.363     7.060
   248   1 h        0.804     0.337     0.619     1.236
   249   1 h        0.803     0.343     0.605     1.222
   250   8 o        1.609    -0.627    25.834     6.860
   251   1 h        0.805     0.308     0.696     1.311
   252   1 h        0.804     0.333     0.630     1.247
   253   8 o        1.607    -0.683    27.256     7.046
   254   1 h        0.802     0.352     0.585     1.201
   255   1 h        0.805     0.319     0.666     1.281
   256   8 o        1.607    -0.693    27.528     7.081
   257   1 h        0.804     0.330     0.637     1.254
   258   1 h        0.803     0.357     0.573     1.189
   259   8 o        1.606    -0.684    27.301     7.052
   260   1 h        0.804     0.328     0.643     1.260
   261   1 h        0.803     0.350     0.588     1.205
   262   8 o        1.608    -0.664    26.780     6.984
   263   1 h        0.803     0.345     0.600     1.217
   264   1 h        0.805     0.324     0.652     1.268
   265   8 o        1.606    -0.653    26.499     6.948
   266   1 h        0.802     0.345     0.601     1.218
   267   1 h        0.805     0.317     0.671     1.286
   268   8 o        1.609    -0.642    26.225     6.912
   269   1 h        0.803     0.356     0.574     1.190
   270   1 h        0.805     0.316     0.674     1.289
   271   8 o        1.609    -0.663    26.734     6.978
   272   1 h        0.804     0.340     0.612     1.228
   273   1 h        0.805     0.333     0.630     1.247
   274   8 o        1.609    -0.662    26.716     6.976
   275   1 h        0.804     0.361     0.563     1.178
   276   1 h        0.805     0.328     0.642     1.259
   277   8 o        1.607    -0.684    27.291     7.051
   278   1 h        0.802     0.349     0.590     1.206
   279   1 h        0.805     0.322     0.660     1.276
   280   8 o        1.607    -0.682    27.242     7.044
   281   1 h        0.805     0.324     0.653     1.269
   282   1 h        0.802     0.343     0.604     1.221
   283   8 o        1.609    -0.663    26.741     6.979
   284   1 h        0.804     0.348     0.594     1.211
   285   1 h        0.805     0.312     0.686     1.301
   286   8 o        1.606    -0.653    26.485     6.946
   287   1 h        0.806     0.306     0.702     1.316
   288   1 h        0.802     0.346     0.597     1.214
   289   8 o        1.609    -0.660    26.667     6.970
   290   1 h        0.804     0.335     0.625     1.242
   291   1 h        0.804     0.329     0.639     1.255
   292   8 o        1.605    -0.713    28.057     7.149
   293   1 h        0.803     0.331     0.636     1.252
   294   1 h        0.802     0.356     0.576     1.192
   295   8 o        1.607    -0.692    27.502     7.078
   296   1 h        0.804     0.351     0.587     1.203
   297   1 h        0.803     0.351     0.586     1.202
   298   8 o        1.608    -0.667    26.857     6.994
   299   1 h        0.804     0.327     0.646     1.263
   300   1 h        0.804     0.350     0.588     1.204
   301   8 o        1.607    -0.670    26.917     7.002
   302   1 h        0.802     0.347     0.596     1.213
   303   1 h        0.805     0.329     0.639     1.255
   304   8 o        1.606    -0.696    27.618     7.093
   305   1 h        0.802     0.361     0.563     1.179
   306   1 h        0.803     0.329     0.641     1.257
   307   8 o        1.609    -0.675    27.061     7.021
   308   1 h        0.804     0.340     0.612     1.229
   309   1 h        0.804     0.342     0.607     1.223
   310   8 o        1.608    -0.686    27.341     7.057
   311   1 h        0.804     0.352     0.584     1.200
   312   1 h        0.804     0.344     0.603     1.220
   313   8 o        1.603    -0.718    28.199     7.167
   314   1 h        0.804     0.356     0.574     1.190
   315   1 h        0.803     0.320     0.664     1.280
   316   8 o        1.608    -0.676    27.082     7.024
   317   1 h        0.804     0.335     0.625     1.242
   318   1 h        0.803     0.336     0.623     1.240
   319   8 o        1.608    -0.658    26.623     6.964
   320   1 h        0.803     0.335     0.625     1.242
   321   1 h        0.805     0.323     0.656     1.272
   322   8 o        1.607    -0.659    26.649     6.967
   323   1 h        0.802     0.354     0.580     1.196
   324   1 h        0.806     0.320     0.664     1.280
   325   8 o        1.608    -0.707    27.904     7.129
   326   1 h        0.804     0.338     0.616     1.233
   327   1 h        0.806     0.366     0.552     1.167
   328   8 o        1.609    -0.676    27.078     7.023
   329   1 h        0.804     0.330     0.637     1.253
   330   1 h        0.805     0.329     0.641     1.257
   331   8 o        1.606    -0.672    26.979     7.010
   332   1 h        0.804     0.333     0.629     1.246
   333   1 h        0.802     0.349     0.591     1.208
   334   8 o        1.607    -0.659    26.656     6.968
   335   1 h        0.802     0.334     0.627     1.244
   336   1 h        0.805     0.320     0.663     1.279
   337   8 o        1.606    -0.681    27.216     7.041
   338   1 h        0.802     0.346     0.597     1.214
   339   1 h        0.804     0.322     0.659     1.275
   340   8 o        1.606    -0.701    27.741     7.108
   341   1 h        0.804     0.353     0.582     1.198
   342   1 h        0.802     0.328     0.644     1.261
   343   8 o        1.608    -0.674    27.039     7.018
   344   1 h        0.804     0.356     0.574     1.190
   345   1 h        0.804     0.324     0.653     1.269
   346   8 o        1.606    -0.687    27.370     7.061
   347   1 h        0.802     0.352     0.584     1.201
   348   1 h        0.804     0.320     0.663     1.279
   349   8 o        1.605    -0.683    27.255     7.046
   350   1 h        0.803     0.335     0.624     1.241
   351   1 h        0.803     0.335     0.625     1.242
   352   8 o        1.607    -0.693    27.514     7.079
   353   1 h        0.803     0.342     0.607     1.224
   354   1 h        0.804     0.356     0.574     1.191
   355   8 o        1.608    -0.651    26.439     6.940
   356   1 h        0.802     0.352     0.584     1.200
   357   1 h        0.806     0.310     0.691     1.305
   358   8 o        1.609    -0.660    26.670     6.970
   359   1 h        0.805     0.326     0.647     1.263
   360   1 h        0.804     0.328     0.641     1.258
   361   8 o        1.609    -0.665    26.785     6.985
   362   1 h        0.804     0.346     0.598     1.215
   363   1 h        0.805     0.336     0.623     1.240
   364   8 o        1.610    -0.646    26.311     6.923
   365   1 h        0.805     0.328     0.643     1.259
   366   1 h        0.805     0.339     0.615     1.232
   367   8 o        1.607    -0.658    26.608     6.962
   368   1 h        0.803     0.334     0.628     1.245
   369   1 h        0.804     0.339     0.616     1.232
   370   8 o        1.607    -0.668    26.872     6.996
   371   1 h        0.802     0.351     0.585     1.202
   372   1 h        0.806     0.320     0.663     1.279
   373   8 o        1.607    -0.677    27.117     7.028
   374   1 h        0.802     0.360     0.566     1.182
   375   1 h        0.805     0.319     0.666     1.282
   376   8 o        1.603    -0.704    27.821     7.119
   377   1 h        0.803     0.330     0.638     1.255
   378   1 h        0.802     0.353     0.581     1.198
   379   8 o        1.606    -0.685    27.317     7.054
   380   1 h        0.803     0.349     0.592     1.208
   381   1 h        0.803     0.329     0.640     1.257
   382   8 o        1.608    -0.670    26.916     7.002
   383   1 h        0.803     0.348     0.594     1.211
   384   1 h        0.806     0.315     0.677     1.293
   385   8 o        1.609    -0.659    26.651     6.968
   386   1 h        0.805     0.328     0.642     1.258
   387   1 h        0.805     0.331     0.635     1.252
   388   8 o        1.608    -0.669    26.891     6.999
   389   1 h        0.804     0.347     0.595     1.212
   390   1 h        0.803     0.347     0.595     1.212
   391   8 o        1.610    -0.645    26.287     6.920
   392   1 h        0.806     0.320     0.663     1.279
   393   1 h        0.804     0.346     0.598     1.215
   394   8 o        1.608    -0.663    26.741     6.979
   395   1 h        0.804     0.336     0.621     1.238
   396   1 h        0.804     0.330     0.637     1.254
   397   8 o        1.609    -0.676    27.076     7.023
   398   1 h        0.804     0.337     0.621     1.237
   399   1 h        0.804     0.344     0.602     1.219
   400   8 o        1.609    -0.668    26.883     6.998
   401   1 h        0.804     0.345     0.600     1.217
   402   1 h        0.804     0.314     0.681     1.296
   403   8 o        1.607    -0.672    26.970     7.009
   404   1 h        0.803     0.339     0.615     1.232
   405   1 h        0.805     0.328     0.642     1.258
   406   8 o        1.607    -0.671    26.955     7.007
   407   1 h        0.802     0.342     0.607     1.224
   408   1 h        0.805     0.324     0.652     1.269
   409   8 o        1.609    -0.673    27.001     7.013
   410   1 h        0.804     0.350     0.587     1.204
   411   1 h        0.804     0.319     0.668     1.284
   412   8 o        1.608    -0.652    26.462     6.943
   413   1 h        0.803     0.355     0.577     1.193
   414   1 h        0.806     0.317     0.673     1.288
   415   8 o        1.606    -0.684    27.291     7.051
   416   1 h        0.804     0.361     0.564     1.179
   417   1 h        0.802     0.334     0.627     1.244
   418   8 o        1.607    -0.693    27.536     7.082
   419   1 h        0.803     0.345     0.599     1.216
   420   1 h        0.804     0.346     0.599     1.215
   421   8 o        1.606    -0.674    27.025     7.016
   422   1 h        0.806     0.312     0.687     1.302
   423   1 h        0.801     0.352     0.584     1.201
   424   8 o        1.610    -0.647    26.332     6.926
   425   1 h        0.804     0.344     0.603     1.219
   426   1 h        0.806     0.324     0.653     1.270
   427   8 o        1.605    -0.695    27.567     7.086
   428   1 h        0.803     0.329     0.639     1.256
   429   1 h        0.803     0.331     0.635     1.252
   430   8 o        1.608    -0.683    27.259     7.046
   431   1 h        0.805     0.319     0.667     1.283
   432   1 h        0.803     0.341     0.611     1.227
   433   8 o        1.608    -0.681    27.222     7.042
   434   1 h        0.803     0.333     0.631     1.248
   435   1 h        0.804     0.334     0.627     1.244
   436   8 o        1.609    -0.674    27.034     7.017
   437   1 h        0.804     0.340     0.612     1.229
   438   1 h        0.805     0.328     0.642     1.258
   439   8 o        1.607    -0.659    26.636     6.965
   440   1 h        0.802     0.343     0.606     1.223
   441   1 h        0.805     0.319     0.667     1.283
   442   8 o        1.607    -0.693    27.527     7.081
   443   1 h        0.803     0.341     0.611     1.228
   444   1 h        0.803     0.339     0.615     1.232
   445   8 o        1.608    -0.669    26.903     7.000
   446   1 h        0.805     0.333     0.630     1.246
   447   1 h        0.803     0.337     0.620     1.237
   448   8 o        1.604    -0.695    27.569     7.086
   449   1 h        0.803     0.348     0.593     1.210
   450   1 h        0.803     0.331     0.636     1.253
   451   8 o        1.606    -0.680    27.187     7.037
   452   1 h        0.803     0.359     0.567     1.183
   453   1 h        0.804     0.328     0.642     1.259
   454   8 o        1.608    -0.685    27.308     7.053
   455   1 h        0.804     0.337     0.619     1.236
   456   1 h        0.804     0.337     0.621     1.238
   457   8 o        1.609    -0.644    26.260     6.916
   458   1 h        0.804     0.347     0.595     1.212
   459   1 h        0.806     0.320     0.665     1.281
   460   8 o        1.606    -0.701    27.746     7.109
   461   1 h        0.804     0.332     0.633     1.249
   462   1 h        0.802     0.343     0.604     1.221
   463   8 o        1.607    -0.685    27.327     7.055
   464   1 h        0.804     0.329     0.639     1.255
   465   1 h        0.803     0.347     0.595     1.212
   466   8 o        1.607    -0.658    26.613     6.962
   467   1 h        0.802     0.345     0.601     1.218
   468   1 h        0.805     0.320     0.663     1.279
   469   8 o        1.609    -0.681    27.218     7.041
   470   1 h        0.804     0.351     0.587     1.203
   471   1 h        0.805     0.328     0.643     1.259
   472   8 o        1.608    -0.645    26.286     6.920
   473   1 h        0.803     0.335     0.624     1.241
   474   1 h        0.805     0.326     0.649     1.265
   475   8 o        1.608    -0.677    27.118     7.028
   476   1 h        0.805     0.314     0.680     1.295
   477   1 h        0.803     0.349     0.590     1.207
   478   8 o        1.609    -0.664    26.783     6.985
   479   1 h        0.804     0.345     0.599     1.216
   480   1 h        0.805     0.326     0.647     1.263
   481   8 o        1.606    -0.683    27.276     7.049
   482   1 h        0.803     0.331     0.635     1.252
   483   1 h        0.803     0.345     0.600     1.217
   484   8 o        1.607    -0.671    26.944     7.006
   485   1 h        0.803     0.345     0.600     1.217
   486   1 h        0.804     0.321     0.661     1.277
   487   8 o        1.608    -0.667    26.841     6.992
   488   1 h        0.805     0.329     0.641     1.257
   489   1 h        0.804     0.343     0.605     1.221
   490   8 o        1.608    -0.665    26.786     6.985
   491   1 h        0.803     0.351     0.586     1.203
   492   1 h        0.804     0.329     0.640     1.256
   493   8 o        1.605    -0.696    27.618     7.093
   494   1 h        0.803     0.340     0.612     1.229
   495   1 h        0.802     0.337     0.621     1.238
   496   8 o        1.605    -0.696    27.598     7.090
   497   1 h        0.803     0.349     0.591     1.207
   498   1 h        0.802     0.331     0.634     1.251
   499   8 o        1.607    -0.659    26.641     6.966
   500   1 h        0.802     0.347     0.596     1.213
   501   1 h        0.805     0.331     0.634     1.251
   502   8 o        1.610    -0.646    26.326     6.925
   503   1 h        0.806     0.323     0.656     1.272
   504   1 h        0.804     0.346     0.598     1.215
   505   8 o        1.605    -0.701    27.744     7.109
   506   1 h        0.802     0.351     0.587     1.204
   507   1 h        0.804     0.344     0.603     1.219
   508   8 o        1.607    -0.689    27.428     7.068
   509   1 h        0.804     0.331     0.635     1.252
   510   1 h        0.803     0.343     0.605     1.222
   511   8 o        1.608    -0.689    27.428     7.068
   512   1 h        0.804     0.329     0.641     1.258
   513   1 h        0.803     0.351     0.586     1.202
   514   8 o        1.608    -0.662    26.728     6.978
   515   1 h        0.806     0.310     0.693     1.307
   516   1 h        0.803     0.346     0.597     1.214
   517   8 o        1.609    -0.652    26.471     6.944
   518   1 h        0.805     0.343     0.605     1.222
   519   1 h        0.805     0.337     0.619     1.236
   520   8 o        1.606    -0.694    27.546     7.084
   521   1 h        0.802     0.356     0.574     1.191
   522   1 h        0.804     0.320     0.663     1.279
   523   8 o        1.608    -0.670    26.913     7.002
   524   1 h        0.805     0.332     0.632     1.249
   525   1 h        0.803     0.346     0.598     1.215
   526   8 o        1.611    -0.628    25.864     6.864
   527   1 h        0.806     0.322     0.657     1.273
   528   1 h        0.805     0.332     0.633     1.250
   529   8 o        1.609    -0.698    27.660     7.098
   530   1 h        0.804     0.333     0.629     1.246
   531   1 h        0.804     0.337     0.620     1.237

 Mol. C6AA /au·bohr⁶  :    1428718.175719
 Mol. C8AA /au·bohr⁸  :   25909515.685578
 Mol. α(0) /au        :       1680.184246


Wiberg/Mayer (AO) data.
largest (>0.10) Wiberg bond orders for each atom

 ---------------------------------------------------------------------------
     #   Z sym  total        # sym  WBO       # sym  WBO       # sym  WBO
 ---------------------------------------------------------------------------
     1   8 o    1.796 --     3 h    0.829     2 h    0.805
     2   1 h    0.886 --     1 o    0.805
     3   1 h    0.891 --     1 o    0.829
     4   8 o    1.865 --     6 h    0.843     5 h    0.822
     5   1 h    0.891 --     4 o    0.822
     6   1 h    0.881 --     4 o    0.843
     7   8 o    1.835 --     9 h    0.844     8 h    0.810
     8   1 h    0.881 --     7 o    0.810
     9   1 h    0.894 --     7 o    0.844
    10   8 o    1.857 --    12 h    0.811    11 h    0.801
    11   1 h    0.878 --    10 o    0.801
    12   1 h    0.881 --    10 o    0.811
    13   8 o    1.888 --    14 h    0.825    15 h    0.815
    14   1 h    0.880 --    13 o    0.825
    15   1 h    0.882 --    13 o    0.815
    16   8 o    1.852 --    17 h    0.874    18 h    0.816
    17   1 h    0.899 --    16 o    0.874
    18   1 h    0.874 --    16 o    0.816
    19   8 o    1.892 --    20 h    0.846    21 h    0.809
    20   1 h    0.889 --    19 o    0.846
    21   1 h    0.877 --    19 o    0.809
    22   8 o    1.805 --    23 h    0.848    24 h    0.843
    23   1 h    0.888 --    22 o    0.848
    24   1 h    0.884 --    22 o    0.843
    25   8 o    1.861 --    27 h    0.822    26 h    0.804
    26   1 h    0.873 --    25 o    0.804
    27   1 h    0.884 --    25 o    0.822
    28   8 o    1.879 --    29 h    0.816    30 h    0.804
    29   1 h    0.877 --    28 o    0.816
    30   1 h    0.882 --    28 o    0.804
    31   8 o    1.846 --    32 h    0.838    33 h    0.823
    32   1 h    0.887 --    31 o    0.838
    33   1 h    0.879 --    31 o    0.823
    34   8 o    1.851 --    35 h    0.839    36 h    0.822
    35   1 h    0.889 --    34 o    0.839
    36   1 h    0.889 --    34 o    0.822
    37   8 o    1.881 --    38 h    0.842    39 h    0.820
    38   1 h    0.883 --    37 o    0.842
    39   1 h    0.887 --    37 o    0.820
    40   8 o    1.850 --    41 h    0.850    42 h    0.830
    41   1 h    0.881 --    40 o    0.850
    42   1 h    0.889 --    40 o    0.830
    43   8 o    1.860 --    45 h    0.822    44 h    0.785
    44   1 h    0.873 --    43 o    0.785
    45   1 h    0.888 --    43 o    0.822
    46   8 o    1.822 --    48 h    0.890    47 h    0.793
    47   1 h    0.873 --    46 o    0.793
    48   1 h    0.900 --    46 o    0.890
    49   8 o    1.872 --    51 h    0.840    50 h    0.768
    50   1 h    0.868 --    49 o    0.768
    51   1 h    0.891 --    49 o    0.840
    52   8 o    1.860 --    54 h    0.826    53 h    0.804
    53   1 h    0.873 --    52 o    0.804
    54   1 h    0.887 --    52 o    0.826
    55   8 o    1.881 --    57 h    0.845    56 h    0.800
    56   1 h    0.875 --    55 o    0.800
    57   1 h    0.895 --    55 o    0.845
    58   8 o    1.838 --    59 h    0.819    60 h    0.814
    59   1 h    0.889 --    58 o    0.819
    60   1 h    0.883 --    58 o    0.814
    61   8 o    1.840 --    63 h    0.864    62 h    0.790
    62   1 h    0.872 --    61 o    0.790
    63   1 h    0.893 --    61 o    0.864
    64   8 o    1.884 --    65 h    0.836    66 h    0.789
    65   1 h    0.894 --    64 o    0.836
    66   1 h    0.873 --    64 o    0.789
    67   8 o    1.816 --    68 h    0.855    69 h    0.854
    68   1 h    0.889 --    67 o    0.855
    69   1 h    0.887 --    67 o    0.854
    70   8 o    1.847 --    71 h    0.820    72 h    0.818
    71   1 h    0.892 --    70 o    0.820
    72   1 h    0.892 --    70 o    0.818
    73   8 o    1.895 --    74 h    0.823    75 h    0.818
    74   1 h    0.876 --    73 o    0.823
    75   1 h    0.882 --    73 o    0.818
    76   8 o    1.869 --    77 h    0.850    78 h    0.826
    77   1 h    0.884 --    76 o    0.850
    78   1 h    0.885 --    76 o    0.826
    79   8 o    1.876 --    81 h    0.846    80 h    0.794   314 h    0.109
    80   1 h    0.876 --    79 o    0.794
    81   1 h    0.893 --    79 o    0.846
    82   8 o    1.862 --    83 h    0.834    84 h    0.797
    83   1 h    0.890 --    82 o    0.834
    84   1 h    0.876 --    82 o    0.797
    85   8 o    1.840 --    86 h    0.829    87 h    0.795
    86   1 h    0.895 --    85 o    0.829
    87   1 h    0.871 --    85 o    0.795
    88   8 o    1.817 --    90 h    0.873    89 h    0.821
    89   1 h    0.890 --    88 o    0.821
    90   1 h    0.893 --    88 o    0.873
    91   8 o    1.841 --    92 h    0.863    93 h    0.822
    92   1 h    0.897 --    91 o    0.863
    93   1 h    0.874 --    91 o    0.822
    94   8 o    1.810 --    95 h    0.899    96 h    0.812
    95   1 h    0.905 --    94 o    0.899
    96   1 h    0.885 --    94 o    0.812
    97   8 o    1.873 --    98 h    0.847    99 h    0.833
    98   1 h    0.887 --    97 o    0.847
    99   1 h    0.888 --    97 o    0.833
   100   8 o    1.884 --   102 h    0.821   101 h    0.798
   101   1 h    0.875 --   100 o    0.798
   102   1 h    0.890 --   100 o    0.821
   103   8 o    1.883 --   104 h    0.846   105 h    0.812
   104   1 h    0.880 --   103 o    0.846
   105   1 h    0.883 --   103 o    0.812
   106   8 o    1.838 --   107 h    0.827   108 h    0.803
   107   1 h    0.891 --   106 o    0.827
   108   1 h    0.877 --   106 o    0.803
   109   8 o    1.840 --   110 h    0.838   111 h    0.832
   110   1 h    0.886 --   109 o    0.838
   111   1 h    0.890 --   109 o    0.832
   112   8 o    1.840 --   113 h    0.847   114 h    0.819
   113   1 h    0.900 --   112 o    0.847
   114   1 h    0.881 --   112 o    0.819
   115   8 o    1.870 --   116 h    0.843   117 h    0.779
   116   1 h    0.890 --   115 o    0.843
   117   1 h    0.870 --   115 o    0.779
   118   8 o    1.867 --   119 h    0.879   120 h    0.795
   119   1 h    0.897 --   118 o    0.879
   120   1 h    0.879 --   118 o    0.795
   121   8 o    1.879 --   123 h    0.836   122 h    0.808
   122   1 h    0.878 --   121 o    0.808
   123   1 h    0.881 --   121 o    0.836
   124   8 o    1.827 --   125 h    0.891   126 h    0.784
   125   1 h    0.901 --   124 o    0.891
   126   1 h    0.871 --   124 o    0.784
   127   8 o    1.820 --   128 h    0.841   129 h    0.839
   128   1 h    0.892 --   127 o    0.841
   129   1 h    0.894 --   127 o    0.839
   130   8 o    1.858 --   131 h    0.838   132 h    0.766
   131   1 h    0.883 --   130 o    0.838
   132   1 h    0.871 --   130 o    0.766
   133   8 o    1.888 --   134 h    0.867   135 h    0.811
   134   1 h    0.891 --   133 o    0.867
   135   1 h    0.875 --   133 o    0.811
   136   8 o    1.846 --   138 h    0.854   137 h    0.839
   137   1 h    0.884 --   136 o    0.839
   138   1 h    0.892 --   136 o    0.854
   139   8 o    1.879 --   141 h    0.846   140 h    0.837
   140   1 h    0.891 --   139 o    0.837
   141   1 h    0.889 --   139 o    0.846
   142   8 o    1.860 --   143 h    0.839   144 h    0.818
   143   1 h    0.890 --   142 o    0.839
   144   1 h    0.884 --   142 o    0.818
   145   8 o    1.829 --   146 h    0.853   147 h    0.808
   146   1 h    0.891 --   145 o    0.853
   147   1 h    0.881 --   145 o    0.808
   148   8 o    1.855 --   150 h    0.874   149 h    0.825
   149   1 h    0.885 --   148 o    0.825
   150   1 h    0.898 --   148 o    0.874
   151   8 o    1.886 --   153 h    0.820   152 h    0.794   378 h    0.100
   152   1 h    0.878 --   151 o    0.794
   153   1 h    0.890 --   151 o    0.820
   154   8 o    1.822 --   155 h    0.878   156 h    0.783
   155   1 h    0.900 --   154 o    0.878
   156   1 h    0.873 --   154 o    0.783
   157   8 o    1.889 --   159 h    0.856   158 h    0.822
   158   1 h    0.882 --   157 o    0.822
   159   1 h    0.894 --   157 o    0.856
   160   8 o    1.860 --   162 h    0.836   161 h    0.835
   161   1 h    0.888 --   160 o    0.835
   162   1 h    0.880 --   160 o    0.836
   163   8 o    1.823 --   165 h    0.827   164 h    0.813
   164   1 h    0.878 --   163 o    0.813
   165   1 h    0.887 --   163 o    0.827
   166   8 o    1.816 --   167 h    0.848   168 h    0.841
   167   1 h    0.886 --   166 o    0.848
   168   1 h    0.898 --   166 o    0.841
   169   8 o    1.831 --   170 h    0.845   171 h    0.842
   170   1 h    0.890 --   169 o    0.845
   171   1 h    0.891 --   169 o    0.842
   172   8 o    1.825 --   174 h    0.865   173 h    0.829
   173   1 h    0.882 --   172 o    0.829
   174   1 h    0.890 --   172 o    0.865
   175   8 o    1.836 --   177 h    0.882   176 h    0.811
   176   1 h    0.876 --   175 o    0.811
   177   1 h    0.903 --   175 o    0.882
   178   8 o    1.835 --   179 h    0.816   180 h    0.805
   179   1 h    0.889 --   178 o    0.816
   180   1 h    0.881 --   178 o    0.805
   181   8 o    1.900 --   182 h    0.822   183 h    0.785
   182   1 h    0.884 --   181 o    0.822
   183   1 h    0.869 --   181 o    0.785
   184   8 o    1.878 --   185 h    0.836   186 h    0.803
   185   1 h    0.887 --   184 o    0.836
   186   1 h    0.880 --   184 o    0.803
   187   8 o    1.828 --   189 h    0.866   188 h    0.858
   188   1 h    0.889 --   187 o    0.858
   189   1 h    0.885 --   187 o    0.866
   190   8 o    1.893 --   191 h    0.817   192 h    0.813
   191   1 h    0.879 --   190 o    0.817
   192   1 h    0.889 --   190 o    0.813
   193   8 o    1.878 --   195 h    0.841   194 h    0.769
   194   1 h    0.869 --   193 o    0.769
   195   1 h    0.887 --   193 o    0.841
   196   8 o    1.884 --   198 h    0.825   197 h    0.776
   197   1 h    0.874 --   196 o    0.776
   198   1 h    0.882 --   196 o    0.825
   199   8 o    1.870 --   200 h    0.867   201 h    0.810
   200   1 h    0.891 --   199 o    0.867
   201   1 h    0.880 --   199 o    0.810
   202   8 o    1.845 --   203 h    0.835   204 h    0.832
   203   1 h    0.890 --   202 o    0.835
   204   1 h    0.888 --   202 o    0.832
   205   8 o    1.866 --   207 h    0.892   206 h    0.787
   206   1 h    0.876 --   205 o    0.787
   207   1 h    0.902 --   205 o    0.892
   208   8 o    1.857 --   210 h    0.812   209 h    0.801
   209   1 h    0.877 --   208 o    0.801
   210   1 h    0.876 --   208 o    0.812
   211   8 o    1.820 --   213 h    0.886   212 h    0.767
   212   1 h    0.865 --   211 o    0.767
   213   1 h    0.901 --   211 o    0.886
   214   8 o    1.857 --   215 h    0.847   216 h    0.786
   215   1 h    0.893 --   214 o    0.847
   216   1 h    0.870 --   214 o    0.786
   217   8 o    1.802 --   219 h    0.866   218 h    0.804
   218   1 h    0.878 --   217 o    0.804
   219   1 h    0.900 --   217 o    0.866
   220   8 o    1.858 --   221 h    0.864   222 h    0.788
   221   1 h    0.895 --   220 o    0.864
   222   1 h    0.870 --   220 o    0.788
   223   8 o    1.866 --   225 h    0.877   224 h    0.794
   224   1 h    0.868 --   223 o    0.794
   225   1 h    0.898 --   223 o    0.877
   226   8 o    1.834 --   227 h    0.863   228 h    0.862
   227   1 h    0.883 --   226 o    0.863
   228   1 h    0.893 --   226 o    0.862
   229   8 o    1.851 --   230 h    0.835   231 h    0.806
   230   1 h    0.893 --   229 o    0.835
   231   1 h    0.880 --   229 o    0.806
   232   8 o    1.870 --   234 h    0.840   233 h    0.797
   233   1 h    0.882 --   232 o    0.797
   234   1 h    0.888 --   232 o    0.840
   235   8 o    1.853 --   237 h    0.884   236 h    0.811
   236   1 h    0.878 --   235 o    0.811
   237   1 h    0.892 --   235 o    0.884
   238   8 o    1.870 --   240 h    0.843   239 h    0.763
   239   1 h    0.868 --   238 o    0.763
   240   1 h    0.885 --   238 o    0.843
   241   8 o    1.829 --   242 h    0.851   243 h    0.821
   242   1 h    0.890 --   241 o    0.851
   243   1 h    0.887 --   241 o    0.821
   244   8 o    1.826 --   246 h    0.851   245 h    0.843
   245   1 h    0.877 --   244 o    0.843
   246   1 h    0.895 --   244 o    0.851
   247   8 o    1.839 --   248 h    0.826   249 h    0.825
   248   1 h    0.886 --   247 o    0.826
   249   1 h    0.882 --   247 o    0.825
   250   8 o    1.874 --   251 h    0.894   252 h    0.835
   251   1 h    0.905 --   250 o    0.894
   252   1 h    0.889 --   250 o    0.835
   253   8 o    1.823 --   255 h    0.871   254 h    0.803
   254   1 h    0.876 --   253 o    0.803
   255   1 h    0.898 --   253 o    0.871
   256   8 o    1.851 --   257 h    0.844   258 h    0.791
   257   1 h    0.891 --   256 o    0.844
   258   1 h    0.873 --   256 o    0.791
   259   8 o    1.870 --   260 h    0.838   261 h    0.791
   260   1 h    0.893 --   259 o    0.838
   261   1 h    0.877 --   259 o    0.791
   262   8 o    1.837 --   264 h    0.877   263 h    0.820
   263   1 h    0.881 --   262 o    0.820
   264   1 h    0.895 --   262 o    0.877
   265   8 o    1.873 --   267 h    0.873   266 h    0.795
   266   1 h    0.881 --   265 o    0.795
   267   1 h    0.899 --   265 o    0.873
   268   8 o    1.887 --   270 h    0.877   269 h    0.814
   269   1 h    0.873 --   268 o    0.814
   270   1 h    0.900 --   268 o    0.877
   271   8 o    1.838 --   273 h    0.863   272 h    0.841
   272   1 h    0.884 --   271 o    0.841
   273   1 h    0.889 --   271 o    0.863
   274   8 o    1.867 --   276 h    0.861   275 h    0.829
   275   1 h    0.869 --   274 o    0.829
   276   1 h    0.892 --   274 o    0.861
   277   8 o    1.819 --   279 h    0.865   278 h    0.801
   278   1 h    0.878 --   277 o    0.801
   279   1 h    0.896 --   277 o    0.865
   280   8 o    1.835 --   281 h    0.863   282 h    0.801
   281   1 h    0.895 --   280 o    0.863
   282   1 h    0.882 --   280 o    0.801
   283   8 o    1.824 --   285 h    0.890   284 h    0.825
   284   1 h    0.879 --   283 o    0.825
   285   1 h    0.903 --   283 o    0.890
   286   8 o    1.858 --   287 h    0.899   288 h    0.789
   287   1 h    0.906 --   286 o    0.899
   288   1 h    0.880 --   286 o    0.789
   289   8 o    1.848 --   291 h    0.854   290 h    0.838
   290   1 h    0.888 --   289 o    0.838
   291   1 h    0.891 --   289 o    0.854
   292   8 o    1.830 --   293 h    0.832   294 h    0.793
   293   1 h    0.891 --   292 o    0.832
   294   1 h    0.874 --   292 o    0.793
   295   8 o    1.873 --   296 h    0.812   297 h    0.796
   296   1 h    0.877 --   295 o    0.812
   297   1 h    0.877 --   295 o    0.796
   298   8 o    1.862 --   299 h    0.838   300 h    0.822
   299   1 h    0.893 --   298 o    0.838
   300   1 h    0.877 --   298 o    0.822
   301   8 o    1.864 --   303 h    0.860   302 h    0.801
   302   1 h    0.880 --   301 o    0.801
   303   1 h    0.891 --   301 o    0.860
   304   8 o    1.872 --   306 h    0.823   305 h    0.785
   305   1 h    0.869 --   304 o    0.785
   306   1 h    0.892 --   304 o    0.823
   307   8 o    1.849 --   309 h    0.844   308 h    0.838
   308   1 h    0.884 --   307 o    0.838
   309   1 h    0.883 --   307 o    0.844
   310   8 o    1.853 --   312 h    0.827   311 h    0.807
   311   1 h    0.876 --   310 o    0.807
   312   1 h    0.882 --   310 o    0.827
   313   8 o    1.822 --   315 h    0.841   314 h    0.751
   314   1 h    0.873 --   313 o    0.751    79 o    0.109
   315   1 h    0.898 --   313 o    0.841
   316   8 o    1.843 --   317 h    0.843   318 h    0.832
   317   1 h    0.888 --   316 o    0.843
   318   1 h    0.887 --   316 o    0.832
   319   8 o    1.850 --   321 h    0.851   320 h    0.834
   320   1 h    0.888 --   319 o    0.834
   321   1 h    0.895 --   319 o    0.851
   322   8 o    1.861 --   324 h    0.893   323 h    0.801
   323   1 h    0.875 --   322 o    0.801
   324   1 h    0.898 --   322 o    0.893
   325   8 o    1.850 --   326 h    0.826   327 h    0.770
   326   1 h    0.885 --   325 o    0.826
   327   1 h    0.866 --   325 o    0.770
   328   8 o    1.818 --   330 h    0.855   329 h    0.851
   329   1 h    0.891 --   328 o    0.851
   330   1 h    0.892 --   328 o    0.855
   331   8 o    1.891 --   332 h    0.834   333 h    0.803
   332   1 h    0.889 --   331 o    0.834
   333   1 h    0.878 --   331 o    0.803
   334   8 o    1.855 --   336 h    0.877   335 h    0.813
   335   1 h    0.888 --   334 o    0.813
   336   1 h    0.897 --   334 o    0.877
   337   8 o    1.841 --   339 h    0.849   338 h    0.803
   338   1 h    0.880 --   337 o    0.803
   339   1 h    0.896 --   337 o    0.849
   340   8 o    1.824 --   341 h    0.827   342 h    0.816
   341   1 h    0.875 --   340 o    0.827
   342   1 h    0.893 --   340 o    0.816
   343   8 o    1.856 --   345 h    0.836   344 h    0.822
   344   1 h    0.873 --   343 o    0.822
   345   1 h    0.895 --   343 o    0.836
   346   8 o    1.844 --   348 h    0.841   347 h    0.789
   347   1 h    0.876 --   346 o    0.789
   348   1 h    0.897 --   346 o    0.841
   349   8 o    1.848 --   351 h    0.817   350 h    0.813
   350   1 h    0.888 --   349 o    0.813
   351   1 h    0.888 --   349 o    0.817
   352   8 o    1.848 --   354 h    0.830   353 h    0.823
   353   1 h    0.883 --   352 o    0.823
   354   1 h    0.873 --   352 o    0.830
   355   8 o    1.852 --   357 h    0.900   356 h    0.806
   356   1 h    0.876 --   355 o    0.806
   357   1 h    0.904 --   355 o    0.900
   358   8 o    1.839 --   359 h    0.865   360 h    0.840
   359   1 h    0.893 --   358 o    0.865
   360   1 h    0.892 --   358 o    0.840
   361   8 o    1.855 --   363 h    0.866   362 h    0.836
   362   1 h    0.880 --   361 o    0.836
   363   1 h    0.887 --   361 o    0.866
   364   8 o    1.837 --   365 h    0.887   366 h    0.858
   365   1 h    0.892 --   364 o    0.887
   366   1 h    0.885 --   364 o    0.858
   367   8 o    1.888 --   369 h    0.835   368 h    0.816
   368   1 h    0.889 --   367 o    0.816
   369   1 h    0.885 --   367 o    0.835
   370   8 o    1.843 --   372 h    0.893   371 h    0.796
   371   1 h    0.877 --   370 o    0.796
   372   1 h    0.897 --   370 o    0.893
   373   8 o    1.843 --   375 h    0.887   374 h    0.791
   374   1 h    0.870 --   373 o    0.791
   375   1 h    0.898 --   373 o    0.887
   376   8 o    1.847 --   377 h    0.828   378 h    0.772
   377   1 h    0.891 --   376 o    0.828
   378   1 h    0.875 --   376 o    0.772   151 o    0.100
   379   8 o    1.860 --   381 h    0.825   380 h    0.808
   380   1 h    0.878 --   379 o    0.808
   381   1 h    0.892 --   379 o    0.825
   382   8 o    1.817 --   384 h    0.893   383 h    0.814
   383   1 h    0.879 --   382 o    0.814
   384   1 h    0.901 --   382 o    0.893
   385   8 o    1.845 --   386 h    0.858   387 h    0.835
   386   1 h    0.892 --   385 o    0.858
   387   1 h    0.890 --   385 o    0.835
   388   8 o    1.882 --   389 h    0.833   390 h    0.813
   389   1 h    0.880 --   388 o    0.833
   390   1 h    0.879 --   388 o    0.813
   391   8 o    1.836 --   392 h    0.890   393 h    0.850
   392   1 h    0.897 --   391 o    0.890
   393   1 h    0.880 --   391 o    0.850
   394   8 o    1.863 --   396 h    0.838   395 h    0.834
   395   1 h    0.887 --   394 o    0.834
   396   1 h    0.891 --   394 o    0.838
   397   8 o    1.842 --   398 h    0.851   399 h    0.834
   398   1 h    0.887 --   397 o    0.851
   399   1 h    0.882 --   397 o    0.834
   400   8 o    1.847 --   402 h    0.850   401 h    0.817
   401   1 h    0.881 --   400 o    0.817
   402   1 h    0.901 --   400 o    0.850
   403   8 o    1.841 --   405 h    0.857   404 h    0.819
   404   1 h    0.885 --   403 o    0.819
   405   1 h    0.892 --   403 o    0.857
   406   8 o    1.840 --   408 h    0.874   407 h    0.814
   407   1 h    0.883 --   406 o    0.814
   408   1 h    0.895 --   406 o    0.874
   409   8 o    1.824 --   411 h    0.862   410 h    0.844
   410   1 h    0.877 --   409 o    0.844
   411   1 h    0.898 --   409 o    0.862
   412   8 o    1.859 --   414 h    0.897   413 h    0.815
   413   1 h    0.874 --   412 o    0.815
   414   1 h    0.900 --   412 o    0.897
   415   8 o    1.868 --   416 h    0.828   417 h    0.824
   416   1 h    0.870 --   415 o    0.828
   417   1 h    0.888 --   415 o    0.824
   418   8 o    1.850 --   420 h    0.842   419 h    0.810
   419   1 h    0.881 --   418 o    0.810
   420   1 h    0.881 --   418 o    0.842
   421   8 o    1.836 --   422 h    0.896   423 h    0.780
   422   1 h    0.903 --   421 o    0.896
   423   1 h    0.876 --   421 o    0.780
   424   8 o    1.841 --   426 h    0.890   425 h    0.846
   425   1 h    0.882 --   424 o    0.846
   426   1 h    0.895 --   424 o    0.890
   427   8 o    1.834 --   429 h    0.826   428 h    0.813
   428   1 h    0.891 --   427 o    0.813
   429   1 h    0.891 --   427 o    0.826
   430   8 o    1.798 --   431 h    0.865   432 h    0.819
   431   1 h    0.898 --   430 o    0.865
   432   1 h    0.884 --   430 o    0.819
   433   8 o    1.834 --   435 h    0.843   434 h    0.840
   434   1 h    0.889 --   433 o    0.840
   435   1 h    0.888 --   433 o    0.843
   436   8 o    1.826 --   438 h    0.866   437 h    0.836
   437   1 h    0.884 --   436 o    0.836
   438   1 h    0.892 --   436 o    0.866
   439   8 o    1.854 --   441 h    0.884   440 h    0.796
   440   1 h    0.883 --   439 o    0.796
   441   1 h    0.898 --   439 o    0.884
   442   8 o    1.822 --   444 h    0.828   443 h    0.825
   443   1 h    0.884 --   442 o    0.825
   444   1 h    0.885 --   442 o    0.828
   445   8 o    1.850 --   446 h    0.856   447 h    0.825
   446   1 h    0.889 --   445 o    0.856
   447   1 h    0.886 --   445 o    0.825
   448   8 o    1.862 --   450 h    0.812   449 h    0.789
   449   1 h    0.879 --   448 o    0.789
   450   1 h    0.891 --   448 o    0.812
   451   8 o    1.877 --   453 h    0.840   452 h    0.799
   452   1 h    0.871 --   451 o    0.799
   453   1 h    0.892 --   451 o    0.840
   454   8 o    1.805 --   456 h    0.843   455 h    0.836
   455   1 h    0.886 --   454 o    0.836
   456   1 h    0.887 --   454 o    0.843
   457   8 o    1.849 --   459 h    0.891   458 h    0.841
   458   1 h    0.880 --   457 o    0.841
   459   1 h    0.898 --   457 o    0.891
   460   8 o    1.811 --   461 h    0.841   462 h    0.804
   461   1 h    0.890 --   460 o    0.841
   462   1 h    0.882 --   460 o    0.804
   463   8 o    1.836 --   464 h    0.849   465 h    0.803
   464   1 h    0.891 --   463 o    0.849
   465   1 h    0.879 --   463 o    0.803
   466   8 o    1.864 --   468 h    0.886   467 h    0.794
   467   1 h    0.881 --   466 o    0.794
   468   1 h    0.897 --   466 o    0.886
   469   8 o    1.830 --   471 h    0.859   470 h    0.826
   470   1 h    0.877 --   469 o    0.826
   471   1 h    0.892 --   469 o    0.859
   472   8 o    1.866 --   474 h    0.868   473 h    0.833
   473   1 h    0.888 --   472 o    0.833
   474   1 h    0.894 --   472 o    0.868
   475   8 o    1.805 --   476 h    0.887   477 h    0.815
   476   1 h    0.901 --   475 o    0.887
   477   1 h    0.878 --   475 o    0.815
   478   8 o    1.845 --   480 h    0.860   479 h    0.841
   479   1 h    0.881 --   478 o    0.841
   480   1 h    0.893 --   478 o    0.860
   481   8 o    1.861 --   482 h    0.825   483 h    0.799
   482   1 h    0.890 --   481 o    0.825
   483   1 h    0.881 --   481 o    0.799
   484   8 o    1.858 --   486 h    0.862   485 h    0.804
   485   1 h    0.881 --   484 o    0.804
   486   1 h    0.897 --   484 o    0.862
   487   8 o    1.841 --   488 h    0.854   489 h    0.830
   488   1 h    0.892 --   487 o    0.854
   489   1 h    0.882 --   487 o    0.830
   490   8 o    1.896 --   492 h    0.839   491 h    0.801
   491   1 h    0.877 --   490 o    0.801
   492   1 h    0.892 --   490 o    0.839
   493   8 o    1.856 --   495 h    0.806   494 h    0.800
   494   1 h    0.884 --   493 o    0.800
   495   1 h    0.887 --   493 o    0.806
   496   8 o    1.858 --   498 h    0.807   497 h    0.804
   497   1 h    0.878 --   496 o    0.804
   498   1 h    0.890 --   496 o    0.807
   499   8 o    1.883 --   501 h    0.849   500 h    0.815
   500   1 h    0.880 --   499 o    0.815
   501   1 h    0.890 --   499 o    0.849
   502   8 o    1.845 --   503 h    0.893   504 h    0.839
   503   1 h    0.896 --   502 o    0.893
   504   1 h    0.880 --   502 o    0.839
   505   8 o    1.833 --   507 h    0.820   506 h    0.793
   506   1 h    0.877 --   505 o    0.793
   507   1 h    0.882 --   505 o    0.820
   508   8 o    1.822 --   509 h    0.839   510 h    0.823
   509   1 h    0.891 --   508 o    0.839
   510   1 h    0.882 --   508 o    0.823
   511   8 o    1.830 --   512 h    0.853   513 h    0.823
   512   1 h    0.892 --   511 o    0.853
   513   1 h    0.877 --   511 o    0.823
   514   8 o    1.820 --   515 h    0.898   516 h    0.812
   515   1 h    0.904 --   514 o    0.898
   516   1 h    0.880 --   514 o    0.812
   517   8 o    1.846 --   519 h    0.865   518 h    0.858
   518   1 h    0.882 --   517 o    0.858
   519   1 h    0.886 --   517 o    0.865
   520   8 o    1.828 --   522 h    0.843   521 h    0.791
   521   1 h    0.873 --   520 o    0.791
   522   1 h    0.897 --   520 o    0.843
   523   8 o    1.854 --   524 h    0.855   525 h    0.823
   524   1 h    0.890 --   523 o    0.855
   525   1 h    0.880 --   523 o    0.823
   526   8 o    1.847 --   527 h    0.884   528 h    0.871
   527   1 h    0.896 --   526 o    0.884
   528   1 h    0.890 --   526 o    0.871
   529   8 o    1.824 --   530 h    0.825   531 h    0.807
   530   1 h    0.889 --   529 o    0.825
   531   1 h    0.887 --   529 o    0.807
 ---------------------------------------------------------------------------

Topologies differ in total number of bonds
Writing topology from bond orders to xtbtopo.mol

molecular dipole:
                 x           y           z       tot (Debye)
 q only:       -1.880       0.217       1.287
   full:       -2.006       0.570       0.947       5.822
molecular quadrupole (traceless):
                xx          xy          yy          xz          yz          zz
 q only:      130.269     106.023     -63.803     -15.422     -10.872     -66.466
  q+dip:      173.964     141.865     -89.026     -32.508     -24.538     -84.937
   full:      175.099     142.691     -90.143     -32.901     -24.508     -84.956


           -------------------------------------------------
          | TOTAL ENERGY             -901.405596011659 Eh   |
          | GRADIENT NORM               0.104945993776 Eh/α |
          | HOMO-LUMO GAP               7.716125928271 eV   |
           -------------------------------------------------

------------------------------------------------------------------------
 * finished run on 2022/11/17 at 06:54:57.580     
------------------------------------------------------------------------
 total:
 * wall-time:     0 d,  0 h,  0 min,  8.406 sec
 *  cpu-time:     0 d,  0 h,  0 min, 13.532 sec
 * ratio c/w:     1.610 speedup
 SCF:
 * wall-time:     0 d,  0 h,  0 min,  7.835 sec
 *  cpu-time:     0 d,  0 h,  0 min, 12.510 sec
 * ratio c/w:     1.597 speedup

