531
 energy: -901.183893978944 gnorm: 0.023543388256 xtb: 6.5.1 (579679a)
o            0.12202623167858       -2.35411333969229       -0.61057092305307
h           -0.35354316919929       -2.06927961581809        0.20435779494003
h           -0.58485399693884       -2.81863106799555       -1.10028569331898
o            2.07782171682558       -3.66436005393154        2.07935278018355
h            2.18733334736547       -4.39236213388973        2.72792262021112
h            1.29104965602041       -3.90743648687934        1.57234938202212
o            3.49761334330156        1.68680551360332        1.09641625797768
h            3.48188793616090        1.71054193830085        0.11405094981861
h            4.33761202216929        2.10549258615883        1.33188310693198
o            1.03679763000870       -2.17647100277354       -3.70479222098027
h            0.06266145928621       -2.19396399455066       -3.81428753372172
h            1.26043408046042       -2.91886916719579       -3.10904435055216
o           -4.51907318493375       -1.18049160137746        1.72779846820015
h           -4.84372690431344       -0.29556825807824        1.96463462152681
h           -5.23574373614286       -1.82732330126651        1.88339178066444
o            4.19471723562648       -3.39063853192639       -2.74648304478960
h            3.62564118852363       -3.39629109540204       -3.52060023666883
h            3.61996883815002       -3.23840757975030       -1.97516223205026
o           -1.39833505086656       -1.59901174564855        1.38518576298656
h           -0.89074881105911       -1.66287277142351        2.20965153789504
h           -2.09227641218494       -2.28999282084127        1.42193301317709
o            4.94107742688133       -3.34837323304768        1.84168835763332
h            5.20401108438729       -2.99082538292008        0.98570124644974
h            3.98262529360367       -3.46638477149894        1.81719366740603
o           -2.17249513514218       -3.35733003941685       -1.45667571145416
h           -2.70315338760954       -2.63123955078131       -1.07042159898927
h           -2.58417657984744       -4.18996228816773       -1.16223727167086
o            0.43251093447267        2.65764946323094        4.09920937938713
h            0.79044140836494        3.08798423070596        3.29775676684403
h            0.91852067128226        1.80777596097961        4.15435554937085
o           -1.37514169971850       -0.08122583036409       -2.15488538647626
h           -1.38202199608028       -0.74984551353155       -2.85666653866696
h           -2.01510556764455       -0.40126411517188       -1.49521878457786
o            3.70995796620113        2.58298130475833        3.83088133788225
h            4.34916524759733        3.27349973579451        3.60679197817249
h            3.47537312976509        2.77627546872527        4.76319536378475
o            1.85932229669774        3.84579305879878        2.06590942313090
h            2.50668374043749        3.14881906216181        1.88055249102765
h            2.27371979685099        4.48855743916472        2.67934819671817
o           -3.44153873130439        3.32562522425850        2.57560328874302
h           -3.38127961659492        2.44242797349857        2.19774401569972
h           -2.58128092501645        3.75755419298509        2.43329174454609
o           -0.66454363914572        4.38221466393090       -4.68079318282994
h           -0.40938549801834        3.61003202247163       -4.11922922003023
h           -1.41932025491986        4.76420714519111       -4.18593875194101
o           -1.92908063492545        7.48651732402312       -1.95801957764075
h           -2.17525087788668        6.62318862101983       -2.37286500895237
h           -2.63179200172984        8.10299840122736       -2.15907382458741
o           -2.51623383755096        5.08578912105550       -2.88309997751463
h           -2.25452890473149        4.45471292500485       -2.15976938712310
h           -3.37648257893962        4.78506803045559       -3.21513687140899
o           -1.58756623281036       -2.24828083541119       -3.81154905377556
h           -1.89244738152429       -2.76860087363710       -3.04175222419520
h           -2.21033511403138       -2.40333110822618       -4.54267167104451
o            4.85499324186819        0.33600127992702        4.73280713260414
h            4.64994232009198        1.18822098996012        4.29639221389329
h            5.40067576464123        0.54722219273055        5.50657165621662
o            5.93262975658803       -0.75997326679201        1.14463425150428
h            6.35395133159928       -0.86474413087146        2.01644540082038
h            4.98390856340767       -0.93860999871834        1.26328659439605
o           -5.52499343590758        5.90748490362075       -1.83737883723357
h           -4.92273822148301        5.45454414154343       -1.19759481879077
h           -5.21291677976067        5.66459913875512       -2.71754393987408
o           -0.86308783232522        0.40599901273265       -4.89167118886536
h           -0.88376142750709        1.12994063166740       -5.54349798369067
h           -1.80297151482537        0.12650033726343       -4.77162828600209
o            6.02628459959897        3.50354693065102        6.09248442815726
h            6.43919610759049        2.64756897746646        6.26690544167487
h            5.10898492950356        3.41238973280861        6.39287458468802
o            8.22682089783966       -1.25880444321200       -0.28195214204123
h            8.76602585321364       -1.64405839996895       -1.00303182864168
h            8.59197715996183       -1.65119131950707        0.53829500695838
o           -4.03429378271005        2.07439603714340       -0.38389373698356
h           -3.64462170346264        2.07572159282068       -1.27409856429306
h           -5.00610027414852        2.03577885292648       -0.46477224287959
o            4.31987496881467       -0.88170475719790       -1.29425310532300
h            4.84453180743839       -0.11882843617569       -1.02025286814418
h            4.86560911868316       -1.66598722053458       -1.09429061387472
o           -2.84705627445862       -1.47885403249601        3.74169945585591
h           -3.42648155180135       -1.26835724742569        2.97873807314148
h           -3.17005128559210       -0.98206461598701        4.50860442590499
o           -3.11823671569898        1.80045436905910       -2.89479511872957
h           -3.12294473466220        2.01146373578207       -3.84237185881600
h           -2.41746022521521        1.13064601030223       -2.73935120695108
o           -7.00049519741444        2.66586218506920       -3.72861717356965
h           -7.77866782721780        2.13282470292278       -3.98349521212285
h           -6.42579309693354        2.01166775286316       -3.26818360968760
o            4.41662676953856       -1.60556010124081        7.00673480983572
h            5.21130363001041       -1.97393071276465        6.56971678978116
h            3.73648531233975       -2.27918648354353        6.89015115445219
o            5.62706845353731       -2.44095699843515       -5.01542828618335
h            4.82790859178098       -2.92855315019766       -5.25032125519078
h            5.30446061366769       -1.68480508948855       -4.49137372210364
o           -9.31373800339883       -5.35579654450501        1.18462461029406
h           -9.67951605696299       -6.23059447614393        1.30353999636152
h           -8.91026572303168       -5.09121281665216        2.04484616028534
o           -1.55750246709965        3.39857987538960       -1.11513265604150
h           -1.17013265183871        2.84692799687022       -1.81006946896711
h           -0.80482756603023        3.83227244005296       -0.67986998902344
o            1.67191927658437       -4.54578113465590       -2.72993785322419
h            0.99841275516999       -4.79613942492827       -2.06376132793016
h            1.42022692753536       -4.92811382378413       -3.59818471507120
o            1.95721594271545        0.48750529907080        4.08227955625817
h            2.66608120654888        1.01342823727732        3.68835069200567
h            2.22414611745032        0.36527247101092        5.02218906335606
o            3.13694938486319       -6.73926558165086       -2.24917871882768
h            4.08084777209074       -6.63865920028479       -2.48487307746098
h            2.69941725345602       -5.92672309283629       -2.58073642376698
o            3.51064354609295       -1.90567750599697        3.94887278853534
h            4.01671341894137       -1.16557791166136        4.31853298533942
h            2.93856837276849       -2.21709747130395        4.67336698601858
o           -4.86958328321428       -3.30535068903944       -0.44168221892188
h           -5.36691399017361       -4.12207403656632       -0.58903182275134
h           -5.48138933665296       -2.55973588231500       -0.56530765595230
o            6.13168127882041        1.23226803097392       -0.50277293025402
h            6.03269659070399        2.05310504741912       -0.00015862978508
h            6.18260243849657        0.51099466959158        0.17276710297138
o            1.36879513150697        5.84200309229592       -3.86596830472689
h            2.06601926102079        6.04215702642644       -4.49528186694102
h            0.61442795479541        5.40259423066324       -4.32776118718295
o            2.69003789472616       -2.99857174700124       -0.49482842069129
h            1.72339538470853       -2.89037451103930       -0.57371121057278
h            2.97262236890877       -2.34329938609566        0.16223248854835
o            0.54689085636130       -0.98850109068963        7.57114492357124
h           -0.02832187677235       -1.29365844157815        8.27106072073505
h           -0.02421246025383       -0.81795187491281        6.78159677452362
o            1.99649898327081       -2.77993891248561        6.04701579627588
h            1.51535802160970       -2.18744780255513        6.64896036072882
h            1.33079811023257       -3.37233109672493        5.66182244201286
o           -0.79061162144916       -0.74180625527763        5.35238226992155
h           -0.27853690495797       -1.13959576917187        4.63625272596193
h           -1.27343494465440        0.00847889571311        4.92061954287935
o           -0.03738952133087        2.31078377361221       -3.16780012120083
h            0.91682637643960        2.30728122263735       -3.04904967841798
h           -0.28681069129044        1.47399556184707       -3.61221620976905
o            0.73556417975657        6.96473618313211       -1.43612725406021
h            1.04850746222232        6.66830545773400       -2.30621687403583
h           -0.14514914853341        7.33073378627628       -1.59487317623253
o           -3.01787764590991       -5.86632987523926       -0.76781885166425
h           -2.89768793306112       -6.46439683725208       -1.52888953755418
h           -2.46020130414972       -6.20997285615716       -0.05288372639346
o           -6.24450813615288       -0.91796951033337       -0.69376997323426
h           -7.07943856129050       -1.03573184680776       -1.17613157638195
h           -6.51873179991108       -0.74148622000685        0.22431578778864
o            9.13953826866049        3.70089280854214       -1.15469664157089
h            8.45450302561594        4.18383400153608       -1.64249542621390
h            8.97836195441380        2.76932815407001       -1.42028719062985
o           -3.36391928370563        2.53580354233579       -5.54087881203372
h           -4.07439269328960        1.99024534425083       -5.93661490841817
h           -2.62746183953205        2.52956663181397       -6.15704348116739
o           -8.88320915574192        1.08778104117912        0.05538585346171
h           -8.03130974557880        1.51948892262615       -0.19267047292482
h           -9.43625137363205        1.06966278005973       -0.75360000558337
o            1.04749277911665        4.46623120253640        5.90174673355329
h            0.26733871119735        5.02769517914524        5.96221001854383
h            0.77561130164107        3.74972815841144        5.27689961522488
o           -8.54427618548696       -1.03993939581733       -2.14495581759719
h           -8.16048840389366       -1.79948945704871       -2.62630799223874
h           -9.42249893740840       -1.28566433851995       -1.82706979848971
o           -1.89276673919477        1.25441045961945        4.06816159676795
h           -1.15072621383893        1.86795593189675        3.92967637521630
h           -2.20894296016066        0.98809779992698        3.19480265319538
o            6.35058586401107       -2.78397261111140        5.52545972636391
h            6.44712197545508       -2.11509613036747        4.81998034751648
h            5.68903040938873       -3.44189471417103        5.22672736097981
o            8.17173100325089        1.01967921139738        1.51842562412494
h            8.09884670761272        0.23671152963864        0.95922362510604
h            9.02857922715488        1.43301050324947        1.33091434822184
o           -8.41892218991706        3.29221707305792        3.78209152570854
h           -8.33079024469381        2.47357390930914        4.29414427270189
h           -9.09506233558692        3.13682496927464        3.10249812775943
o           -1.40844303612863        0.14011244170061       -8.10720347033736
h           -0.81183964767971       -0.50233579969461       -7.68034304434043
h           -1.14377272188430        1.01530335740337       -7.80256731770089
o           -0.50116189170387       -4.45205201925164        1.62686596346415
h           -1.44197103521830       -4.23956100766621        1.47282856705546
h           -0.43759107960160       -4.74061957927916        2.54246295081782
o            4.42870226511789        5.31445756774049       -1.64611964697784
h            4.42991178480554        5.51667524137917       -0.68757237150911
h            3.65158756161663        4.73426926966834       -1.79152598748773
o           -4.03113774200272        4.70539234034772       -0.01842703839055
h           -4.35597610316540        4.91617610249156        0.88128899973667
h           -3.90544665126400        3.73083137846447       -0.06537218573502
o           -7.36849602997248       -0.37085173719327        1.70871230797085
h           -8.09617685766025        0.06367928349203        1.23479535423932
h           -6.76418633803849        0.33268457253470        2.03579948062458
o           -6.77231369288473        6.82564201853681        0.63017218913465
h           -7.53288565912120        6.22985314961267        0.69462860015424
h           -6.40751803282925        6.71422759317382       -0.25576434007075
o           -6.67027301315145        2.45778675767362       -0.26880013156141
h           -6.57472854781616        2.88728617952609        0.60672072361030
h           -6.99724292351616        3.16617020665190       -0.86497613405028
o            8.42385584125920        1.18404889704767       -1.75805414819266
h            7.58767530153766        1.22275914505606       -1.22264363016681
h            9.05629372088371        0.62409235639841       -1.27697120072661
o            5.66639317118862        3.32077881580773        1.19144924786084
h            5.87042002815946        3.00043581712818        2.10795900222954
h            5.14522677354102        4.14294542582963        1.23996304945969
o            7.01525054834584       -0.66416070438095       -3.12860744213688
h            7.13791785286519       -1.47469788348179       -2.63003982449269
h            7.51242221471929        0.03982165440567       -2.66919089046045
o            2.70271240995033        5.50184923345455        3.99759075411540
h            2.27844975681215        5.16365526073145        4.80911433822472
h            3.66151518779514        5.35858178354649        4.06469142918993
o           -3.59999148490335       -0.43062729624773        6.17027381004006
h           -2.97256814071365        0.29244351006789        6.44251827028232
h           -3.64384223593514       -1.06455951283314        6.88558946457519
o           -2.64683445953452        0.80681257024651        1.43482041158139
h           -3.18563355604619        1.10389630018371        0.67234345782207
h           -2.35175368411104       -0.10709225616418        1.26476260825894
o            7.85517435892014       -0.88250476762391       -5.60233266703206
h            7.48274155057318       -0.85826297187311       -4.67795398159326
h            7.69017620642826       -1.77632546789775       -5.90929650475300
o           -3.05765967821954       -3.70197335194174        1.43726492075487
h           -3.48498378627366       -3.85491923875168        2.29210202804546
h           -3.75927126712601       -3.56988935449627        0.75984246450390
o            2.90113632734117       -3.04132129363527       -5.43973105941778
h            2.16229322468869       -2.73874557630700       -4.87150261693611
h            2.95484047005835       -2.35251515744056       -6.11707330197586
o            0.13736419615575       -1.46817363818699       -6.48718577273798
h            1.05666271826615       -1.26111611749754       -6.69348167889862
h           -0.15479096433921       -0.84960493237637       -5.77672327335243
o           -6.55160152156161       -0.39101854202255       -4.94832661530897
h           -6.10254439092399       -0.09272411429735       -4.12398862408821
h           -7.45704458055709       -0.07154883386192       -4.87238622365416
o            9.96653612493392       -0.21651205901288       -3.84265759728940
h            9.50408060083911        0.55531439557982       -3.49119072599746
h            9.52896451873089       -0.42711969187287       -4.67828877786229
o            6.10500459759544       -2.84553663629964       -0.68209815411685
h            6.38709795322393       -3.16950995944241       -1.55622929601753
h            6.78892089284409       -2.20356522865946       -0.38446672253046
o          -10.12687133105849       -2.79538047055259        0.82891421579602
h          -10.15755739271181       -2.41407037262941        1.74024977714457
h          -10.11095836943499       -3.76149052941982        0.93623659323880
o           -2.14914245850876        1.66369206484748        6.79958719255408
h           -2.63685133956056        2.30954567252734        6.23923935264173
h           -1.25582282468824        1.65542865521443        6.45163070643677
o            4.44684301253487       -0.20986028562983       -3.79642176187937
h            4.37939112739273       -0.64073116555458       -2.89897480534188
h            5.00054752886374        0.56412597706195       -3.61014236756147
o            2.27167221934090        7.21027990615134        0.85640113784586
h            1.80690087916090        7.29024404133275        0.01267486722385
h            1.58665660619484        7.13837299142247        1.55132627057258
o            5.41701162322560        0.21399229784645       -6.47117745602326
h            4.98629994618590        0.11055506974322       -5.60971324274740
h            6.27121367707519       -0.23613646959219       -6.37692042686790
o            3.23519699424802       -0.99798341451029        1.41314026299307
h            3.27212756222173       -0.02577952910811        1.46139567661620
h            3.24875647078970       -1.35001322704972        2.32443817814566
o           -7.68338855385793       -3.33151103881231       -0.20799299590302
h           -7.81849685212273       -4.27908892439859       -0.29066605723267
h           -8.53482842556377       -2.96162280302925        0.08333582626828
o           -8.94033491774179        0.83869301028864       -4.01515194648589
h           -8.72555427966889        0.19260070493131       -3.30396672776752
h           -9.74033347792026        1.26351808467461       -3.68415136979511
o            1.86730562815697        1.72940138115115       -5.91135087876224
h            2.56201094790412        2.35371102652950       -5.64524679265082
h            1.66642600579410        1.23586081704040       -5.08551498788072
o            6.88103469729761       -0.90524540611386        3.62561094492628
h            7.66994288430510       -0.37872066386326        3.83958145927487
h            6.11773372251444       -0.36533228530545        3.93760402378072
o           10.63673923565473        1.97588163018330        0.82436995171716
h           10.82087792927092        1.32723941096267        0.11287664372785
h           10.49070883880269        2.81409402291674        0.37583001683149
o            4.37515196998646        5.66623824400304        1.00753516602382
h            3.55541391383923        6.22010108371704        1.03845238775548
h            5.07910558017545        6.19719834504230        1.39812242498614
o            6.46580883842105        2.06936562191013        3.30193947855554
h            7.08486838548688        1.57923784198274        2.72486120419553
h            7.00691685651885        2.60763144477179        3.88598365447002
o            0.98091892779347       -7.86531734427885       -1.07174729636645
h            1.85314738217020       -7.67198937021521       -1.45858044207735
h            1.13354716843281       -7.98759608393453       -0.12701413911617
o            7.46461723115473       -3.71202893550881        3.03598361623028
h            6.60239274684949       -3.50166195082586        2.63396340942884
h            7.37943301445808       -3.51776067713262        3.97874233686385
o            1.23896020945271       -6.87873092691137        1.57452063782080
h            1.89885208423032       -6.34928883413142        1.07269465257837
h            1.49801711921858       -6.74358859784964        2.49560068456546
o          -10.17412455447463       -1.84092853610400        3.29185551159137
h          -10.58599108266285       -0.96854787844118        3.23689545339042
h           -9.27646327465678       -1.67593266481201        3.65860256916576
o           -6.08508923774320       -3.36701938871803        5.11257118127079
h           -6.53730207648809       -2.57146744052661        4.77431438365289
h           -6.72617444056555       -4.07496020633714        5.01540102798581
o           -5.69488591254542       -5.74266325641272        2.24061896652217
h           -6.33559884300151       -6.07067954178026        2.87118158621995
h           -4.80463661103994       -6.06019965105272        2.54571580601620
o           -3.11744905077198       -3.08159691749864       -5.95628149859375
h           -3.43733154159451       -2.39792025572814       -6.56641831168702
h           -2.34142987426906       -3.49564871668417       -6.36388931647726
o            5.56589446371261       -5.67987591093754       -2.53541282377167
h            5.77813981072106       -5.77918830252376       -1.58490518595734
h            5.04038844436737       -4.84763060955088       -2.60324649507827
o           -5.53837908586523        0.71240827010496       -2.72899302761230
h           -5.66744004369159        0.20002893384189       -1.91023284047420
h           -4.59681646862069        0.98517848329791       -2.79452866873166
o           -0.08743920138755       -5.36620794553909       -0.94334200907925
h            0.15884397766279       -6.30830937023341       -0.90542637969704
h           -0.20992715832337       -5.05933345031006       -0.03051385096906
o            9.36055934045463       -2.26549825911355        1.87620801033067
h            8.69701736671606       -2.80490063566943        2.36391295108292
h            9.66474309693334       -1.54942165694942        2.44869412261760
o            3.08103866135017       -5.54996213749098        0.15683324424936
h            2.90591427729770       -4.60431637932487       -0.05271521390911
h            3.09523325773349       -6.03010223484463       -0.69535100988717
o           -3.33345720873137       -6.42814518681582        3.13474369796778
h           -2.62308980353733       -6.53193638268628        2.48113792830733
h           -3.18630180548432       -5.59814316082063        3.61533641727964
o           -3.37593107599090       -1.04536825011390       -0.73655218496467
h           -3.87787939922188       -1.11281445255639        0.09507069197982
h           -3.99175803595619       -1.25281217096764       -1.46088032906382
o           -3.62616405797499       -3.89743669540702        4.15193645729532
h           -3.28693209494820       -2.97447780153645        3.98806460679889
h           -4.53238503079874       -3.77640592273622        4.49425324563624
o            9.52264959491652       -2.44009515231534       -2.30919045425986
h            8.82577938327011       -2.96911766083403       -2.73065348825796
h            9.75778806970119       -1.71764191354234       -2.92275837673481
o            5.33676021407103        4.75962843481542        3.82243873846526
h            5.74323435425961        4.44680190363872        4.65355197545692
h            5.92997014803496        5.39908456548870        3.40628999587434
o           -7.92651213700164        1.05348415886078        5.35763246503434
h           -6.96001761146989        1.24917979080494        5.39412782334868
h           -8.26068136649824        1.15947075212769        6.24786446304140
o           -0.95608996229699        4.41705257509870        2.20431323969005
h           -1.18754128592351        4.97047931205354        1.43689123508963
h           -0.53296684755273        3.61218751447173        1.85909809571831
o          -12.60869435700253        0.11565907506936        0.68292412944030
h          -12.09417201263832        0.16190334407927        1.50288463486657
h          -12.10444207058542       -0.43665507158861        0.07026621848109
o           -6.34735867151077       -3.12570005120683        2.08782353199803
h           -5.91962920649406       -4.00135407756600        2.12372858506683
h           -6.79156892139796       -3.09460138949213        1.20980179245825
o          -10.67939666859687        1.26081673912539       -1.93593776798942
h          -11.26326955132669        1.87818554664734       -1.43375925638018
h          -11.07766043374705        0.38830009337484       -1.85033168633170
o            7.17136621836191       -3.56849647972531       -3.13342396988999
h            6.61070888877782       -3.19554523942664       -3.85245730058012
h            6.89815188200949       -4.49853238333913       -3.06277936574407
o           -0.00668575817966       -4.04285873671536        4.60568310079808
h            0.08128157025868       -3.23633403484242        4.07093773311049
h           -0.71162767727736       -3.85000743440762        5.26484848094288
o           -1.16556505796225       -5.01834555931260       -3.43053822072449
h           -1.02699687041836       -4.93256322387150       -2.47295767296631
h           -0.84442453805654       -5.90890496688920       -3.65509189599118
o           -1.87478293196301        6.12553479659070        0.40566509856341
h           -2.64785734743971        5.56204867946943        0.16193391707619
h           -1.77694307674053        6.75313519676414       -0.32474344667128
o            5.83647473140918        2.14196295507477       -3.27236463919980
h            6.19545215450389        2.90877623393234       -2.77731230922902
h            6.58324548342566        1.91701639904493       -3.86889112775560
o           -0.55057811601878       -4.03683419247444       -5.96609878728299
h           -0.24144858639907       -3.12631507224975       -6.14818268388950
h           -0.81074217158146       -4.07114199329135       -5.03024543970851
o           -1.42579101601941       -7.05628732663855        1.20390111310545
h           -0.46825934165605       -6.90160384238937        1.36930521846002
h           -1.53500272408713       -8.00117839257417        1.09850033068413
o            7.79365873512711        1.88548718837004       -5.07001085371954
h            7.96126817687710        1.01328566249017       -5.44211407059666
h            7.23237563280135        2.34797449726171       -5.71727574076802
o           11.25544658075260       -2.36858899244938       -0.09545549474384
h           10.66221400649099       -2.50950522557522        0.66248992073624
h           10.83465063109311       -2.79734869927025       -0.85205576274890
o           -2.78536460398208       -7.49242980757427       -2.91691463157718
h           -3.34113356991938       -7.15876570333078       -3.62404580077155
h           -1.92049403182217       -7.69433995554168       -3.29562009564210
o           -6.36208842244417        3.55754147614184        2.13141091255380
h           -7.09731180093245        3.58904201711941        2.78193070150041
h           -5.75513730795536        4.28268810436461        2.35063291001505
o          -11.18072368588530       -1.51501349924135       -1.19283477043254
h          -10.81357564744806       -2.00427872724877       -0.41567350323517
h          -11.80186725325741       -2.10477523832502       -1.62090174011762
o           -8.33251404103369       -4.31847996754404        3.44308779526020
h           -7.63985345829665       -3.74344525279390        3.03773008236842
h           -9.03916914927231       -3.72643960037193        3.71347776267446
o          -10.00916268897911        2.87991104421023        1.57273148208656
h           -9.67913872019778        3.73469585010608        1.23062429682613
h           -9.55275811922314        2.19300783113922        1.01278781433654
o            3.84867421143146        3.19773424792375       -4.76385371652369
h            4.47938534271583        2.79980545624234       -4.12673922823306
h            3.83189127938813        4.15898023034189       -4.57933624944256
o            6.86494453419045        6.40788548189499        2.17866470356964
h            7.43891690263927        5.71142647451086        1.79007889502160