      -----------------------------------------------------------      
     |                   =====================                   |     
     |                           x T B                           |     
     |                   =====================                   |     
     |                         S. Grimme                         |     
     |          Mulliken Center for Theoretical Chemistry        |     
     |                    University of Bonn                     |     
      -----------------------------------------------------------      

   * xtb version 6.5.1 (579679a) compiled by 'ehlert@majestix' on 2022-07-11

   xtb is free software: you can redistribute it and/or modify it under
   the terms of the GNU Lesser General Public License as published by
   the Free Software Foundation, either version 3 of the License, or
   (at your option) any later version.
   
   xtb is distributed in the hope that it will be useful,
   but WITHOUT ANY WARRANTY; without even the implied warranty of
   MERCHANTABILITY or FITNESS FOR A PARTICULAR PURPOSE.  See the
   GNU Lesser General Public License for more details.
   
   Cite this work as:
   * C. Bannwarth, E. Caldeweyher, S. Ehlert, A. Hansen, P. Pracht,
     J. Seibert, S. Spicher, S. Grimme, WIREs Comput. Mol. Sci., 2020, 11,
     e01493. DOI: 10.1002/wcms.1493
   
   for GFN2-xTB:
   * C. Bannwarth, S. Ehlert and S. Grimme., J. Chem. Theory Comput., 2019,
     15, 1652-1671. DOI: 10.1021/acs.jctc.8b01176
   for GFN1-xTB:
   * S. Grimme, C. Bannwarth, P. Shushkov, J. Chem. Theory Comput., 2017,
     13, 1989-2009. DOI: 10.1021/acs.jctc.7b00118
   for GFN0-xTB:
   * P. Pracht, E. Caldeweyher, S. Ehlert, S. Grimme, ChemRxiv, 2019, preprint.
     DOI: 10.26434/chemrxiv.8326202.v1
   for GFN-FF:
   * S. Spicher and S. Grimme, Angew. Chem. Int. Ed., 2020, 59, 15665-15673.
     DOI: 10.1002/anie.202004239
   
   for ALPB and GBSA implicit solvation:
   * S. Ehlert, M. Stahn, S. Spicher, S. Grimme, J. Chem. Theory Comput.,
     2021, 17, 4250-4261. DOI: 10.1021/acs.jctc.1c00471
   
   for DFT-D4:
   * E. Caldeweyher, C. Bannwarth and S. Grimme, J. Chem. Phys., 2017,
     147, 034112. DOI: 10.1063/1.4993215
   * E. Caldeweyher, S. Ehlert, A. Hansen, H. Neugebauer, S. Spicher,
     C. Bannwarth and S. Grimme, J. Chem. Phys., 2019, 150, 154122.
     DOI: 10.1063/1.5090222
   * E. Caldeweyher, J.-M. Mewes, S. Ehlert and S. Grimme, Phys. Chem. Chem. Phys.
     2020, 22, 8499-8512. DOI: 10.1039/D0CP00502A
   
   for sTDA-xTB:
   * S. Grimme and C. Bannwarth, J. Chem. Phys., 2016, 145, 054103.
     DOI: 10.1063/1.4959605
   
   in the mass-spec context:
   * V. Asgeirsson, C. Bauer and S. Grimme, Chem. Sci., 2017, 8, 4879.
     DOI: 10.1039/c7sc00601b
   * J. Koopman and S. Grimme, ACS Omega 2019, 4, 12, 15120-15133.
     DOI: 10.1021/acsomega.9b02011
   
   for metadynamics refer to:
   * S. Grimme, J. Chem. Theory Comput., 2019, 155, 2847-2862
     DOI: 10.1021/acs.jctc.9b00143
   
   for SPH calculations refer to:
   * S. Spicher and S. Grimme, J. Chem. Theory Comput., 2021, 17, 1701-1714
     DOI: 10.1021/acs.jctc.0c01306
   
   with help from (in alphabetical order)
   P. Atkinson, C. Bannwarth, F. Bohle, G. Brandenburg, E. Caldeweyher
   M. Checinski, S. Dohm, S. Ehlert, S. Ehrlich, I. Gerasimov, C. Hölzer
   A. Katbashev, J. Koopman, C. Lavigne, S. Lehtola, F. März, M. Müller,
   F. Musil, H. Neugebauer, J. Pisarek, C. Plett, P. Pracht, F. Pultar,
   J. Seibert, P. Shushkov, S. Spicher, M. Stahn, M. Steiner, T. Strunk,
   J. Stückrath, T. Rose, and J. Unsleber
   
 * started run on 2022/11/03 at 00:49:15.948     

           -------------------------------------------------
          |                Calculation Setup                |
           -------------------------------------------------

          program call               : xtb cluster.xyz --gfn2 --ohess
          hostname                   : cn0272
          coordinate file            : cluster.xyz
          omp threads                :                     1

   ID    Z sym.   atoms
    1    1 H      1, 3, 5, 6, 8, 10-12, 14, 15, 17, 18, 20, 21, 23, 24, 26,
                  27, 29, 30, 32, 33, 35, 36, 38, 39, 41, 42, 44, 45, 47, 48,
                  50, 51, 53, 54, 56, 57, 59, 60, 62, 63, 65, 66, 68, 69, 71,
                  72, 74, 75, 77, 78, 80, 81, 83, 84, 86, 87, 89, 90, 92, 93,
                  95, 96, 98, 99, 101, 102, 104, 105, 107, 108, 110, 111,
                  113, 114, 116, 117, 119, 120, 122, 123, 125, 126, 128, 129,
                  131, 132, 134, 135, 137, 138, 140, 141, 143, 144, 146, 147,
                  149, 150, 152, 153, 155, 156, 158, 159, 161, 162, 164, 165,
                  167, 168, 170, 171, 173, 174, 176, 177, 179, 180, 182, 183,
                  185, 186, 188, 189, 191, 192, 194, 195, 197, 198, 200, 201,
                  203, 204, 206, 207, 209, 210, 212, 213, 215, 216, 218, 219,
                  221, 222, 224, 225, 227, 228, 230, 231, 233, 234, 236, 237,
                  239, 240, 242, 243, 245, 246, 248, 249, 251, 252, 254, 255,
                  257, 258, 260, 261, 263, 264, 266, 267, 269, 270, 272, 273,
                  275, 276, 278, 279, 281, 282, 284, 285, 287, 288, 290, 291,
                  293, 294, 296, 297, 299, 300, 302, 303, 305, 306, 308, 309,
                  311, 312, 314, 315, 317, 318, 320, 321, 323, 324, 326, 327,
                  329, 330, 332, 333, 335, 336, 338, 339, 341, 342, 344, 345,
                  347, 348, 350, 351, 353, 354, 356, 357, 359, 360, 362, 363,
                  365, 366, 368, 369, 371, 372, 374, 375, 377, 378, 380, 381,
                  383, 384, 386, 387, 389, 390, 392, 393, 395, 396, 398, 399,
                  401, 402, 404, 405, 407, 408, 410, 411, 413, 414, 416, 417,
                  419, 420, 422, 423, 425, 426, 428, 429, 431, 432, 434, 435,
                  437, 438, 440, 441, 443, 444, 446, 447, 449, 450, 452, 453,
                  455, 456, 458, 459, 461, 462, 464, 465, 467, 468, 470, 471,
                  473, 474, 476, 477, 479, 480, 482, 483, 485, 486, 488, 489,
                  491, 492, 494, 495, 497, 498, 500, 501, 503, 504, 506, 507,
                  509, 510, 512, 513, 515, 516, 518, 519, 521, 522, 524, 525,
                  527, 528, 530, 531, 533, 534, 536, 537, 539, 540, 542, 543,
                  545, 546, 548, 549, 551, 552, 554, 555, 557, 558, 560, 561,
                  563, 564, 566, 567, 569, 570, 572, 573, 575, 576, 578, 579,
                  581, 582, 584, 585, 587, 588, 590, 591, 593, 594, 596, 597,
                  599, 600, 602, 603, 605, 606, 608, 609, 611, 612
    2    6 C      2, 4
    3    8 O      7, 13, 16, 19, 22, 25, 28, 31, 34, 37, 40, 43, 46, 49, 52,
                  55, 58, 61, 64, 67, 70, 73, 76, 79, 82, 85, 88, 91, 94, 97,
                  100, 103, 106, 109, 112, 115, 118, 121, 124, 127, 130, 133,
                  136, 139, 142, 145, 148, 151, 154, 157, 160, 163, 166, 169,
                  172, 175, 178, 181, 184, 187, 190, 193, 196, 199, 202, 205,
                  208, 211, 214, 217, 220, 223, 226, 229, 232, 235, 238, 241,
                  244, 247, 250, 253, 256, 259, 262, 265, 268, 271, 274, 277,
                  280, 283, 286, 289, 292, 295, 298, 301, 304, 307, 310, 313,
                  316, 319, 322, 325, 328, 331, 334, 337, 340, 343, 346, 349,
                  352, 355, 358, 361, 364, 367, 370, 373, 376, 379, 382, 385,
                  388, 391, 394, 397, 400, 403, 406, 409, 412, 415, 418, 421,
                  424, 427, 430, 433, 436, 439, 442, 445, 448, 451, 454, 457,
                  460, 463, 466, 469, 472, 475, 478, 481, 484, 487, 490, 493,
                  496, 499, 502, 505, 508, 511, 514, 517, 520, 523, 526, 529,
                  532, 535, 538, 541, 544, 547, 550, 553, 556, 559, 562, 565,
                  568, 571, 574, 577, 580, 583, 586, 589, 592, 595, 598, 601,
                  604, 607, 610
    4    7 N      9

molecular fragmentation (1/2 indicates fragments):
111111111111222222222222222222222222222222222222222222222222222222222222
222222222222222222222222222222222222222222222222222222222222222222222222
222222222222222222222222222222222222222222222222222222222222222222222222
222222222222222222222222222222222222222222222222222222222222222222222222
222222222222222222222222222222222222222222222222222222222222222222222222
222222222222222222222222222222222222222222222222222222222222222222222222
222222222222222222222222222222222222222222222222222222222222222222222222
222222222222222222222222222222222222222222222222222222222222222222222222
222222222222222222222222222222222222
# atoms in fragment 1/2:    12   600
 fragment masses (1/2) :       62.09     3603.06
CMA distance (Bohr)    :   0.890
constraining FC (au)   :  0.0500

           -------------------------------------------------
          |                 G F N 2 - x T B                 |
           -------------------------------------------------

        Reference                      10.1021/acs.jctc.8b01176
      * Hamiltonian:
        H0-scaling (s, p, d)           1.850000    2.230000    2.230000
        zeta-weighting                 0.500000
      * Dispersion:
        s8                             2.700000
        a1                             0.520000
        a2                             5.000000
        s9                             5.000000
      * Repulsion:
        kExp                           1.500000    1.000000
        rExp                           1.000000
      * Coulomb:
        alpha                          2.000000
        third order                    shell-resolved
        anisotropic                    true
        a3                             3.000000
        a5                             4.000000
        cn-shift                       1.200000
        cn-exp                         4.000000
        max-rad                        5.000000


          ...................................................
          :                      SETUP                      :
          :.................................................:
          :  # basis functions                1224          :
          :  # atomic orbitals                1224          :
          :  # shells                          816          :
          :  # electrons                      1626          :
          :  max. iterations                   250          :
          :  Hamiltonian                  GFN2-xTB          :
          :  restarted?                      false          :
          :  GBSA solvation                  false          :
          :  PC potential                    false          :
          :  electronic temp.          300.0000000     K    :
          :  accuracy                    1.0000000          :
          :  -> integral cutoff          0.2500000E+02      :
          :  -> integral neglect         0.1000000E-07      :
          :  -> SCF convergence          0.1000000E-05 Eh   :
          :  -> wf. convergence          0.1000000E-03 e    :
          :  Broyden damping             0.4000000          :
          ...................................................

 iter      E             dE          RMSdq      gap      omega  full diag
   1  -1039.6638378 -0.103966E+04  0.407E+00    8.09       0.0  T
   2  -1039.7864896 -0.122652E+00  0.241E+00    8.09       1.0  T
   3  -1039.8116232 -0.251336E-01  0.232E-01    7.83       1.0  T
   4  -1039.8157523 -0.412904E-02  0.909E-02    7.86       1.0  T
   5  -1039.8162656 -0.513326E-03  0.296E-02    7.89       1.0  T
   6  -1039.8162952 -0.295503E-04  0.133E-02    7.90       1.0  T
   7  -1039.8163000 -0.487481E-05  0.187E-03    7.90       2.2  T
   8  -1039.8163005 -0.442559E-06  0.627E-04    7.90       6.4  T
   9  -1039.8163005 -0.177943E-07  0.204E-04    7.90      19.8  T

   *** convergence criteria satisfied after 9 iterations ***

         #    Occupation            Energy/Eh            Energy/eV
      -------------------------------------------------------------
         1        2.0000           -0.7405563             -20.1516
       ...           ...                  ...                  ...
       807        2.0000           -0.4604107             -12.5284
       808        2.0000           -0.4601869             -12.5223
       809        2.0000           -0.4598616             -12.5135
       810        2.0000           -0.4573436             -12.4450
       811        2.0000           -0.4570266             -12.4363
       812        2.0000           -0.4560665             -12.4102
       813        2.0000           -0.4442632             -12.0890 (HOMO)
       814                         -0.1539879              -4.1902 (LUMO)
       815                         -0.1404575              -3.8220
       816                         -0.1288668              -3.5066
       817                         -0.1263324              -3.4377
       818                         -0.1184165              -3.2223
       ...                                ...                  ...
      1224                          0.3712302              10.1017
      -------------------------------------------------------------
                  HL-Gap            0.2902754 Eh            7.8988 eV
             Fermi-level           -0.2991256 Eh           -8.1396 eV

 SCC (total)                   0 d,  0 h,  0 min, 17.188 sec
 SCC setup                      ...        0 min,  0.035 sec (  0.205%)
 Dispersion                     ...        0 min,  0.087 sec (  0.508%)
 classical contributions        ...        0 min,  0.021 sec (  0.121%)
 integral evaluation            ...        0 min,  0.723 sec (  4.204%)
 iterations                     ...        0 min,  6.580 sec ( 38.281%)
 molecular gradient             ...        0 min,  9.669 sec ( 56.256%)
 printout                       ...        0 min,  0.073 sec (  0.424%)

         :::::::::::::::::::::::::::::::::::::::::::::::::::::
         ::                     SUMMARY                     ::
         :::::::::::::::::::::::::::::::::::::::::::::::::::::
         :: total energy           -1033.471496384213 Eh    ::
         :: gradient norm              0.000329990563 Eh/a0 ::
         :: HOMO-LUMO gap              7.898794829288 eV    ::
         ::.................................................::
         :: SCC energy             -1039.816300492054 Eh    ::
         :: -> isotropic ES            5.740353777235 Eh    ::
         :: -> anisotropic ES         -1.316774798997 Eh    ::
         :: -> anisotropic XC         -0.097064871961 Eh    ::
         :: -> dispersion             -0.634888003549 Eh    ::
         :: repulsion energy           6.221966497614 Eh    ::
         :: add. restraining           0.000000000000 Eh    ::
         :: total charge               1.000000000000 e     ::
         :::::::::::::::::::::::::::::::::::::::::::::::::::::

      ----------------------------------------------------------- 
     |                       L-ANC optimizer                     |
      ----------------------------------------------------------- 
          low memory version by Sebastian Ehlert

          ...................................................
          :                      SETUP                      :
          :.................................................:
          :   energy convergence        0.5000000E-05 Eh    :
          :   grad. convergence         0.1000000E-02 Eh/a0 :
          :   optimization log               true           :
          :   writing optlog all                1     steps :
          :   Hessian reset                    20     steps :
          :   maximium step len.        1.0000000     a0    :
          :   LBFGS images                     20           :
          ...................................................
 * calculating model hessian...
Using Lindh-Hessian (1995)
 Shifting diagonal of input Hessian by   1.185698631685227E-002
 Lowest  eigenvalues of input Hessian
    0.010000    0.011072    0.011667    0.000000    0.000000    0.000000
    0.000000    0.000000    0.000000    0.011865    0.011877    0.011890
    0.011951    0.011977    0.011988    0.012017    0.012032    0.012047
 Highest eigenvalues
    1.443740    1.445642    1.448455    1.452038    1.483820    1.491716
 

........................................................................
.............................. CYCLE    1 ..............................
........................................................................
   1  -1039.8163704 -0.103982E+04  0.893E-04    7.90       0.0  T
   2  -1039.8163704 -0.988666E-08  0.548E-04    7.90       7.4  T
   3  -1039.8163704 -0.370960E-08  0.550E-05    7.90      73.5  T
     SCC iter.                  ...        0 min,  2.002 sec
     gradient                   ...        0 min,  9.478 sec
 * total energy  : -1033.4714963 Eh     change        0.4140134E-07 Eh
   gradient norm :     0.0003322 Eh/a0  converged?    E=F G=T D=F
   step length   :     0.0102974 a0

........................................................................
.............................. CYCLE    2 ..............................
........................................................................
   1  -1039.8164116 -0.103982E+04  0.550E-04    7.90       0.0  T
   2  -1039.8164116 -0.357727E-08  0.338E-04    7.90      11.9  T
   3  -1039.8164116 -0.142722E-08  0.316E-05    7.90     127.7  T
     SCC iter.                  ...        0 min,  2.018 sec
     gradient                   ...        0 min,  9.521 sec
 * total energy  : -1033.4714970 Eh     change       -0.7017156E-06 Eh
   gradient norm :     0.0001287 Eh/a0  converged?    E=T G=T D=F
   step length   :     0.0060018 a0

   *** GEOMETRY OPTIMIZATION CONVERGED AFTER 2 CYCLES ***

------------------------------------------------------------------------
 total energy gain   :        -0.0000007 Eh       -0.0004 kcal/mol
 total RMSD          :         0.0003952 a0        0.0002 Å
 total power (kW/mol):        -0.0008668 (step)   -0.0001 (real)
------------------------------------------------------------------------

 L-ANCopt (total)              0 d,  0 h,  0 min, 31.242 sec
 setup                          ...        0 min,  0.022 sec (  0.071%)
 model hessian                  ...        0 min,  4.696 sec ( 15.033%)
 ANC generation                 ...        0 min,  1.666 sec (  5.333%)
 coordinate transformation      ...        0 min,  0.014 sec (  0.044%)
 Rational function              ...        0 min,  0.002 sec (  0.007%)
 singlepoint calculation        ...        0 min, 24.821 sec ( 79.447%)
 optimization log               ...        0 min,  0.016 sec (  0.051%)
 hessian update                 ...        0 min,  0.000 sec (  0.000%)

================
 final structure:
================
612
 xtb: 6.5.1 (579679a)
H           -1.98400027511363       -0.48898402471661        0.05637387000706
C           -1.01571936892622       -0.53716208751426       -0.42896844808534
H           -0.86007997009291       -1.55433875550667       -0.79196110323474
C            0.06789903750868       -0.19451798013468        0.57094528775633
H            1.04432462750599       -0.30133483408074        0.10723861671672
H           -0.01952492653930       -0.88208483781430        1.40540759550999
O           -1.05088527877749        0.37735504114380       -1.50907034717570
H           -0.12114560821483        0.53983505765902       -1.77207644992738
N           -0.08914488679570        1.19572672385465        1.02291324532949
H           -0.10682866473979        1.84375506938227        0.19973687716231
H            0.68396787320156        1.45964111583272        1.65284720089093
H           -0.99795636739103        1.33322415623268        1.50227977401615
O            2.64315480598441        4.13710350537407        2.78200438210754
H            3.36877969366534        4.50882400617112        2.23113391597628
H            2.75695670630486        4.49466858971708        3.68664181251256
O            3.42287974849318        2.53334756450269       -3.17971568638096
H            3.88738097107010        3.13261404472890       -3.78520706408686
H            3.40024798236154        1.65912731179044       -3.59001816433078
O            6.61993426517347        3.58834588292253        0.73518780661683
H            6.94043023982005        2.93259642973857        1.39495648058660
H            6.23097508643766        3.06669428722152        0.00460526396018
O           -0.53325620357990        2.90346761758075        3.64597871226608
H            0.36258642801011        2.53662640005535        3.50003915620815
H           -1.11821515335416        2.13524463124963        3.63754280666276
O           -3.75423972624934        2.64339522315640       -1.25826688790071
H           -3.93745311378469        1.71335345693139       -1.46454659425325
H           -3.24051472512341        2.62590915024308       -0.42993034712053
O           -4.68786316658654       -4.51411162769021       -3.35037382814003
H           -4.78510558162149       -4.81953245134211       -2.42329313881298
H           -3.84504974861247       -4.89827292493291       -3.65097842680279
O            2.73877183755096       -0.46641911672238        1.69364840828023
H            2.09185050547789       -0.22214200205820        2.35713792449157
H            3.34734005872399        0.29619036159865        1.60406705669923
O            4.97048226938098        7.63114253622849        0.66420499053444
H            5.88788017728629        7.57398330963898        0.37939460986471
H            4.75538450146059        6.72137757067906        0.97004197149295
O            2.44683984803035       -2.91909427794343        0.84156696158199
H            2.66000161397534       -2.00208839779364        1.11637897442087
H            3.17902899227048       -3.47566821932592        1.20842132705389
O           -2.79771691554542       -2.97026980088025       -1.19742604325862
H           -2.58060688988385       -3.83260703480340       -0.83353711117407
H           -3.71191450788924       -2.77081048211852       -0.92332817370720
O            1.25822729172340        4.10362918818011       -2.59309196324845
H            1.51706096818641        4.99984033640445       -2.87161085342737
H            2.06193826320118        3.56312203978515       -2.69515294027329
O            6.85806951323198        2.65136980040487       -3.40249938017504
H            6.29472435601060        2.49637805131876       -2.61468783069276
H            6.33801118931397        2.36529687998919       -4.17583613245261
O           -4.15860002163213       -0.06499344770097        1.06699516884732
H           -4.19505590710638       -0.12953135779684        0.09002249831514
H           -5.05665864787886       -0.08328814011343        1.41346997935212
O            0.51900380042614        1.41079663070817        5.83091510926632
H            0.31983910561180        0.80088762986540        5.10597103362763
H           -0.29722881837043        1.93478462330841        6.00218561588802
O            1.76277981576818        1.73992756584820        3.06921466723032
H            2.26828954154086        1.25725192861313        3.74368148730529
H            2.25023458818120        2.57682909559579        2.89087726074201
O            3.97058072271191       -0.06231577348247       -1.30000625264482
H            4.10837089423653       -0.62835728862681       -0.52436474626770
H            4.37466459319606       -0.52395081347700       -2.06191494526059
O           -5.50896002588860       -4.25867413759941        6.78586197729679
H           -5.38015961969597       -3.31904927341330        7.01757386297409
H           -4.62415297744649       -4.63923232188865        6.70076928156581
O            0.23343752304100       -2.87164715375958        2.29231134608008
H            1.07214876979401       -2.94214734220620        1.79773306344490
H           -0.19271750878282       -3.73194979139536        2.25649955024656
O            0.49003756322354       -0.88087611612144        4.09999945319362
H            0.12877436999398       -1.32703511836143        4.88535961776873
H            0.41305909057130       -1.56787648248797        3.41134443560874
O            0.84142949510362       -0.26601642503681        7.83685556855826
H            0.66753534519603        0.38797175952085        7.11018325048455
H            0.09749838675649       -0.20641784532118        8.43518662097015
O            5.39651266659307        4.69469922958043        3.88532068693965
H            4.78365747113803        5.14733535948792        4.47103073852066
H            5.13500121046221        3.75209421061740        3.90506733587549
O           -2.22302703222726        5.00560300575446       -0.12120133649419
H           -1.64198913281507        4.33103451184084       -0.52743698423006
H           -2.25369141074715        4.76944320969597        0.83323205424026
O           -4.37380700236053        0.97537442026528        3.75085446978511
H           -5.24159822622722        0.90960986304497        3.32800184148997
H           -4.28308313911224        0.11860221853344        4.21546747797086
O           -2.42797028411663       -1.92884074385624        1.88654607883972
H           -3.18442798486165       -1.35733530555494        1.66379705227393
H           -2.61697001311426       -2.76919570322741        1.44822222900110
O            1.52992245007357       -2.24420359477066       -1.57356299968019
H            1.22987087292894       -3.12628628143021       -1.87672850951912
H            1.99811670856743       -2.41050515672802       -0.73796962939759
O            9.13086649369819        4.66580152520296        1.47773550678522
H            9.54825817651064        5.04100151069431        0.69712564670471
H            8.31877239012859        4.23694070575040        1.16095450916243
O           -2.68673226190376        2.17343461252035        1.16865259613176
H           -3.19007024638687        2.87335919961998        1.61604211324312
H           -3.24339706019568        1.37275406651090        1.20902700880660
O            1.56231078081289        1.00539310857217       -1.78402573502812
H            1.75289988550527        1.71574247096383       -1.13437189998818
H            2.38008435174935        0.47788775951628       -1.78467606397654
O            0.48277231929502       -2.48256673810889        6.32316542802273
H            0.68835143792625       -1.76140624771817        6.94626069373149
H           -0.40119292929000       -2.78067238058837        6.55376281808861
O           -1.66206434289592       -2.66700413980728        4.37009723847838
H           -1.28307958181827       -3.55320776552341        4.47462262444552
H           -1.72572823789104       -2.50758818732767        3.41347701620846
O           -1.10958051231784       -2.67039893363783       -7.39095241127756
H           -1.49090365105719       -1.81587415405972       -7.65275337962738
H           -0.30728906381880       -2.51317662149443       -6.84992663788747
O            3.63215020989222        8.04157822937218       -1.64297184730988
H            2.83063846002511        8.53695149743160       -1.44805524866637
H            4.08158557490294        7.92107878644567       -0.77556404753327
O           -0.32298428332057        5.47607417171412       -5.35574069442130
H           -0.80378283085448        4.87377877123021       -5.93809303208740
H            0.56734380820501        5.08095651534760       -5.28286165365620
O            5.22661751397627       -1.49609372435363       -3.17832750707026
H            4.44510324477520       -1.95910862488748       -3.55209705722504
H            5.57644841329182       -2.13579625561116       -2.50567939830524
O           -1.00127483345563       -5.39868509247405        1.76635535421113
H           -0.93482414672816       -6.35708147593623        1.57156343305741
H           -1.88551651446366       -5.10188992810320        1.46060941445568
O          -11.48367077652224       -1.23916775555292       -3.09537131782585
H          -12.07994855385087       -1.68162188551233       -2.48605965460320
H          -11.33714180070241       -0.35618212625043       -2.70104708344866
O           -8.63951351595466       -0.06082527998397        1.21697173824020
H           -8.67974542847765        0.65732838029388        0.56229941899398
H           -9.55556776548830       -0.19583672360552        1.52529650379357
O           -1.81592478338634        0.46238271416272        3.20373538706221
H           -1.78583287092127       -0.41528883187381        2.80124219177538
H           -2.75812451026148        0.71232777511084        3.22576821661870
O            0.68196458678077        1.92862055955610       -4.11816336970116
H            1.13576792439375        2.74736847559704       -4.39874336254506
H            1.14085332534422        1.59707783210654       -3.31379424354782
O           -1.46909461337849        7.50228664893243        0.25599471998387
H           -1.63711665995701        6.53683886047504        0.13409724060626
H           -1.82458266207252        7.71406352213754        1.12459721199609
O           -6.56091476336548       -0.35118339535098        2.85847179608164
H           -6.20531967563570       -1.24307545597948        2.65167820103229
H           -7.37016928188582       -0.23906064979317        2.32282818930543
O            7.16558223485788        2.07096290433587        5.65878486469632
H            7.52926211865793        2.93811011911121        5.44302491924951
H            7.88355336520006        1.42336846635035        5.51915457181865
O           -5.00295914026634       -5.53672256598990       -0.87741441518249
H           -5.95710332129591       -5.71137071962603       -0.83326930437299
H           -4.55335938426788       -6.36796374801532       -0.68769589521491
O            2.30489470736080        2.71044056670569        0.11286191468010
H            2.70336745170985        3.40160915833958       -0.42528229944112
H            3.02426733637317        2.34637759019942        0.65493185940049
O            5.28225441067686        2.32141604275919       -1.24399879448420
H            4.61405291678453        2.96856748330494       -1.51697321905924
H            4.80754924628510        1.46475216737793       -1.23596606292270
O           -0.62156438645158       -5.21639247744124        4.47476392507213
H            0.32289000284860       -5.42513611350001        4.51733107927970
H           -0.87550824436478       -5.39934121294611        3.55306694066488
O           -6.55874177956001       -4.11902059096276        4.39230941212822
H           -7.03147681473905       -4.92132816042187        4.16471970314042
H           -6.29650244106367       -4.18509256871439        5.34738257004055
O            3.78907324474710       -7.36784885284482       -3.88551072706514
H            3.08398627494335       -6.88831717185761       -4.35794187546742
H            3.50583266657334       -7.38775671938740       -2.95237267195571
O            1.93443247119034        3.98065919167551       -5.40481122705557
H            2.72343214825282        4.43979412886433       -5.08469286192500
H            2.25800893703595        3.28127162074749       -5.99987834793811
O            3.77030655506074        4.65736537646419       -1.34232706654889
H            4.36132145411036        5.15376108503903       -1.93614647891467
H            3.00346406973973        5.25283936451988       -1.17768132445465
O            3.04137018768357       -2.85218971820256       -3.68950604389540
H            2.52108880625526       -2.44126115433915       -2.97268083025330
H            2.45953757715009       -2.91330787407536       -4.46346890869935
O           -3.81901947145425        1.22702796139826       -4.28560082158411
H           -3.92494880159394        1.53265839060758       -5.20586969848104
H           -3.13231679979578        1.77888982854427       -3.85994724065100
O           -0.57413832084212       -5.16237796144746       -5.67862441019852
H           -0.98973715260107       -4.84831188705712       -6.48354486876381
H           -1.27386677511530       -5.35270183305179       -5.02918020836800
O            2.89884927658081        4.83616031846675        5.34630940768636
H            3.03637399104316        3.98633852750828        5.79088565392410
H            1.95554834278707        5.04883048718459        5.48290034237134
O           -1.92883554502072        5.14333898428382       -3.22655779251419
H           -1.71361690968730        4.23663226513618       -2.94011365710921
H           -1.30442912755246        5.33435200306063       -3.95515407058118
O            5.01411128007370       -1.63175053563526        0.72907286940617
H            5.64819655627291       -0.88309486041041        0.73173534683568
H            4.79046692747278       -1.80351865960313        1.65659761856482
O           -3.58823384638871        3.47505825078107        4.48775815193955
H           -3.19680504726634        3.85849771453146        3.67377062553043
H           -3.90688863102544        2.58275738442725        4.25254913087004
O            4.89497686024367        2.04988689471149        4.19697425663655
H            4.18482110923322        2.01024600785924        4.86303252847814
H            5.73085588900761        1.94161795447358        4.68809769426115
O            0.44949783119063       -0.92310052130267       -3.60815734345673
H           -0.52055197740617       -0.91073779065835       -3.60016000400322
H            0.72618413007396       -1.29587774114501       -2.75639603872769
O           -2.10612775794131       -0.79143373557221       -4.46675571022476
H           -2.84658906174037       -0.16440597981303       -4.34426477993526
H           -2.46997234680988       -1.63638930461489       -4.77516079860977
O           -0.40520332622257        0.50808120816644       -6.00752234521553
H           -0.96187640847321       -0.05856821563180       -5.42302417758608
H            0.18158340652604        0.95938860368334       -5.35771283789174
O           -1.68447313625151       -5.68967948764209       -1.21844099738030
H           -2.29334455651101       -6.22182294410067       -0.66821100351366
H           -0.86417248529552       -6.20583041601578       -1.26831787957192
O            8.68162867813254       -2.26726738690689        2.22972017795480
H            8.72013617571836       -2.86322997849578        3.01587635348380
H            9.60133315954648       -2.10193685684600        1.96085791391749
O            2.10805527247249       -7.06273727980221        1.63235939034562
H            1.82854532238655       -6.40834750842359        0.95479869869831
H            3.05983922118761       -7.19071742552476        1.51230992684726
O           -6.54353571710464        1.89911978659454        5.51280388007837
H           -6.81588318371401        1.01172178997089        5.79739866379742
H           -7.02104555881300        2.01342150327043        4.67154427254754
O            8.01092094410719        4.28376728295138        4.12193877053936
H            7.07105871143071        4.57016892435484        4.06377382998536
H            8.45722242215887        4.75027468175158        3.40560662683786
O            9.24240128038534        4.95846711256748       -1.40553371696840
H            8.94759394836143        4.05287112133956       -1.20830817231231
H            8.97205277568616        5.10090463137740       -2.33889497684224
O            6.99360941516668        6.06533805900640       -0.50414477463340
H            6.73477819982974        5.26579836089793       -0.01916040482730
H            7.90063013158818        5.86914261280648       -0.82149508139357
O           -3.78525113183543       -0.03092455985119       -1.59641580165696
H           -2.83459413641871       -0.01037448626239       -1.76203030861585
H           -4.14021895967739       -0.73366297614579       -2.17122200094213
O            2.86200324910714        1.67794789652349       -6.49395444449335
H            2.79236119410606        1.12849381782768       -5.67696063484863
H            2.57234732788845        1.09807610440987       -7.20452354419041
O           -1.81819534157883       -0.14452328949203        5.87958353952214
H           -2.61393701911420        0.35256708487253        6.13391329102420
H           -1.74487355630979       -0.06833027502030        4.91233648992059
O           -8.94693525336750       -0.78070778529966       -1.41819647137038
H           -9.50571202085791       -0.00428707344094       -1.57860337540215
H           -8.49786659654921       -0.99316208765314       -2.25764576893150
O           -6.78005546144200        0.58826703238488       -5.51385356972138
H           -7.66573750000087        0.53511542225553       -5.88156746160187
H           -6.53344853629391        1.53729536700399       -5.46368915851668
O            8.28935186423849       -5.04331117189802       -0.80896593798620
H            9.20333212071566       -4.84982753535191       -0.57020304450482
H            8.16410203344509       -4.62508403231962       -1.68888930025240
O            8.33014045971525       -1.91378855415208       -0.71967945628287
H            8.46580869839842       -1.32971820474119        0.04090392444714
H            9.08118203033444       -2.53402794997528       -0.71718882427712
O           -4.11582434765465        1.04869282010484        6.73362125552878
H           -4.81289529905533        1.51596270644425        6.24789565671492
H           -4.51415786828655        0.20973412152555        7.01792219952871
O            0.47299476054676        4.69874894813806        1.38318576033385
H            0.22577882050858        5.46951745053277        1.93000409660157
H            1.27606423647887        4.35162045303080        1.82660788062137
O           -7.43889371652004        4.71043243447607        2.31027985246230
H           -7.03036243314493        5.48317446143552        1.91273781993485
H           -6.98819791841700        4.61006808605522        3.17792728979565
O           -2.18051375223773        4.64278655704528        2.50239326941385
H           -1.38228659020425        4.15766121548886        2.78498995152166
H           -2.10473380673003        5.58098363336050        2.75807091533269
O            0.25660031256362        6.76760018182150        3.02312242074769
H            1.05483838112776        7.23404397474334        2.69172590092280
H           -0.47718501715165        7.38821249382067        3.00813418964895
O            2.31381696390774       -3.12300545591880        4.37123794539540
H            1.55878932007512       -2.92330942475900        4.94927212474994
H            2.17821608294359       -4.04036179192753        4.06383017083154
O            7.00623082252644       -0.45032233238473        3.21791087482600
H            7.58198021033854       -1.09126948991489        2.74773601154081
H            6.10803706343500       -0.79429246260263        3.20510663296419
O           -2.84688809788005       -3.25105285079746       -5.49871671761351
H           -3.70980428498211       -3.49647565296638       -5.84128011736686
H           -2.25383739478572       -3.10294227647905       -6.27224297165410
O           -8.11410996412674        2.08028170109920        3.24841050381001
H           -7.52044350058163        1.98927720919908        2.47065551156673
H           -8.50724483451431        2.95097944822074        3.18473453226248
O            2.90583380392778        0.05676052916022       -4.38759413492567
H            3.27382590240210       -0.64470453729407       -4.96469211567487
H            2.01635683482899       -0.23130087021536       -4.12982956145790
O           -1.55094590958597        3.05049298750384       -6.00473091251010
H           -1.00436697432500        2.26506156774311       -6.17841926523391
H           -1.68038590759440        3.06070017734120       -5.04658896304423
O            6.25080177035497       -2.55618085830241        5.35709640803021
H            5.52741629551374       -3.00047424795247        5.85037315376641
H            6.38384408320928       -1.71899614113556        5.84929313869523
O            3.96429005528049       -3.33106285227959        6.43151887727562
H            3.33746663337555       -3.23934680790011        5.67066825802331
H            3.82001066147498       -2.52517566548571        6.95648165788157
O            1.93302925401239       -5.67053170397549       -4.79995929652957
H            1.64922453712028       -5.27490840441007       -3.94763851902680
H            1.13146099567423       -5.69836328504970       -5.33692296993435
O            4.58631600618820        4.48731957277904       -4.68007809152277
H            5.30432726908031        4.09046876151244       -5.18032078150608
H            4.95497143539906        5.16686235984646       -4.09859630058479
O            3.60736129195855       -4.48167449766199       -1.51300731447397
H            4.52931387616511       -4.24140837206685       -1.34832169816635
H            3.40105328937855       -4.14101757588832       -2.39686336651424
O            4.58835936419375       -1.91698719048054        3.40891872105247
H            5.23226391901933       -2.25180712159930        4.07435493514416
H            3.83194338308582       -2.52362894249008        3.45064573610415
O            0.38830260202081       -7.49933626731450       -1.52337330401536
H            0.39303426684128       -8.10904768352707       -2.26037080186439
H            1.33081115485320       -7.24611108304579       -1.37756774498084
O            2.95623527299929       -0.15561087334905        4.65194422424721
H            3.58721020453053       -0.68683505677937        4.13057272428625
H            2.07125459303619       -0.56395933792718        4.50748091734379
O            9.16515291547032        0.31168426572171        0.75135511106998
H            9.55147283795067        0.40426761008171        1.64879130950914
H            9.91750727474526        0.13514900147539        0.15139665088931
O           -7.28987230000217       -0.71831706056269        5.44854950911930
H           -8.24788078099253       -0.64209058088330        5.39693177577247
H           -6.97652183884223       -0.62309106379030        4.51976676113200
O           -2.28221886922024       -2.36634305320314        7.21528941033541
H           -3.12310435778740       -2.15916179700886        7.62898595535995
H           -2.08175904822595       -1.59115269778797        6.63328876190591
O           -8.27048434942722        4.15426384712274       -4.47223089580368
H           -7.59515286183512        3.89394477485437       -5.11497904168376
H           -7.81649404578022        4.80985537201908       -3.91711312555052
O           -1.22367936214201       -3.23653368107533       -3.29008309816743
H           -1.81890630236338       -3.05313861607424       -2.53864115929046
H           -1.79233467344710       -3.43624283601623       -4.04222812294652
O            0.20015623508977        5.09720885474236        5.16000771689711
H           -0.07376766344019        4.24618290974056        4.77679414947088
H            0.28345848783355        5.71939518069315        4.41333366014526
O           -8.70754670354916        5.04063734572578       -1.39418273199113
H           -8.41988322806361        5.79459336595870       -1.91503759632286
H           -7.90131214006777        4.48275151861763       -1.32446053149607
O           -5.32997468219650       -2.49596807213061       -0.34643328683118
H           -5.95876572065506       -3.05577269787636       -0.83698417455232
H           -5.68548516756967       -1.58971275604686       -0.45277562803792
O           -6.52995443365025        3.48332627132977       -1.05799510907008
H           -5.85104205069137        4.17735919237971       -0.88949661345425
H           -6.12443608986756        2.86104906549886       -1.70179459049349
O           -1.75131354401352        2.73838480987099        6.36130212586331
H           -2.31999787757963        3.05138713639027        5.63322998324837
H           -2.34835294735682        2.27532742642853        6.95416945079305
O            6.87471214577180       -4.00572037041713        1.24846188483709
H            7.49712616370025       -3.31127062831754        1.52752886798649
H            7.29541297992395       -4.43209886941698        0.47572792161386
O            5.94517250717248       -3.07748025423383       -1.24333598205628
H            6.89056103431560       -2.87817723260841       -1.12760134152111
H            5.52486957850084       -2.65390810933135       -0.46329178486864
O           -8.06494695655415       -2.73267272550761        0.88385206312584
H           -8.19334467763854       -1.80634585694550        0.62651531062708
H           -8.40386584031514       -2.76753906692345        1.80914828033597
O            1.87511070520020        6.13090876879071       -0.35604951188248
H            1.24802940029868        5.58780725265799        0.16281721383493
H            1.38570978614781        6.84423367188387       -0.81116581888112
O           -9.60043032654675       -3.21756016386436       -3.00898409299695
H          -10.24555090934707       -2.48442965662385       -3.01475950400853
H           -9.30418717190710       -3.31591233338261       -3.92631996685639
O          -10.97226627071604        1.12539318600257       -1.89501491725139
H          -10.91980565453866        1.99342558048985       -2.34097707644286
H          -11.28587383213851        1.32889170647532       -1.00131141233692
O           -9.61531285340218       -0.12467019340335        4.08265110848295
H          -10.39764977010429       -0.19146906390102        3.52085726742144
H           -9.11186795899248        0.64267543051855        3.75558720332255
O           -8.75288109884021       -2.66674878299412        3.41406905676364
H           -9.04637670166471       -1.78770573336147        3.70975821590959
H           -8.00836022017717       -2.94217856207934        3.96642390409515
O           -3.37122268837885       -4.40724723467934        1.13913641039770
H           -3.70377613401620       -4.42445639679047        2.05612230426547
H           -4.08927020634554       -4.69868452414910        0.55649924558649
O           -5.68667744509190       -3.58777055214273       -5.81674337757736
H           -6.64472959649901       -3.40604622355558       -5.80112292042191
H           -5.48826960703386       -4.02057954041881       -4.97283844162709
O            9.14942835917766        1.21772933857936       -3.98037875300195
H            8.36232406230038        1.75916976381856       -3.79141661626198
H            9.88280839546048        1.58881567596372       -3.47220978835302
O           -2.39404240071448       -5.89757020339427       -3.73669097909720
H           -2.09710322124538       -5.73120912529493       -2.79924836103205
H           -2.56861891676241       -6.83499798813698       -3.80857255972150
O           -5.39268011523735       -2.62278812074985        2.28850214082153
H           -5.94811897619945       -3.35017781704711        2.58482610351043
H           -5.34342313404348       -2.66356775664329        1.30332117754857
O           10.95819625003854        2.26140429085224       -2.10749123920690
H           10.10551677463005        2.37525589793084       -1.61956859514436
H           11.35422561194370        3.13067237075470       -2.16925818797698
O           -3.18272230913674       -7.37293653221174        0.26132446316186
H           -2.46388894784514       -7.92798828116605        0.57970741698945
H           -3.74565949444579       -7.19714287579845        1.05766385684801
O           -4.66461363809016       -1.07013839255758       -5.90322809578081
H           -5.07664895352152       -1.92959463449347       -6.10617619438790
H           -5.38468910832539       -0.41545044640420       -5.87562073488568
O            0.68980307181098        8.27685090973201       -1.35244688444297
H           -0.06508380695475        8.25307175892161       -0.74756649655224
H            0.34071013069853        8.23825331548797       -2.25679276406022
O            1.06273124181521       -5.15959502790976        0.03808969721832
H            1.61671082363309       -4.38249965537232        0.20376914410269
H            0.26112848715793       -5.07790300086274        0.58775841894545
O           -0.33248073533282        3.26075450834535       -0.71861453321251
H            0.24869328787289        3.53378936795201       -1.46636195727011
H            0.03444774257231        3.72829194788271        0.05361323554866
O            0.88026983735824       -2.73426672566046       -5.51007749029689
H            0.61172968507882       -2.10135330643498       -4.80839329494482
H            0.45427086728174       -3.57844311180614       -5.30650068402999
O           -5.93253729486069        3.12984807971830       -5.43778890371488
H           -5.30472756812850        2.99881421933537       -6.16137993457793
H           -5.40234522234843        3.44932567373240       -4.67866377353407
O          -11.73647310436278        2.17657777697621        0.59750885512001
H          -12.57848086252800        2.63063139222165        0.56307654285415
H          -11.06858770510942        2.84463840698274        0.83189342768167
O            8.59994559613961        2.33528532123282       -0.91434153741967
H            8.75522607722993        1.76086226151284       -0.13865279566584
H            8.03957913688568        1.82083388571861       -1.51624028644223
O           -5.04529762222665        6.46375245813301        2.82822101655201
H           -4.81243115147944        5.54713440045351        2.58578978830284
H           -5.40692021404811        6.40157740027629        3.71632080822162
O           10.54036774182349       -3.48947493906257       -0.54153197808731
H           10.89488139525095       -3.13621205148667       -1.37007894799369
H           11.01148337427314       -3.06971435159710        0.18906096910283
O            2.04190252403507       -5.73614884561896        3.95073839300542
H            2.02676683199621       -6.23570308391772        3.10577801152439
H            2.91411558430113       -5.89501269269406        4.34221053499565
O           11.29864767763601       -1.64206231623152        1.45745869414451
H           11.50189803899524       -1.10427809244740        0.67674929545832
H           11.29516707229830       -1.01183392642678        2.19493458663408
O           -7.69282671550705       -6.34917693075027       -0.70987803479426
H           -8.40272995651913       -5.65179713195061       -0.71896059701923
H           -8.12962423897861       -7.18456740816897       -0.86697677108357
O            5.49972089095770        1.85942303639283       -5.56942311298012
H            5.84757242464428        0.95273444857310       -5.67048976552744
H            4.63478211155623        1.86755481644675       -6.00693845661525
O           -5.13536248361502       -1.54808834061382        6.88468496426514
H           -6.04779653580508       -1.31765750664027        6.65282568096535
H           -4.69739300530807       -1.61866817372956        6.00042378752697
O           10.85017481002100       -2.01670867465162       -2.90050667585134
H            9.97562449663117       -1.85818093543429       -3.31295056882765
H           11.48039915682785       -2.06009344715313       -3.61928144838588
O            7.86352842603762       -3.87650364791537       -3.18348234788164
H            8.04206908615172       -2.95345744542723       -3.41622271113516
H            6.93163554510116       -4.04419699041877       -3.35887002896595
O            6.21491768547967       -0.34567963860172        6.83826935293624
H            5.29217038456842       -0.40441230710601        7.12851456796910
H            6.38751722663344        0.57597181511119        6.61650982518319
O            8.36145678180011       -3.91272189733586        4.27207967093311
H            7.64091151611115       -3.46558540316807        4.74988084531621
H            7.99464685226038       -4.75909705701185        3.97344720610508
O           -3.96045149379677       -4.68041728858082        3.75334725808997
H           -4.86759300188150       -4.40417085948936        3.97222202163686
H           -3.47336173168088       -4.69681868695177        4.60276239333708
O          -11.24175498720581       -0.30684387111619        1.79592437182803
H          -11.36940547652106       -0.99870942443092        1.11394440739678
H          -11.56509976757722        0.52110255389894        1.41417786004201
O           -6.45835693718032       -0.07908347770744       -0.57415216711461
H           -6.14202524562948        0.41635363976699       -1.35888330010880
H           -7.37980751015819       -0.33264251067890       -0.77513594512498
O           -8.21359942809558       -2.73562496561033       -5.33021768910297
H           -8.77151874389755       -2.14769786730888       -5.84691756765089
H           -7.85853556778530       -2.14954622625421       -4.61095845668235
O            2.20936077192722        6.47463896731316       -3.42230816896843
H            2.74780381561286        6.99412225193526       -2.80302786448603
H            1.51231566826388        7.06156234943499       -3.72849377221602
O            4.06207515854212       -4.28635082859388       -5.87541138196089
H            4.68989317163784       -4.50745015626508       -5.17332332733060
H            3.24735052542876       -4.75734519424829       -5.62977140555910
O           -8.47222763520244        1.69889596957863       -3.42218655800733
H           -8.86230942875591        1.76660891616550       -2.53722725328488
H           -8.48405371276648        2.60456485521835       -3.80033169061753
O           -9.68453588563392        4.01499682135944        0.92558111298352
H           -9.58571428546817        4.59754413156256        0.15583477001540
H           -8.92840982450474        4.24448056548760        1.49818360391187
O           -4.72870133840392       -6.81434536724538        2.32303739183913
H           -5.50534758095560       -6.30885297443785        2.03816641256597
H           -4.29248406813525       -6.23404395584245        2.97454020229984
O           10.67477095470553        3.09547454022458        3.10774930338283
H           10.41454557764996        3.47991366068365        3.94620754357397
H           10.16452120720811        3.57475751300671        2.42721493640640
O           -2.56575972220960        7.54921596084311       -2.24172047593190
H           -2.18280589489439        7.66646861319179       -1.35241860947572
H           -2.38142442430245        6.61820672385992       -2.48530604759982
O           -8.74936357716519        1.97416865536947       -0.60883305025679
H           -7.90089734487645        2.38463218555128       -0.82017033043590
H           -9.21300714952998        2.62946713558501       -0.05986242370557
O           -7.25869688041656       -1.13825212507523       -3.47187914060440
H           -7.14241279413444       -0.38478880489748       -4.07660247193022
H           -6.35249367853719       -1.43649193367752       -3.23073946400552
O           -2.36353295119777        6.03699875241874        5.42394962279111
H           -2.91784117110693        5.25172578565600        5.44570364914537
H           -1.45200199294616        5.72695356112986        5.57890683893268
O            5.95841975785695       -6.41730412990389       -1.13393227001220
H            5.73295271710303       -6.03803680402014       -1.99808157736536
H            6.86328309068903       -6.12553041346583       -0.95753113011467
O           -0.33479506115843        7.88576285577279       -3.90300880415366
H           -0.36773973542695        7.19371856270270       -4.57854290803865
H           -1.22966495164720        7.94053058214011       -3.53263312020392
O           -0.47239214164610       -7.93180618179195        1.04102459540963
H            0.36253949596697       -7.97464833146008        1.52638197282954
H           -0.20181667210514       -7.86562623103160        0.10676862581331
O          -11.12683336860168       -2.03684818631065       -0.27962257564416
H          -10.93082170815268       -2.96241917032295       -0.09520335489254
H          -10.31089963621786       -1.66747575712041       -0.67063605957044
O            4.56129941095599       -5.72115586003453        5.15285922369846
H            4.40583169834618       -4.95250875050249        5.72501869454134
H            4.86081317619421       -6.43374353115598        5.71737514090230
O            6.62568240641952       -5.89230457714203        3.16354614523646
H            6.69580802527305       -5.19285382215057        2.47916626508350
H            5.87417917788002       -5.66580061728493        3.72963289631026
O            0.86458438597082       -4.61582825914565       -2.60117780065641
H           -0.01774505257048       -4.25244534009837       -2.84475175872606
H            0.81899163651329       -5.03039944780516       -1.72462245679811
O            8.49639577786459       -1.32487357820995       -4.05552124004665
H            7.94250249470028       -1.33464314325337       -4.84729691297583
H            8.74290887407947       -0.37037825893482       -3.97019488321143
O           -4.81427227449418        5.32597508731740       -0.37956175633508
H           -5.00719585582155        6.21487958921550       -0.71389542366306
H           -3.84678305337216        5.18369085194617       -0.48327954691392
O           -6.57061230263015        5.77210070484419       -3.02453370110745
H           -5.80716986048007        5.17384100433952       -3.14811899292331
H           -6.19063527365935        6.58933854691736       -2.67888194883291
O            7.74740629161681        2.07271146555162        2.53771490115769
H            7.89710848800545        2.72860581489635        3.23883188163763
H            7.39808061336485        1.26003107378653        2.93114754047946
O           10.47154013493477        0.42291975757031        3.07198522853539
H            9.97082689673960        0.23381376348704        3.88017047581276
H           10.65159517419640        1.38566307740970        3.08430989765587
O           -6.77778694049236       -5.11388494201240        1.54472507278722
H           -7.16864952640337       -5.73544053644642        0.91505221877009
H           -7.11951631531410       -4.25414167531171        1.25426272666995
O            3.04502608677719        2.20977878388383        6.19606022863503
H            3.32458853086951        1.65537345475775        6.92713143108262
H            2.11201345751898        1.96779825448228        6.01339583163109
O           -3.86901692681974        2.10143645642045       -6.87346162350350
H           -3.03846893177466        2.60150993770116       -6.72812867678697
H           -3.64019182910093        1.35943465772461       -7.45132014124404
O           -6.40353059717019        1.97294992311081        1.17215898495895
H           -6.49235247182869        2.65654392601841        0.48268971653318
H           -6.44567164849239        1.13244036473723        0.67149770470251
O           -9.57353360691256       -0.20081211070280       -5.11230862239561
H          -10.36802240161468       -0.57457315627941       -4.72061450934312
H           -9.27494397954159        0.47891002431973       -4.48251289557560
O            4.83669921336755       -6.90475260126271        1.23624815956181
H            5.27512099455710       -6.73732567969874        0.37510792381726
H            5.54645156441847       -6.90226866165417        1.89935974388593
O            5.52008115231177        6.23993873239382       -2.68355144686446
H            6.08771076430990        6.21989994982105       -1.86930773068818
H            4.99435621939061        7.04649590549040       -2.61045704856384
O            5.60808230729921       -5.50815129798500       -3.80675626580941
H            4.91133156975347       -6.22394482560572       -3.86804472335651
H            6.37976824740686       -5.87868837896317       -4.23752512354115
O          -10.59101799137198        3.64401323425142       -2.82054340547429
H          -10.32626799214584        3.84790749225423       -3.72132336906735
H           -9.97934664332031        4.15289673547078       -2.25547662786143
O            7.93906254061241        5.09653865752697       -3.72839822955217
H            7.57475158649147        4.18982240763818       -3.66457806207184
H            7.19571635077229        5.69003050740572       -3.57476896553512
O            3.50095439001488       -0.69011220824850        7.17842290884375
H            3.29583578071113       -0.47492511060554        6.23333707487076
H            2.66191554716099       -0.60314930976323        7.64788844036161
O            6.49326761530237        0.50007533284145        0.52090996796566
H            6.63402053259771        0.49160504975280       -0.45079251560720
H            7.37352403045279        0.54042844620609        0.91874090693936
O            4.29028569210158       -4.34977617583948        1.94641010926578
H            4.28916772354641       -5.29157170772303        1.70314272313761
H            5.15403546891136       -4.02198928638200        1.64341421077424
O           -5.94384403851696        1.47718053357156       -2.66807129988913
H           -6.80532597234562        1.48271321501715       -3.12978644652381
H           -5.22567377576716        1.33785121522123       -3.31402891731611
O            2.32875236525489        7.78733866482800        1.75616418386096
H            2.29790830348087        7.19866679580349        0.97509564588973
H            3.24497574206337        8.05832359925728        1.83831821819631
O           -5.12669360357071        7.72507721329987       -1.65595690976102
H           -4.18587049021012        7.71409286914529       -1.96904735350493
H           -5.29763449870321        8.60681600586331       -1.32827271588136
O           -6.08272852859695        4.53224497588135        4.65241345332559
H           -6.48579209517412        3.93109314079852        5.28577730933158
H           -5.16651810177736        4.19416709612895        4.55931570005880
O           -4.64981836613783        3.89071883123725        1.92647201784398
H           -5.32388501560483        3.19486447826259        1.92149621182099
H           -4.73913233170637        4.36290228434966        1.08207640773022
O            1.49584901166587       -0.57877371162099       -7.61031589890319
H            0.78894570906124       -0.24799242360129       -7.01766406814261
H            1.07392288467097       -1.11447531131590       -8.28119788357361
O            4.33549778888322        1.65062443667928        1.58923202552329
H            4.56013518259316        1.82414011043787        2.51865437247988
H            5.15153551172882        1.34543259256784        1.15193868131900
O           -2.48430312376664        7.27788676446451        3.04542335391099
H           -3.44028148029311        7.18941185865281        2.85454270693436
H           -2.42174940341377        7.05399186209059        3.99834231707196
O           -2.60182289173130       -0.30826215342533       -7.57002505159798
H           -3.27654871311378       -0.62684362208341       -6.93955327583620
H           -1.89793531754111        0.11231458933489       -7.05900510745058
O           11.22441574475086       -0.17250836544247       -0.91097958135135
H           11.07352609386628       -0.80439126883841       -1.63749602672285
H           11.35448219609037        0.69188212662740       -1.33539442687497
O            3.71977411327884       -1.65164290742750       -6.27794384310669
H            2.95281483166470       -1.47709286624673       -6.84209013085274
H            3.80679016912188       -2.62491124368752       -6.18739295243421
O           -1.68368098829396        2.48201407989283       -3.19524254564572
H           -1.74923545916955        2.16035249966275       -2.28643433914894
H           -0.76683306449569        2.24247652018067       -3.48907176756950
O           -4.43156373711814        4.11901529639987       -3.38098893916267
H           -3.61807515957478        4.63802850033880       -3.50443238817619
H           -4.23595520427784        3.56514637530894       -2.59549485404147
O            4.47734806375060        5.06458157389377        1.17484268384250
H            4.21045604861962        4.87508294847564        0.24762948990700
H            5.28403107503125        4.53879753440313        1.32844813889412
O            7.18412684197057        0.18190381191588       -2.00097965023721
H            6.54623121913244       -0.11990969523793       -2.65536198228951
H            7.74305729544572       -0.58799657864132       -1.79621118770093
O           -7.08670497229227       -3.66451662524878       -1.98456939881892
H           -7.94955202547747       -3.33203490800189       -2.27477589106680
H           -6.67773578661308       -4.08504681094084       -2.74065777358520
O           -4.73575467782197       -1.83296788694783       -3.29491574457510
H           -4.59818723668515       -2.79937164023886       -3.24297047400565
H           -4.55778286890456       -1.55544533681687       -4.21306826674580
O           -9.53733894697663       -4.45825378395378       -0.54019149944094
H           -9.63600554490467       -4.11940195271241       -1.44302696447277
H           -8.97122657475572       -3.80782059994592       -0.06199651383741
O            2.98213213616181       -7.00002106526623       -1.31972496308641
H            3.18953603874885       -6.02514428751262       -1.35757212247833
H            3.61698807824005       -7.38299864094994       -0.71190404189149
O           -4.06060192208759       -1.59934432207268        4.48721026238017
H           -4.49330116542574       -2.04018610886163        3.73878613019618
H           -3.16778615416702       -2.00677022359478        4.55393195065164
O            6.20642417590577       -0.78196033145251       -5.59142513599061
H            5.89377883052980       -1.00093712729481       -4.69227600591881
H            5.49770565294989       -1.11190457455992       -6.16250102978742
O            8.74231632170756       -0.06931379851742        5.17989142334965
H            8.72430706177995       -0.71474031110845        5.88711330166430
H            8.03978117729200       -0.32684823219761        4.54018362074120
O           -2.79867370771047       -4.77510587681693        6.15373341421955
H           -2.56112729285114       -3.89236080168949        6.51443588840446
H           -1.97230080485770       -5.17238040441681        5.84980975627806
 
 Bond Distances (Angstroems)
 ---------------------------
H1-C2=1.0842         C2-H1=1.0842         C2-H3=1.0912         C2-C4=1.5138         C2-O7=1.4157         H3-C2=1.0912         
C4-C2=1.5138         C4-H5=1.0862         C4-H6=1.0848         C4-N9=1.4703         H5-C4=1.0862         H6-C4=1.0848         
O7-C2=1.4157         O7-H8=0.9798         H8-O7=0.9798         N9-C4=1.4703         N9-H10=1.0478        N9-H11=1.0316        
N9-H12=1.0366        H10-N9=1.0478        H11-N9=1.0316        H12-N9=1.0366        O13-H14=0.9840       O13-H15=0.9794       
H14-O13=0.9840       H15-O13=0.9794       O16-H17=0.9703       O16-H18=0.9660       H17-O16=0.9703       H18-O16=0.9660       
O19-H20=0.9839       O19-H21=0.9783       H20-O19=0.9839       H21-O19=0.9783       O22-H23=0.9790       O22-H24=0.9656       
H23-O22=0.9790       H24-O22=0.9656       O25-H26=0.9701       O25-H27=0.9749       H26-O25=0.9701       H27-O25=0.9749       
O28-H29=0.9809       O28-H30=0.9738       H29-O28=0.9809       H30-O28=0.9738       O31-H32=0.9583       O31-H33=0.9798       
H32-O31=0.9583       H33-O31=0.9798       O34-H35=0.9623       O34-H36=0.9836       H35-O34=0.9623       H36-O34=0.9836       
O37-H38=0.9807       O37-H39=0.9902       H38-O37=0.9807       H39-O37=0.9902       O40-H41=0.9608       O40-H42=0.9750       
H41-O40=0.9608       H42-O40=0.9750       O43-H44=0.9735       O43-H45=0.9739       H44-O43=0.9735       H45-O43=0.9739       
O46-H47=0.9808       O46-H48=0.9749       H47-O46=0.9808       H48-O46=0.9749       O49-H50=0.9798       O49-H51=0.9628       
H50-O49=0.9798       H51-O49=0.9628       O52-H53=0.9681       O52-H54=0.9850       H53-O52=0.9681       H54-O52=0.9850       
O55-H56=0.9713       O55-H57=0.9848       H56-O55=0.9713       H57-O55=0.9848       O58-H59=0.9701       O58-H60=0.9782       
H59-O58=0.9701       H60-O58=0.9782       O61-H62=0.9763       O61-H63=0.9669       H62-O61=0.9763       H63-O61=0.9669       
O64-H65=0.9762       O64-H66=0.9607       H65-O64=0.9762       H66-O64=0.9607       O67-H68=0.9728       O67-H69=0.9758       
H68-O67=0.9728       H69-O67=0.9758       O70-H71=0.9930       O70-H72=0.9565       H71-O70=0.9930       H72-O70=0.9565       
O73-H74=0.9610       O73-H75=0.9784       H74-O73=0.9610       H75-O73=0.9784       O76-H77=0.9786       O76-H78=0.9837       
H77-O76=0.9786       H78-O76=0.9837       O79-H80=0.9676       O79-H81=0.9789       H80-O79=0.9676       H81-O79=0.9789       
O82-H83=0.9739       O82-H84=0.9665       H83-O82=0.9739       H84-O82=0.9665       O85-H86=0.9798       O85-H87=0.9722       
H86-O85=0.9798       H87-O85=0.9722       O88-H89=0.9614       O88-H90=0.9715       H89-O88=0.9614       H90-O88=0.9715       
O91-H92=0.9713       O91-H93=0.9760       H92-O91=0.9713       H93-O91=0.9760       O94-H95=0.9813       O94-H96=0.9731       
H95-O94=0.9813       H96-O94=0.9731       O97-H98=0.9750       O97-H99=0.9610       H98-O97=0.9750       H99-O97=0.9610       
O100-H101=0.9695     O100-H102=0.9719     H101-O100=0.9695     H102-O100=0.9719     O103-H104=0.9717     O103-H105=0.9804     
H104-O103=0.9717     H105-O103=0.9804     O106-H107=0.9622     O106-H108=0.9843     H107-O106=0.9622     H108-O106=0.9843     
O109-H110=0.9660     O109-H111=0.9768     H110-O109=0.9660     H111-O109=0.9768     O112-H113=0.9823     O112-H114=0.9920     
H113-O112=0.9823     H114-O112=0.9920     O115-H116=0.9802     O115-H117=0.9816     H116-O115=0.9802     H117-O115=0.9816     
O118-H119=0.9605     O118-H120=0.9781     H119-O118=0.9605     H120-O118=0.9781     O121-H122=0.9726     O121-H123=0.9759     
H122-O121=0.9726     H123-O121=0.9759     O124-H125=0.9660     O124-H126=0.9750     H125-O124=0.9660     H126-O124=0.9750     
O127-H128=0.9772     O127-H129=0.9836     H128-O127=0.9772     H129-O127=0.9836     O130-H131=0.9875     O130-H132=0.9621     
H131-O130=0.9875     H132-O130=0.9621     O133-H134=0.9822     O133-H135=0.9769     H134-O133=0.9822     H135-O133=0.9769     
O136-H137=0.9648     O136-H138=0.9769     H137-O136=0.9648     H138-O136=0.9769     O139-H140=0.9710     O139-H141=0.9639     
H140-O139=0.9710     H141-O139=0.9639     O142-H143=0.9623     O142-H144=0.9715     H143-O142=0.9623     H144-O142=0.9715     
O145-H146=0.9694     O145-H147=0.9794     H146-O145=0.9694     H147-O145=0.9794     O148-H149=0.9682     O148-H150=0.9734     
H149-O148=0.9682     H150-O148=0.9734     O151-H152=0.9586     O151-H153=0.9926     H152-O151=0.9586     H153-O151=0.9926     
O154-H155=0.9748     O154-H156=0.9754     H155-O154=0.9748     H156-O154=0.9754     O157-H158=0.9674     O157-H159=0.9736     
H158-O157=0.9674     H159-O157=0.9736     O160-H161=0.9738     O160-H162=0.9848     H161-O160=0.9738     H162-O160=0.9848     
O163-H164=0.9764     O163-H165=0.9702     H164-O163=0.9764     H165-O163=0.9702     O166-H167=0.9755     O166-H168=0.9784     
H167-O166=0.9755     H168-O166=0.9784     O169-H170=0.9588     O169-H171=0.9735     H170-O169=0.9588     H171-O169=0.9735     
O172-H173=0.9689     O172-H174=0.9766     H173-O172=0.9689     H174-O172=0.9766     O175-H176=0.9749     O175-H177=0.9784     
H176-O175=0.9749     H177-O175=0.9784     O178-H179=0.9811     O178-H180=0.9694     H179-O178=0.9811     H180-O178=0.9694     
O181-H182=0.9812     O181-H183=0.9763     H182-O181=0.9812     H183-O181=0.9763     O184-H185=0.9744     O184-H186=0.9755     
H185-O184=0.9744     H186-O184=0.9755     O187-H188=0.9702     O187-H189=0.9701     H188-O187=0.9702     H189-O187=0.9701     
O190-H191=0.9780     O190-H192=0.9703     H191-O190=0.9780     H192-O190=0.9703     O193-H194=0.9862     O193-H195=0.9850     
H194-O193=0.9862     H195-O193=0.9850     O196-H197=0.9781     O196-H198=0.9705     H197-O196=0.9781     H198-O196=0.9705     
O199-H200=0.9873     O199-H201=0.9724     H200-O199=0.9873     H201-O199=0.9724     O202-H203=0.9826     O202-H204=0.9678     
H203-O202=0.9826     H204-O202=0.9678     O205-H206=0.9709     O205-H207=0.9741     H206-O205=0.9709     H207-O205=0.9741     
O208-H209=0.9843     O208-H210=0.9643     H209-O208=0.9843     H210-O208=0.9643     O211-H212=0.9726     O211-H213=0.9821     
H212-O211=0.9726     H213-O211=0.9821     O214-H215=0.9703     O214-H216=0.9808     H215-O214=0.9703     H216-O214=0.9808     
O217-H218=0.9652     O217-H219=0.9748     H218-O217=0.9652     H219-O217=0.9748     O220-H221=0.9870     O220-H222=0.9618     
H221-O220=0.9870     H222-O220=0.9618     O223-H224=0.9721     O223-H225=0.9730     H224-O223=0.9721     H225-O223=0.9730     
O226-H227=0.9699     O226-H228=0.9754     H227-O226=0.9699     H228-O226=0.9754     O229-H230=0.9605     O229-H231=0.9818     
H230-O229=0.9605     H231-O229=0.9818     O232-H233=0.9643     O232-H234=0.9823     H233-O232=0.9643     H234-O232=0.9823     
O235-H236=0.9685     O235-H237=0.9740     H236-O235=0.9685     H237-O235=0.9740     O238-H239=0.9696     O238-H240=0.9713     
H239-O238=0.9696     H240-O238=0.9713     O241-H242=0.9768     O241-H243=0.9808     H242-O241=0.9768     H243-O241=0.9808     
O244-H245=0.9602     O244-H246=0.9829     H245-O244=0.9602     H246-O244=0.9829     O247-H248=0.9759     O247-H249=0.9754     
H248-O247=0.9759     H249-O247=0.9754     O250-H251=0.9821     O250-H252=0.9612     H251-O250=0.9821     H252-O250=0.9612     
O253-H254=0.9716     O253-H255=0.9769     H254-O253=0.9716     H255-O253=0.9769     O256-H257=0.9815     O256-H258=0.9619     
H257-O256=0.9815     H258-O256=0.9619     O259-H260=0.9603     O259-H261=0.9859     H260-O259=0.9603     H261-O259=0.9859     
O262-H263=0.9827     O262-H264=0.9575     H263-O262=0.9827     H264-O262=0.9575     O265-H266=0.9801     O265-H267=0.9698     
H266-O265=0.9801     H267-O265=0.9698     O268-H269=0.9725     O268-H270=0.9669     H269-O268=0.9725     H270-O268=0.9669     
O271-H272=0.9818     O271-H273=0.9802     H272-O271=0.9818     H273-O271=0.9802     O274-H275=0.9901     O274-H276=0.9726     
H275-O274=0.9901     H276-O274=0.9726     O277-H278=0.9816     O277-H279=0.9652     H278-O277=0.9816     H279-O277=0.9652     
O280-H281=0.9609     O280-H282=0.9674     H281-O280=0.9609     H282-O280=0.9674     O283-H284=0.9669     O283-H285=0.9694     
H284-O283=0.9669     H285-O283=0.9694     O286-H287=0.9846     O286-H288=0.9705     H287-O286=0.9846     H288-O286=0.9705     
O289-H290=0.9565     O289-H291=0.9868     H290-O289=0.9565     H291-O289=0.9868     O292-H293=0.9758     O292-H294=0.9853     
H293-O292=0.9758     H294-O292=0.9853     O295-H296=0.9814     O295-H297=0.9783     H296-O295=0.9814     H297-O295=0.9783     
O298-H299=0.9624     O298-H300=0.9848     H299-O298=0.9624     H300-O298=0.9848     O301-H302=0.9598     O301-H303=0.9899     
H302-O301=0.9598     H303-O301=0.9899     O304-H305=0.9680     O304-H306=0.9716     H305-O304=0.9680     H306-O304=0.9716     
O307-H308=0.9760     O307-H309=0.9638     H308-O307=0.9760     H309-O307=0.9638     O310-H311=0.9727     O310-H312=0.9755     
H311-O310=0.9727     H312-O310=0.9755     O313-H314=0.9605     O313-H315=0.9829     H314-O313=0.9605     H315-O313=0.9829     
O316-H317=0.9744     O316-H318=0.9793     H317-O316=0.9744     H318-O316=0.9793     O319-H320=0.9854     O319-H321=0.9829     
H320-O319=0.9854     H321-O319=0.9829     O322-H323=0.9754     O322-H324=0.9604     H323-O322=0.9754     H324-O322=0.9604     
O325-H326=0.9734     O325-H327=0.9777     H326-O325=0.9734     H327-O325=0.9777     O328-H329=0.9731     O328-H330=0.9821     
H329-O328=0.9731     H330-O328=0.9821     O331-H332=0.9699     O331-H333=0.9860     H332-O331=0.9699     H333-O331=0.9860     
O334-H335=0.9785     O334-H336=0.9775     H335-O334=0.9785     H336-O334=0.9775     O337-H338=0.9766     O337-H339=0.9690     
H338-O337=0.9766     H339-O337=0.9690     O340-H341=0.9773     O340-H342=0.9687     H341-O340=0.9773     H342-O340=0.9687     
O343-H344=0.9655     O343-H345=0.9743     H344-O343=0.9655     H345-O343=0.9743     O346-H347=0.9728     O346-H348=0.9671     
H347-O346=0.9728     H348-O346=0.9671     O349-H350=0.9756     O349-H351=0.9695     H350-O349=0.9756     H351-O349=0.9695     
O352-H353=0.9753     O352-H354=0.9690     H353-O352=0.9753     H354-O352=0.9690     O355-H356=0.9739     O355-H357=0.9663     
H356-O355=0.9739     H357-O355=0.9663     O358-H359=0.9973     O358-H360=0.9563     H359-O358=0.9973     H360-O358=0.9563     
O361-H362=0.9620     O361-H363=0.9873     H362-O361=0.9620     H363-O361=0.9873     O364-H365=0.9890     O364-H366=0.9572     
H365-O364=0.9890     H366-O364=0.9572     O367-H368=0.9624     O367-H369=0.9909     H368-O367=0.9624     H369-O367=0.9909     
O370-H371=0.9745     O370-H372=0.9736     H371-O370=0.9745     H372-O370=0.9736     O373-H374=0.9676     O373-H375=0.9702     
H374-O373=0.9676     H375-O373=0.9702     O376-H377=0.9686     O376-H378=0.9754     H377-O376=0.9686     H378-O376=0.9754     
O379-H380=0.9856     O379-H381=0.9745     H380-O379=0.9856     H381-O379=0.9745     O382-H383=0.9824     O382-H384=0.9672     
H383-O382=0.9824     H384-O382=0.9672     O385-H386=0.9669     O385-H387=0.9795     H386-O385=0.9669     H387-O385=0.9795     
O388-H389=0.9572     O388-H390=0.9733     H389-O388=0.9572     H390-O388=0.9733     O391-H392=0.9776     O391-H393=0.9700     
H392-O391=0.9776     H393-O391=0.9700     O394-H395=0.9763     O394-H396=0.9609     H395-O394=0.9763     H396-O394=0.9609     
O397-H398=0.9680     O397-H399=0.9654     H398-O397=0.9680     H399-O397=0.9654     O400-H401=0.9817     O400-H402=0.9691     
H401-O400=0.9817     H402-O400=0.9691     O403-H404=0.9696     O403-H405=0.9701     H404-O403=0.9696     H405-O403=0.9701     
O406-H407=0.9952     O406-H408=0.9557     H407-O406=0.9952     H408-O406=0.9557     O409-H410=0.9764     O409-H411=0.9693     
H410-O409=0.9764     H411-O409=0.9693     O412-H413=0.9692     O412-H414=0.9893     H413-O412=0.9692     H414-O412=0.9893     
O415-H416=0.9798     O415-H417=0.9569     H416-O415=0.9798     H417-O415=0.9569     O418-H419=0.9685     O418-H420=0.9630     
H419-O418=0.9685     H420-O418=0.9630     O421-H422=0.9691     O421-H423=0.9635     H422-O421=0.9691     H423-O421=0.9635     
O424-H425=0.9734     O424-H426=0.9696     H425-O424=0.9734     H426-O424=0.9696     O427-H428=0.9732     O427-H429=0.9793     
H428-O427=0.9732     H429-O427=0.9793     O430-H431=0.9798     O430-H432=0.9674     H431-O430=0.9798     H432-O430=0.9674     
O433-H434=0.9805     O433-H435=0.9766     H434-O433=0.9805     H435-O433=0.9766     O436-H437=0.9612     O436-H438=0.9934     
H437-O436=0.9612     H438-O436=0.9934     O439-H440=0.9712     O439-H441=0.9613     H440-O439=0.9712     H441-O439=0.9613     
O442-H443=0.9675     O442-H444=0.9726     H443-O442=0.9675     H444-O442=0.9726     O445-H446=0.9695     O445-H447=0.9815     
H446-O445=0.9695     H447-O445=0.9815     O448-H449=0.9704     O448-H450=0.9758     H449-O448=0.9704     H450-O448=0.9758     
O451-H452=0.9695     O451-H453=0.9754     H452-O451=0.9695     H453-O451=0.9754     O454-H455=0.9584     O454-H456=0.9763     
H455-O454=0.9584     H456-O454=0.9763     O457-H458=0.9753     O457-H459=0.9798     H458-O457=0.9753     H459-O457=0.9798     
O460-H461=0.9659     O460-H462=0.9725     H461-O460=0.9659     H462-O460=0.9725     O463-H464=0.9731     O463-H465=0.9840     
H464-O463=0.9731     H465-O463=0.9840     O466-H467=0.9614     O466-H468=0.9752     H467-O466=0.9614     H468-O466=0.9752     
O469-H470=0.9703     O469-H471=0.9670     H470-O469=0.9703     H471-O469=0.9670     O472-H473=0.9677     O472-H474=0.9700     
H473-O472=0.9677     H474-O472=0.9700     O475-H476=0.9667     O475-H477=0.9749     H476-O475=0.9667     H477-O475=0.9749     
O478-H479=0.9639     O478-H480=0.9773     H479-O478=0.9639     H480-O478=0.9773     O481-H482=0.9707     O481-H483=0.9572     
H482-O481=0.9707     H483-O481=0.9572     O484-H485=0.9811     O484-H486=0.9677     H485-O484=0.9811     H486-O484=0.9677     
O487-H488=0.9848     O487-H489=0.9707     H488-O487=0.9848     H489-O487=0.9707     O490-H491=0.9663     O490-H492=0.9895     
H491-O490=0.9663     H492-O490=0.9895     O493-H494=0.9691     O493-H495=0.9834     H494-O493=0.9691     H495-O493=0.9834     
O496-H497=0.9778     O496-H498=0.9653     H497-O496=0.9778     H498-O496=0.9653     O499-H500=0.9717     O499-H501=0.9681     
H500-O499=0.9717     H501-O499=0.9681     O502-H503=0.9693     O502-H504=0.9795     H503-O502=0.9693     H504-O502=0.9795     
O505-H506=0.9673     O505-H507=0.9697     H506-O505=0.9673     H507-O505=0.9697     O508-H509=0.9592     O508-H510=0.9810     
H509-O508=0.9592     H510-O508=0.9810     O511-H512=0.9803     O511-H513=0.9679     H512-O511=0.9803     H513-O511=0.9679     
O514-H515=0.9750     O514-H516=0.9792     H515-O514=0.9750     H516-O514=0.9792     O517-H518=0.9614     O517-H519=0.9736     
H518-O517=0.9614     H519-O517=0.9736     O520-H521=0.9807     O520-H522=0.9713     H521-O520=0.9807     H522-O520=0.9713     
O523-H524=0.9928     O523-H525=0.9655     H524-O523=0.9928     H525-O523=0.9655     O526-H527=1.0008     O526-H528=0.9583     
H527-O526=1.0008     H528-O526=0.9583     O529-H530=0.9608     O529-H531=0.9759     H530-O529=0.9608     H531-O529=0.9759     
O532-H533=0.9792     O532-H534=0.9635     H533-O532=0.9792     H534-O532=0.9635     O535-H536=0.9907     O535-H537=0.9654     
H536-O535=0.9907     H537-O535=0.9654     O538-H539=0.9819     O538-H540=0.9668     H539-O538=0.9819     H540-O538=0.9668     
O541-H542=0.9727     O541-H543=0.9723     H542-O541=0.9727     H543-O541=0.9723     O544-H545=0.9774     O544-H546=0.9759     
H545-O544=0.9774     H546-O544=0.9759     O547-H548=0.9785     O547-H549=0.9590     H548-O547=0.9785     H549-O547=0.9590     
O550-H551=0.9916     O550-H552=0.9561     H551-O550=0.9916     H552-O550=0.9561     O553-H554=0.9618     O553-H555=0.9810     
H554-O553=0.9618     H555-O553=0.9810     O556-H557=0.9688     O556-H558=0.9716     H557-O556=0.9688     H558-O556=0.9716     
O559-H560=0.9800     O559-H561=0.9566     H560-O559=0.9800     H561-O559=0.9566     O562-H563=0.9718     O562-H564=0.9748     
H563-O562=0.9718     H564-O562=0.9748     O565-H566=0.9789     O565-H567=0.9809     H566-O565=0.9789     H567-O565=0.9809     
O568-H569=0.9769     O568-H570=0.9662     H569-O568=0.9769     H570-O568=0.9662     O571-H572=0.9746     O571-H573=0.9717     
H572-O571=0.9746     H573-O571=0.9717     O574-H575=0.9680     O574-H576=0.9813     H575-O574=0.9680     H576-O574=0.9813     
O577-H578=0.9663     O577-H579=0.9921     H578-O577=0.9663     H579-O577=0.9921     O580-H581=0.9728     O580-H582=0.9808     
H581-O580=0.9728     H582-O580=0.9808     O583-H584=0.9833     O583-H585=0.9751     H584-O583=0.9833     H585-O583=0.9751     
O586-H587=0.9624     O586-H588=0.9732     H587-O586=0.9624     H588-O586=0.9732     O589-H590=0.9692     O589-H591=0.9570     
H590-O589=0.9692     H591-O589=0.9570     O592-H593=0.9775     O592-H594=0.9755     H593-O592=0.9775     H594-O592=0.9755     
O595-H596=0.9694     O595-H597=0.9860     H596-O595=0.9694     H597-O595=0.9860     O598-H599=0.9974     O598-H600=0.9587     
H599-O598=0.9974     H600-O598=0.9587     O601-H602=0.9704     O601-H603=0.9837     H602-O601=0.9704     H603-O601=0.9837     
O604-H605=0.9768     O604-H606=0.9681     H605-O604=0.9768     H606-O604=0.9681     O607-H608=0.9576     O607-H609=0.9844     
H608-O607=0.9576     H609-O607=0.9844     O610-H611=0.9827     O610-H612=0.9660     H611-O610=0.9827     H612-O610=0.9660     
 C  H  Rav=1.0866 sigma=0.0027  Rmin=1.0842  Rmax=1.0912     4
 C  C  Rav=1.5138 sigma=0.0000  Rmin=1.5138  Rmax=1.5138     1
 N  H  Rav=1.0387 sigma=0.0068  Rmin=1.0316  Rmax=1.0478     3
 N  C  Rav=1.4703 sigma=0.0000  Rmin=1.4703  Rmax=1.4703     1
 O  H  Rav=0.9736 sigma=0.0085  Rmin=0.9557  Rmax=1.0008   401
 O  C  Rav=1.4157 sigma=0.0000  Rmin=1.4157  Rmax=1.4157     1
 
 selected bond angles (degree)
 --------------------
H3-C2-H1=108.53                C4-C2-H1=109.49                C4-C2-H3=109.19                O7-C2-H1=106.90                
O7-C2-H3=110.60                O7-C2-C4=112.06                H5-C4-C2=109.83                H6-C4-C2=107.88                
H6-C4-H5=109.79                N9-C4-C2=109.92                N9-C4-H5=108.68                N9-C4-H6=110.75                
H8-O7-C2=106.76                H10-N9-C4=110.19               H11-N9-C4=110.46               H11-N9-H10=109.52              
H12-N9-C4=111.17               H12-N9-H10=105.45              H12-N9-H11=109.92              
 
 selected dihedral angles (degree)
 ---------------------------------
H5-C4-C2-H1=176.49            H5-C4-C2-H3= 57.80            H5-C4-C2-O7=294.91            H6-C4-C2-H1= 56.85            
H6-C4-C2-H3=298.17            H6-C4-C2-O7=175.28            N9-C4-C2-H1=296.01            N9-C4-C2-H3=177.32            
N9-C4-C2-O7= 54.43            H8-O7-C2-H1=163.07            H8-O7-C2-H3=281.03            H8-O7-C2-C4= 43.12            
H10-N9-C4-C2=305.19           H10-N9-C4-H5= 65.42           H10-N9-C4-H6=186.09           H11-N9-C4-C2=184.05           
H11-N9-C4-H5=304.27           H11-N9-C4-H6= 64.95           H12-N9-C4-C2= 61.74           H12-N9-C4-H5=181.96           
H12-N9-C4-H6=302.63           
 
 CMA Distance (Angstroems)
 ---------------------------
R(CMA):  0.4708
           -------------------------------------------------
          |                Final Singlepoint                |
           -------------------------------------------------

          ...................................................
          :                      SETUP                      :
          :.................................................:
          :  # basis functions                1224          :
          :  # atomic orbitals                1224          :
          :  # shells                          816          :
          :  # electrons                      1626          :
          :  max. iterations                   250          :
          :  Hamiltonian                  GFN2-xTB          :
          :  restarted?                      false          :
          :  GBSA solvation                  false          :
          :  PC potential                    false          :
          :  electronic temp.          300.0000000     K    :
          :  accuracy                    1.0000000          :
          :  -> integral cutoff          0.2500000E+02      :
          :  -> integral neglect         0.1000000E-07      :
          :  -> SCF convergence          0.1000000E-05 Eh   :
          :  -> wf. convergence          0.1000000E-03 e    :
          :  Broyden damping             0.4000000          :
          ...................................................

 iter      E             dE          RMSdq      gap      omega  full diag
   1  -1039.8164116 -0.103982E+04  0.855E-06    7.90       0.0  T
   2  -1039.8164116 -0.272848E-11  0.511E-06    7.90     791.7  T
   3  -1039.8164116 -0.545697E-11  0.551E-07    7.90    7332.5  T

   *** convergence criteria satisfied after 3 iterations ***

         #    Occupation            Energy/Eh            Energy/eV
      -------------------------------------------------------------
         1        2.0000           -0.7405647             -20.1518
       ...           ...                  ...                  ...
       807        2.0000           -0.4604564             -12.5297
       808        2.0000           -0.4601996             -12.5227
       809        2.0000           -0.4598909             -12.5143
       810        2.0000           -0.4573400             -12.4449
       811        2.0000           -0.4570270             -12.4363
       812        2.0000           -0.4560686             -12.4103
       813        2.0000           -0.4442580             -12.0889 (HOMO)
       814                         -0.1539871              -4.1902 (LUMO)
       815                         -0.1404610              -3.8221
       816                         -0.1288599              -3.5065
       817                         -0.1263335              -3.4377
       818                         -0.1184203              -3.2224
       ...                                ...                  ...
      1224                          0.3712424              10.1020
      -------------------------------------------------------------
                  HL-Gap            0.2902709 Eh            7.8987 eV
             Fermi-level           -0.2991226 Eh           -8.1395 eV

 SCC (total)                   0 d,  0 h,  0 min, 12.542 sec
 SCC setup                      ...        0 min,  0.032 sec (  0.257%)
 Dispersion                     ...        0 min,  0.083 sec (  0.661%)
 classical contributions        ...        0 min,  0.021 sec (  0.164%)
 integral evaluation            ...        0 min,  0.702 sec (  5.595%)
 iterations                     ...        0 min,  1.984 sec ( 15.818%)
 molecular gradient             ...        0 min,  9.649 sec ( 76.935%)
 printout                       ...        0 min,  0.071 sec (  0.569%)

         :::::::::::::::::::::::::::::::::::::::::::::::::::::
         ::                     SUMMARY                     ::
         :::::::::::::::::::::::::::::::::::::::::::::::::::::
         :: total energy           -1033.471497044609 Eh    ::
         :: gradient norm              0.000128510281 Eh/a0 ::
         :: HOMO-LUMO gap              7.898674106386 eV    ::
         ::.................................................::
         :: SCC energy             -1039.816411605022 Eh    ::
         :: -> isotropic ES            5.740445272888 Eh    ::
         :: -> anisotropic ES         -1.316767782671 Eh    ::
         :: -> anisotropic XC         -0.097065242930 Eh    ::
         :: -> dispersion             -0.634890608557 Eh    ::
         :: repulsion energy           6.222075860587 Eh    ::
         :: add. restraining           0.000000000000 Eh    ::
         :: total charge               1.000000000000 e     ::
         :::::::::::::::::::::::::::::::::::::::::::::::::::::

           ------------------------------------------------- 
          |                Numerical Hessian                |
           ------------------------------------------------- 
step length          :   0.00500
SCC accuracy         :   0.30000
Hessian scale factor :   1.00000
frozen atoms in %    :   0.00000    0
RMS gradient         :   0.00013
estimated CPU  time    756.90 min
estimated wall time    758.77 min
