612
 energy: -1033.471496384213 gnorm: 0.000329990563 xtb: 6.5.1 (579679a)
H           -1.98405653040000       -0.48900965800000        0.05643004230000
C           -1.01576779540000       -0.53717358130000       -0.42889878380000
H           -0.86012282830000       -1.55434362780000       -0.79190934460000
C            0.06783393170000       -0.19453179860000        0.57103634450000
H            1.04426624650000       -0.30134497730000        0.10734505280000
H           -0.01959954180000       -0.88209753850000        1.40549784980000
O           -1.05092833040000        0.37736095210000       -1.50898501690000
H           -0.12118748940000        0.53981217310000       -1.77200396340000
N           -0.08923247710000        1.19571483470000        1.02299280470000
H           -0.10700172470000        1.84373317240000        0.19980332260000
H            0.68390440770000        1.45970156760000        1.65286351950000
H           -0.99801606260000        1.33318481780000        1.50241722660000
O            2.64319157340000        4.13721887710000        2.78200388230000
H            3.36888386030000        4.50882389480000        2.23115691610000
H            2.75697182190000        4.49477973050000        3.68665556170000
O            3.42295150210000        2.53319968830000       -3.17968549560000
H            3.88733029580000        3.13246871210000       -3.78525986560000
H            3.40025537500000        1.65898813370000       -3.59000765370000
O            6.62012254230000        3.58839961860000        0.73487493950000
H            6.94062008930000        2.93262061350000        1.39462812180000
H            6.23103641960000        3.06671809630000        0.00435426600000
O           -0.53336113910000        2.90350813530000        3.64603969630000
H            0.36248864560000        2.53669114830000        3.50005315000000
H           -1.11830174760000        2.13527355010000        3.63768763590000
O           -3.75423626920000        2.64337469230000       -1.25824885400000
H           -3.93755049780000        1.71334168630000       -1.46449352630000
H           -3.24049133460000        2.62587031860000       -0.42992274690000
O           -4.68790385080000       -4.51424747170000       -3.35034911420000
H           -4.78513528350000       -4.81957240860000       -2.42323379390000
H           -3.84500474770000       -4.89829939850000       -3.65085036100000
O            2.73875466760000       -0.46631682260000        1.69375948250000
H            2.09179059590000       -0.22188555910000        2.35715035060000
H            3.34741533840000        0.29620603650000        1.60415351100000
O            4.97074705360000        7.63098045250000        0.66413728620000
H            5.88812471720000        7.57373143830000        0.37927155810000
H            4.75560942520000        6.72125413490000        0.97007816110000
O            2.44685061600000       -2.91905988600000        0.84174128890000
H            2.65996938650000       -2.00203140380000        1.11648350820000
H            3.17913170230000       -3.47556864280000        1.20854473770000
O           -2.79762859340000       -2.97025554110000       -1.19726921090000
H           -2.58055743800000       -3.83264573810000       -0.83348215270000
H           -3.71189022590000       -2.77088117730000       -0.92333545590000
O            1.25832553840000        4.10351791040000       -2.59293018390000
H            1.51715770820000        4.99974194170000       -2.87140204230000
H            2.06202413240000        3.56300826530000       -2.69507646230000
O            6.85808040140000        2.65129421990000       -3.40251448480000
H            6.29474340810000        2.49630374990000       -2.61470158440000
H            6.33799528870000        2.36523173840000       -4.17583969920000
O           -4.15867463640000       -0.06496222320000        1.06712946760000
H           -4.19523265810000       -0.12956563250000        0.09016899800000
H           -5.05671128160000       -0.08327603880000        1.41372482380000
O            0.51897752720000        1.41086652560000        5.83108025590000
H            0.31980768980000        0.80094984650000        5.10614888580000
H           -0.29726794950000        1.93483699540000        6.00230293050000
O            1.76271487850000        1.74007889000000        3.06920210510000
H            2.26816228640000        1.25744754140000        3.74374621400000
H            2.25015959590000        2.57700616400000        2.89090827040000
O            3.97055180370000       -0.06222029080000       -1.29977590690000
H            4.10838979310000       -0.62825614600000       -0.52413529210000
H            4.37469219520000       -0.52382267960000       -2.06168107000000
O           -5.50905900500000       -4.25869164340000        6.78580712430000
H           -5.38031092100000       -3.31906801800000        7.01756013840000
H           -4.62423297360000       -4.63922070140000        6.70079661190000
O            0.23341513310000       -2.87166940510000        2.29243890090000
H            1.07210869730000       -2.94216866070000        1.79783656400000
H           -0.19276936420000       -3.73195734270000        2.25659151310000
O            0.49001699300000       -0.88079857900000        4.10005649090000
H            0.12877778550000       -1.32694876480000        4.88543238850000
H            0.41299370990000       -1.56780379780000        3.41141948870000
O            0.84157566320000       -0.26596568550000        7.83698544690000
H            0.66762817120000        0.38803975220000        7.11034597600000
H            0.09769959680000       -0.20637260580000        8.43542060640000
O            5.39665515560000        4.69471959650000        3.88531628710000
H            4.78378508120000        5.14748752450000        4.47090480500000
H            5.13507524990000        3.75213914100000        3.90520299250000
O           -2.22305576360000        5.00560443320000       -0.12113932890000
H           -1.64199551730000        4.33105244250000       -0.52737386610000
H           -2.25367727950000        4.76947301120000        0.83330183850000
O           -4.37385992490000        0.97532192500000        3.75098295860000
H           -5.24165108280000        0.90960774650000        3.32812781210000
H           -4.28315654300000        0.11852921750000        4.21556255600000
O           -2.42800378520000       -1.92883211650000        1.88656304960000
H           -3.18450268540000       -1.35735202150000        1.66390664960000
H           -2.61697758750000       -2.76917170440000        1.44821120960000
O            1.52998184800000       -2.24426122020000       -1.57346236620000
H            1.22991418910000       -3.12634196910000       -1.87661770440000
H            1.99814043430000       -2.41054432480000       -0.73784765000000
O            9.13079605240000        4.66539146240000        1.47761928030000
H            9.54835832360000        5.04083141930000        0.69723810060000
H            8.31864901660000        4.23672573400000        1.16063097650000
O           -2.68681593860000        2.17347968830000        1.16868954830000
H           -3.19019897120000        2.87330702730000        1.61617777230000
H           -3.24336555900000        1.37271502580000        1.20911617930000
O            1.56228333980000        1.00540707180000       -1.78395893510000
H            1.75282012470000        1.71574072440000       -1.13427704680000
H            2.38004466810000        0.47788124530000       -1.78452305320000
O            0.48276546720000       -2.48247583400000        6.32326286390000
H            0.68840882770000       -1.76130915210000        6.94632585400000
H           -0.40123367710000       -2.78050877370000        6.55383697550000
O           -1.66214594230000       -2.66702693820000        4.37018471330000
H           -1.28311704150000       -3.55321184530000        4.47467272340000
H           -1.72572530090000       -2.50751861420000        3.41356885600000
O           -1.10957321100000       -2.67045909380000       -7.39094900400000
H           -1.49089143450000       -1.81592788700000       -7.65272686000000
H           -0.30730549380000       -2.51326953270000       -6.84987423340000
O            3.63233166500000        8.04171541340000       -1.64289227640000
H            2.83068738530000        8.53683241690000       -1.44789092000000
H            4.08154312800000        7.92072254400000       -0.77543449230000
O           -0.32296966470000        5.47605298730000       -5.35565984540000
H           -0.80378956260000        4.87374485220000       -5.93798407350000
H            0.56735969690000        5.08093780950000       -5.28280279200000
O            5.22655292710000       -1.49597555780000       -3.17811658150000
H            4.44507343550000       -1.95902098160000       -3.55191783430000
H            5.57641618280000       -2.13569283020000       -2.50549190690000
O           -1.00128286750000       -5.39871984700000        1.76647295270000
H           -0.93482735710000       -6.35710317650000        1.57161923660000
H           -1.88549053390000       -5.10189288850000        1.46066551550000
O          -11.48382122250000       -1.23920987110000       -3.09532492830000
H          -12.07967226800000       -1.68170683110000       -2.48558210580000
H          -11.33714995100000       -0.35618849600000       -2.70112843380000
O           -8.63956000750000       -0.06087578170000        1.21682504080000
H           -8.67974489330000        0.65731485290000        0.56218737320000
H           -9.55562341070000       -0.19589598810000        1.52511108220000
O           -1.81600077360000        0.46240635710000        3.20377641350000
H           -1.78590727980000       -0.41531609170000        2.80140405820000
H           -2.75821015920000        0.71230999650000        3.22588182440000
O            0.68199913480000        1.92860869700000       -4.11810888420000
H            1.13584947880000        2.74733485140000       -4.39867947200000
H            1.14089233810000        1.59697874630000       -3.31377993440000
O           -1.46907416880000        7.50228602150000        0.25611862320000
H           -1.63712771050000        6.53685068960000        0.13419286760000
H           -1.82461177610000        7.71407154560000        1.12469861030000
O           -6.56081324260000       -0.35122597360000        2.85812106170000
H           -6.20529261720000       -1.24319600320000        2.65140299170000
H           -7.37013346410000       -0.23912341120000        2.32256521150000
O            7.16551808420000        2.07101847030000        5.65828802500000
H            7.52960795740000        2.93800985800000        5.44258682540000
H            7.88352014740000        1.42320276880000        5.51975714110000
O           -5.00307785710000       -5.53677109690000       -0.87737906270000
H           -5.95722727470000       -5.71139689000000       -0.83322700590000
H           -4.55349716130000       -6.36802882130000       -0.68769247480000
O            2.30485321430000        2.71047339090000        0.11290350620000
H            2.70324671660000        3.40170390390000       -0.42521401890000
H            3.02425919930000        2.34645536410000        0.65495475680000
O            5.28226513290000        2.32144650750000       -1.24405296190000
H            4.61402937060000        2.96862543540000       -1.51689854010000
H            4.80753226600000        1.46478929530000       -1.23585484250000
O           -0.62153483910000       -5.21640051640000        4.47487358110000
H            0.32291927200000       -5.42514396090000        4.51741563540000
H           -0.87550364720000       -5.39938188090000        3.55319276440000
O           -6.55889075610000       -4.11913744290000        4.39228592240000
H           -7.03158383460000       -4.92147307500000        4.16469110660000
H           -6.29665343200000       -4.18520148960000        5.34735820610000
O            3.78912158170000       -7.36789566740000       -3.88555478700000
H            3.08400332100000       -6.88837182550000       -4.35795122330000
H            3.50591512550000       -7.38780890420000       -2.95240312910000
O            1.93443033110000        3.98065707170000       -5.40470448060000
H            2.72345477400000        4.43972160160000       -5.08453908610000
H            2.25797160930000        3.28129456250000       -5.99981466910000
O            3.77044491280000        4.65735947530000       -1.34234630980000
H            4.36143393750000        5.15386569860000       -1.93610584450000
H            3.00357384260000        5.25278038590000       -1.17764416240000
O            3.04136892040000       -2.85213452960000       -3.68945652040000
H            2.52102629550000       -2.44127075100000       -2.97263743090000
H            2.45953737740000       -2.91341228190000       -4.46340411020000
O           -3.81900635540000        1.22706565890000       -4.28552418060000
H           -3.92495308660000        1.53249718620000       -5.20585793140000
H           -3.13227679260000        1.77900007800000       -3.86002324030000
O           -0.57419441230000       -5.16246050400000       -5.67849776550000
H           -0.98983789730000       -4.84835712800000       -6.48338056480000
H           -1.27388482850000       -5.35268386740000       -5.02898312470000
O            2.89869921500000        4.83625127170000        5.34628126750000
H            3.03630771050000        3.98648887690000        5.79093790020000
H            1.95539832840000        5.04888426750000        5.48291859100000
O           -1.92869052290000        5.14339688580000       -3.22637661930000
H           -1.71348344470000        4.23666827850000       -2.94000516200000
H           -1.30439264250000        5.33439852870000       -3.95507259010000
O            5.01418592570000       -1.63170372770000        0.72919284680000
H            5.64826783450000       -0.88305163580000        0.73181519910000
H            4.79053243750000       -1.80339996240000        1.65673755170000
O           -3.58839219450000        3.47510779060000        4.48774135860000
H           -3.19693565490000        3.85854484260000        3.67376381710000
H           -3.90698622700000        2.58278270810000        4.25257166260000
O            4.89482758590000        2.04988260770000        4.19698681460000
H            4.18477384260000        2.01031008480000        4.86315233360000
H            5.73077791510000        1.94155171870000        4.68796458300000
O            0.44948042540000       -0.92315180600000       -3.60806261910000
H           -0.52056608320000       -0.91076332280000       -3.60003842950000
H            0.72619051050000       -1.29589386420000       -2.75629476670000
O           -2.10606429320000       -0.79141239990000       -4.46667502120000
H           -2.84653264240000       -0.16437633600000       -4.34428192960000
H           -2.46989012260000       -1.63636823890000       -4.77510521880000
O           -0.40515136940000        0.50802368180000       -6.00762602970000
H           -0.96192517400000       -0.05848211300000       -5.42309831420000
H            0.18145107110000        0.95959638200000       -5.35783790230000
O           -1.68450742940000       -5.68969307750000       -1.21834384860000
H           -2.29336080370000       -6.22186650880000       -0.66811680040000
H           -0.86418143250000       -6.20579696140000       -1.26822786880000
O            8.68165028130000       -2.26710729760000        2.22967813230000
H            8.72016595600000       -2.86353320970000        3.01550043610000
H            9.60133259020000       -2.10187707300000        1.96069972450000
O            2.10813116730000       -7.06269605760000        1.63243478000000
H            1.82856756300000       -6.40834145640000        0.95486956540000
H            3.05990988910000       -7.19066825990000        1.51231715770000
O           -6.54375541440000        1.89916507060000        5.51279062280000
H           -6.81562388690000        1.01152684350000        5.79717949270000
H           -7.02103108750000        2.01320170890000        4.67136971060000
O            8.01117982540000        4.28376013150000        4.12149297240000
H            7.07123113920000        4.57015795300000        4.06453076520000
H            8.45671590200000        4.75066215880000        3.40493150710000
O            9.24259896730000        4.95842563180000       -1.40610064810000
H            8.94759971630000        4.05290926760000       -1.20884367960000
H            8.97200642120000        5.10106924050000       -2.33933936720000
O            6.99397539770000        6.06541549150000       -0.50438793350000
H            6.73509623700000        5.26596204830000       -0.01930603120000
H            7.90102784570000        5.86922451060000       -0.82165344060000
O           -3.78532372720000       -0.03094022630000       -1.59635659020000
H           -2.83465570810000       -0.01043718250000       -1.76190886320000
H           -4.14026689850000       -0.73370831360000       -2.17113709300000
O            2.86193204300000        1.67794231400000       -6.49396927160000
H            2.79234032770000        1.12850292900000       -5.67696475020000
H            2.57233839460000        1.09804000910000       -7.20453491750000
O           -1.81825373240000       -0.14450757400000        5.87964797420000
H           -2.61402178880000        0.35255387060000        6.13396207890000
H           -1.74490674100000       -0.06829344520000        4.91239797660000
O           -8.94691435400000       -0.78078271940000       -1.41828918400000
H           -9.50571180890000       -0.00436682100000       -1.57865001430000
H           -8.49787101680000       -0.99319753410000       -2.25776131310000
O           -6.78002454830000        0.58833998550000       -5.51381249540000
H           -7.66566312470000        0.53514493190000       -5.88161995570000
H           -6.53340703450000        1.53736978590000       -5.46377811350000
O            8.28942189320000       -5.04326236250000       -0.80921357170000
H            9.20343344740000       -4.84976333370000       -0.57057246310000
H            8.16405542700000       -4.62503898400000       -1.68911886820000
O            8.33015487510000       -1.91377739520000       -0.71968545460000
H            8.46583327380000       -1.32975783600000        0.04094669960000
H            9.08113227910000       -2.53409671430000       -0.71717923550000
O           -4.11594820720000        1.04862922710000        6.73369154570000
H           -4.81300258590000        1.51590765360000        6.24795796330000
H           -4.51428820030000        0.20964619120000        7.01792555830000
O            0.47303037260000        4.69879964980000        1.38319581610000
H            0.22562246100000        5.46941612300000        1.93013196610000
H            1.27599625260000        4.35161108280000        1.82677122170000
O           -7.43903693690000        4.71052063140000        2.31040127710000
H           -7.03045142820000        5.48321784550000        1.91282424720000
H           -6.98833228110000        4.61014975460000        3.17804953700000
O           -2.18058662280000        4.64287914660000        2.50244675650000
H           -1.38240385300000        4.15771698120000        2.78510919190000
H           -2.10486720190000        5.58103802850000        2.75829670300000
O            0.25655605190000        6.76762939540000        3.02311921970000
H            1.05486486010000        7.23400372810000        2.69181482720000
H           -0.47716521760000        7.38831711770000        3.00819267750000
O            2.31377782920000       -3.12288887400000        4.37141352780000
H            1.55873438410000       -2.92313500600000        4.94941920180000
H            2.17814032980000       -4.04022813220000        4.06398549910000
O            7.00630717810000       -0.45021095640000        3.21797120730000
H            7.58195915040000       -1.09118229200000        2.74771730550000
H            6.10809413860000       -0.79411351610000        3.20522281690000
O           -2.84687700770000       -3.25096996150000       -5.49868180380000
H           -3.70976896820000       -3.49641874020000       -5.84128227830000
H           -2.25370118310000       -3.10314353080000       -6.27217082190000
O           -8.11411250410000        2.08026311730000        3.24825760100000
H           -7.52048149400000        1.98923896230000        2.47047278100000
H           -8.50719832950000        2.95098810210000        3.18458588940000
O            2.90576905550000        0.05668222620000       -4.38764006720000
H            3.27378017800000       -0.64478898910000       -4.96471847060000
H            2.01632363360000       -0.23141466400000       -4.12979503660000
O           -1.55079818570000        3.05040505360000       -6.00464764240000
H           -1.00415751830000        2.26498846250000       -6.17819513130000
H           -1.68042014610000        3.06063188120000       -5.04653092590000
O            6.25083573860000       -2.55620972810000        5.35709325210000
H            5.52737585950000       -3.00040722510000        5.85037520140000
H            6.38384927970000       -1.71895005660000        5.84915160430000
O            3.96432699220000       -3.33100963910000        6.43159690270000
H            3.33767862620000       -3.23912035160000        5.67061279380000
H            3.82017479720000       -2.52508535870000        6.95653282540000
O            1.93302501870000       -5.67058176560000       -4.79989709990000
H            1.64923405910000       -5.27494356720000       -3.94757908640000
H            1.13146138040000       -5.69838105730000       -5.33686580760000
O            4.58631602100000        4.48730835170000       -4.68001296460000
H            5.30438310940000        4.09066396610000       -5.18034355220000
H            4.95485032490000        5.16696029500000       -4.09858989800000
O            3.60741605140000       -4.48172303420000       -1.51306433940000
H            4.52936276810000       -4.24145237940000       -1.34834531530000
H            3.40114485180000       -4.14107010090000       -2.39693307610000
O            4.58832163610000       -1.91693286870000        3.40897761840000
H            5.23204794120000       -2.25205240900000        4.07443421420000
H            3.83161903950000       -2.52326256950000        3.45064100250000
O            0.38831512750000       -7.49932516570000       -1.52328917900000
H            0.39297747130000       -8.10901931340000       -2.26030908580000
H            1.33083340250000       -7.24600924230000       -1.37765778210000
O            2.95613268380000       -0.15540929570000        4.65204155800000
H            3.58712517690000       -0.68652248080000        4.13061382180000
H            2.07117103790000       -0.56379863580000        4.50753994580000
O            9.16527787610000        0.31175189690000        0.75128319940000
H            9.55161665270000        0.40422254880000        1.64873048140000
H            9.91755085860000        0.13477939930000        0.15136494260000
O           -7.28987074430000       -0.71841285570000        5.44820571460000
H           -8.24786292900000       -0.64203862830000        5.39649372430000
H           -6.97637953900000       -0.62290436590000        4.51949765690000
O           -2.28218120360000       -2.36631808660000        7.21526072130000
H           -3.12299032430000       -2.15921438020000        7.62914393660000
H           -2.08190426710000       -1.59110049940000        6.63321965550000
O           -8.27035704970000        4.15430918060000       -4.47209154430000
H           -7.59510486930000        3.89408635740000       -5.11496085840000
H           -7.81636999770000        4.80999816270000       -3.91708830380000
O           -1.22368792060000       -3.23658542400000       -3.28999901970000
H           -1.81889254290000       -3.05320079360000       -2.53853186820000
H           -1.79236415090000       -3.43625876930000       -4.04213745470000
O            0.20000064660000        5.09725736700000        5.16008186120000
H           -0.07396976510000        4.24623811880000        4.77688368610000
H            0.28326216440000        5.71944256310000        4.41340582170000
O           -8.70749849210000        5.04079988950000       -1.39420480160000
H           -8.41986542840000        5.79477301110000       -1.91505395180000
H           -7.90129719720000        4.48285851960000       -1.32454815490000
O           -5.32998021820000       -2.49600767800000       -0.34647414140000
H           -5.95877967630000       -3.05579858590000       -0.83702621670000
H           -5.68548367590000       -1.58974564630000       -0.45281892550000
O           -6.52996702150000        3.48337092450000       -1.05807648820000
H           -5.85102025090000        4.17736934200000       -0.88952417910000
H           -6.12443675360000        2.86105401430000       -1.70183467520000
O           -1.75144531370000        2.73832893250000        6.36132526290000
H           -2.32013056750000        3.05161273910000        5.63336041540000
H           -2.34853354130000        2.27530247560000        6.95417001070000
O            6.87491398730000       -4.00577876190000        1.24837473070000
H            7.49733906620000       -3.31134973160000        1.52746858150000
H            7.29559421670000       -4.43213639000000        0.47561957970000
O            5.94515195040000       -3.07746607800000       -1.24325435870000
H            6.89053975750000       -2.87812955160000       -1.12752445050000
H            5.52484556120000       -2.65390366140000       -0.46321160780000
O           -8.06495415390000       -2.73271951730000        0.88358516660000
H           -8.19338973550000       -1.80639937820000        0.62624021610000
H           -8.40383883240000       -2.76759323420000        1.80889446600000
O            1.87520704090000        6.13082903810000       -0.35599623230000
H            1.24808337120000        5.58776463500000        0.16286405880000
H            1.38586203210000        6.84419836240000       -0.81108915430000
O           -9.60047396580000       -3.21755175390000       -3.00909319390000
H          -10.24565823410000       -2.48447456840000       -3.01485412380000
H           -9.30426374330000       -3.31590872290000       -3.92643752590000
O          -10.97222725650000        1.12542534690000       -1.89511577140000
H          -10.91980359580000        1.99349792590000       -2.34100420690000
H          -11.28584852910000        1.32884672540000       -1.00140113170000
O           -9.61536740420000       -0.12471025070000        4.08247653300000
H          -10.39771208950000       -0.19151739250000        3.52069138110000
H           -9.11191279580000        0.64261336970000        3.75537935650000
O           -8.75289504820000       -2.66679018620000        3.41381333370000
H           -9.04640503620000       -1.78777539930000        3.70954802460000
H           -8.00843448800000       -2.94229783960000        3.96621619710000
O           -3.37123261750000       -4.40733946760000        1.13913259540000
H           -3.70380658330000       -4.42433736160000        2.05611078190000
H           -4.08930392380000       -4.69876110310000        0.55652202420000
O           -5.68661043600000       -3.58784977260000       -5.81674157600000
H           -6.64461926880000       -3.40589059610000       -5.80126084120000
H           -5.48839302940000       -4.02049557090000       -4.97271290350000
O            9.14943006810000        1.21780322010000       -3.98058028650000
H            8.36234014110000        1.75924945970000       -3.79156913070000
H            9.88284506940000        1.58883554830000       -3.47242064490000
O           -2.39408668810000       -5.89765283320000       -3.73657270550000
H           -2.09720395880000       -5.73122088890000       -2.79911880350000
H           -2.56856187020000       -6.83510081560000       -3.80842812450000
O           -5.39277903410000       -2.62303045690000        2.28842304300000
H           -5.94830198550000       -3.35040051910000        2.58463908790000
H           -5.34345081190000       -2.66371225630000        1.30323302000000
O           10.95825172590000        2.26135846060000       -2.10778592840000
H           10.10577594970000        2.37514645280000       -1.61949019860000
H           11.35422462270000        3.13065120800000       -2.16969262650000
O           -3.18274451910000       -7.37298613330000        0.26131336290000
H           -2.46395660290000       -7.92806816510000        0.57974220840000
H           -3.74576415160000       -7.19720086230000        1.05759687520000
O           -4.66456999280000       -1.07015296150000       -5.90324574980000
H           -5.07674992850000       -1.92954002390000       -6.10617099870000
H           -5.38454801910000       -0.41536661340000       -5.87554353030000
O            0.68986856210000        8.27688258880000       -1.35224192060000
H           -0.06504875560000        8.25309099170000       -0.74740536190000
H            0.34083932230000        8.23832206260000       -2.25660787740000
O            1.06272687730000       -5.15956341740000        0.03821754150000
H            1.61664614410000       -4.38242862870000        0.20389702800000
H            0.26110365670000       -5.07789865210000        0.58785877000000
O           -0.33255638910000        3.26074005890000       -0.71852947470000
H            0.24869640600000        3.53370783000000       -1.46623431350000
H            0.03436055050000        3.72826696960000        0.05371443340000
O            0.88021378870000       -2.73426213630000       -5.51004250940000
H            0.61172755030000       -2.10152057970000       -4.80819473820000