      -----------------------------------------------------------      
     |                   =====================                   |     
     |                           x T B                           |     
     |                   =====================                   |     
     |                         S. Grimme                         |     
     |          Mulliken Center for Theoretical Chemistry        |     
     |                    University of Bonn                     |     
      -----------------------------------------------------------      

   * xtb version 6.5.1 (579679a) compiled by 'ehlert@majestix' on 2022-07-11

   xtb is free software: you can redistribute it and/or modify it under
   the terms of the GNU Lesser General Public License as published by
   the Free Software Foundation, either version 3 of the License, or
   (at your option) any later version.
   
   xtb is distributed in the hope that it will be useful,
   but WITHOUT ANY WARRANTY; without even the implied warranty of
   MERCHANTABILITY or FITNESS FOR A PARTICULAR PURPOSE.  See the
   GNU Lesser General Public License for more details.
   
   Cite this work as:
   * C. Bannwarth, E. Caldeweyher, S. Ehlert, A. Hansen, P. Pracht,
     J. Seibert, S. Spicher, S. Grimme, WIREs Comput. Mol. Sci., 2020, 11,
     e01493. DOI: 10.1002/wcms.1493
   
   for GFN2-xTB:
   * C. Bannwarth, S. Ehlert and S. Grimme., J. Chem. Theory Comput., 2019,
     15, 1652-1671. DOI: 10.1021/acs.jctc.8b01176
   for GFN1-xTB:
   * S. Grimme, C. Bannwarth, P. Shushkov, J. Chem. Theory Comput., 2017,
     13, 1989-2009. DOI: 10.1021/acs.jctc.7b00118
   for GFN0-xTB:
   * P. Pracht, E. Caldeweyher, S. Ehlert, S. Grimme, ChemRxiv, 2019, preprint.
     DOI: 10.26434/chemrxiv.8326202.v1
   for GFN-FF:
   * S. Spicher and S. Grimme, Angew. Chem. Int. Ed., 2020, 59, 15665-15673.
     DOI: 10.1002/anie.202004239
   
   for ALPB and GBSA implicit solvation:
   * S. Ehlert, M. Stahn, S. Spicher, S. Grimme, J. Chem. Theory Comput.,
     2021, 17, 4250-4261. DOI: 10.1021/acs.jctc.1c00471
   
   for DFT-D4:
   * E. Caldeweyher, C. Bannwarth and S. Grimme, J. Chem. Phys., 2017,
     147, 034112. DOI: 10.1063/1.4993215
   * E. Caldeweyher, S. Ehlert, A. Hansen, H. Neugebauer, S. Spicher,
     C. Bannwarth and S. Grimme, J. Chem. Phys., 2019, 150, 154122.
     DOI: 10.1063/1.5090222
   * E. Caldeweyher, J.-M. Mewes, S. Ehlert and S. Grimme, Phys. Chem. Chem. Phys.
     2020, 22, 8499-8512. DOI: 10.1039/D0CP00502A
   
   for sTDA-xTB:
   * S. Grimme and C. Bannwarth, J. Chem. Phys., 2016, 145, 054103.
     DOI: 10.1063/1.4959605
   
   in the mass-spec context:
   * V. Asgeirsson, C. Bauer and S. Grimme, Chem. Sci., 2017, 8, 4879.
     DOI: 10.1039/c7sc00601b
   * J. Koopman and S. Grimme, ACS Omega 2019, 4, 12, 15120-15133.
     DOI: 10.1021/acsomega.9b02011
   
   for metadynamics refer to:
   * S. Grimme, J. Chem. Theory Comput., 2019, 155, 2847-2862
     DOI: 10.1021/acs.jctc.9b00143
   
   for SPH calculations refer to:
   * S. Spicher and S. Grimme, J. Chem. Theory Comput., 2021, 17, 1701-1714
     DOI: 10.1021/acs.jctc.0c01306
   
   with help from (in alphabetical order)
   P. Atkinson, C. Bannwarth, F. Bohle, G. Brandenburg, E. Caldeweyher
   M. Checinski, S. Dohm, S. Ehlert, S. Ehrlich, I. Gerasimov, C. Hölzer
   A. Katbashev, J. Koopman, C. Lavigne, S. Lehtola, F. März, M. Müller,
   F. Musil, H. Neugebauer, J. Pisarek, C. Plett, P. Pracht, F. Pultar,
   J. Seibert, P. Shushkov, S. Spicher, M. Stahn, M. Steiner, T. Strunk,
   J. Stückrath, T. Rose, and J. Unsleber
   
 * started run on 2022/11/17 at 06:48:47.985     

           -------------------------------------------------
          |                Calculation Setup                |
           -------------------------------------------------

          program call               : xtb solvent_cluster.coord --gfn2 --input xcontrol --opt 1
          hostname                   : cn0363
          coordinate file            : solvent_cluster.coord
          omp threads                :                     2

   ID    Z sym.   atoms
    1    8 o      1, 4, 7, 10, 13, 16, 19, 22, 25, 28, 31, 34, 37, 40, 43,
                  46, 49, 52, 55, 58, 61, 64, 67, 70, 73, 76, 79, 82, 85, 88,
                  91, 94, 97, 100, 103, 106, 109, 112, 115, 118, 121, 124,
                  127, 130, 133, 136, 139, 142, 145, 148, 151, 154, 157, 160,
                  163, 166, 169, 172, 175, 178, 181, 184, 187, 190, 193, 196,
                  199, 202, 205, 208, 211, 214, 217, 220, 223, 226, 229, 232,
                  235, 238, 241, 244, 247, 250, 253, 256, 259, 262, 265, 268,
                  271, 274, 277, 280, 283, 286, 289, 292, 295, 298, 301, 304,
                  307, 310, 313, 316, 319, 322, 325, 328, 331, 334, 337, 340,
                  343, 346, 349, 352, 355, 358, 361, 364, 367, 370, 373, 376,
                  379, 382, 385, 388, 391, 394, 397, 400, 403, 406, 409, 412,
                  415, 418, 421, 424, 427, 430, 433, 436, 439, 442, 445, 448,
                  451, 454, 457, 460, 463, 466, 469, 472, 475, 478, 481, 484,
                  487, 490, 493, 496, 499, 502, 505, 508, 511, 514, 517, 520,
                  523, 526, 529
    2    1 h      2, 3, 5, 6, 8, 9, 11, 12, 14, 15, 17, 18, 20, 21, 23, 24,
                  26, 27, 29, 30, 32, 33, 35, 36, 38, 39, 41, 42, 44, 45, 47,
                  48, 50, 51, 53, 54, 56, 57, 59, 60, 62, 63, 65, 66, 68, 69,
                  71, 72, 74, 75, 77, 78, 80, 81, 83, 84, 86, 87, 89, 90, 92,
                  93, 95, 96, 98, 99, 101, 102, 104, 105, 107, 108, 110, 111,
                  113, 114, 116, 117, 119, 120, 122, 123, 125, 126, 128, 129,
                  131, 132, 134, 135, 137, 138, 140, 141, 143, 144, 146, 147,
                  149, 150, 152, 153, 155, 156, 158, 159, 161, 162, 164, 165,
                  167, 168, 170, 171, 173, 174, 176, 177, 179, 180, 182, 183,
                  185, 186, 188, 189, 191, 192, 194, 195, 197, 198, 200, 201,
                  203, 204, 206, 207, 209, 210, 212, 213, 215, 216, 218, 219,
                  221, 222, 224, 225, 227, 228, 230, 231, 233, 234, 236, 237,
                  239, 240, 242, 243, 245, 246, 248, 249, 251, 252, 254, 255,
                  257, 258, 260, 261, 263, 264, 266, 267, 269, 270, 272, 273,
                  275, 276, 278, 279, 281, 282, 284, 285, 287, 288, 290, 291,
                  293, 294, 296, 297, 299, 300, 302, 303, 305, 306, 308, 309,
                  311, 312, 314, 315, 317, 318, 320, 321, 323, 324, 326, 327,
                  329, 330, 332, 333, 335, 336, 338, 339, 341, 342, 344, 345,
                  347, 348, 350, 351, 353, 354, 356, 357, 359, 360, 362, 363,
                  365, 366, 368, 369, 371, 372, 374, 375, 377, 378, 380, 381,
                  383, 384, 386, 387, 389, 390, 392, 393, 395, 396, 398, 399,
                  401, 402, 404, 405, 407, 408, 410, 411, 413, 414, 416, 417,
                  419, 420, 422, 423, 425, 426, 428, 429, 431, 432, 434, 435,
                  437, 438, 440, 441, 443, 444, 446, 447, 449, 450, 452, 453,
                  455, 456, 458, 459, 461, 462, 464, 465, 467, 468, 470, 471,
                  473, 474, 476, 477, 479, 480, 482, 483, 485, 486, 488, 489,
                  491, 492, 494, 495, 497, 498, 500, 501, 503, 504, 506, 507,
                  509, 510, 512, 513, 515, 516, 518, 519, 521, 522, 524, 525,
                  527, 528, 530, 531

molecular fragmentation (1/2 indicates fragments):
111222222222222222222222222222222222222222222222222222222222222222222222
222222222222222222222222222222222222222222222222222222222222222222222222
222222222222222222222222222222222222222222222222222222222222222222222222
222222222222222222222222222222222222222222222222222222222222222222222222
222222222222222222222222222222222222222222222222222222222222222222222222
222222222222222222222222222222222222222222222222222222222222222222222222
222222222222222222222222222222222222222222222222222222222222222222222222
222222222222222222222222222
# atoms in fragment 1/2:     3   528
 fragment masses (1/2) :       18.02     3170.69
CMA distance (Bohr)    :   5.860
constraining FC (au)   :  0.0500

           -------------------------------------------------
          |                 G F N 2 - x T B                 |
           -------------------------------------------------

        Reference                      10.1021/acs.jctc.8b01176
      * Hamiltonian:
        H0-scaling (s, p, d)           1.850000    2.230000    2.230000
        zeta-weighting                 0.500000
      * Dispersion:
        s8                             2.700000
        a1                             0.520000
        a2                             5.000000
        s9                             5.000000
      * Repulsion:
        kExp                           1.500000    1.000000
        rExp                           1.000000
      * Coulomb:
        alpha                          2.000000
        third order                    shell-resolved
        anisotropic                    true
        a3                             3.000000
        a5                             4.000000
        cn-shift                       1.200000
        cn-exp                         4.000000
        max-rad                        5.000000


          ...................................................
          :                      SETUP                      :
          :.................................................:
          :  # basis functions                1062          :
          :  # atomic orbitals                1062          :
          :  # shells                          708          :
          :  # electrons                      1416          :
          :  max. iterations                   250          :
          :  Hamiltonian                  GFN2-xTB          :
          :  restarted?                      false          :
          :  GBSA solvation                  false          :
          :  PC potential                    false          :
          :  electronic temp.          300.0000000     K    :
          :  accuracy                    1.0000000          :
          :  -> integral cutoff          0.2500000E+02      :
          :  -> integral neglect         0.1000000E-07      :
          :  -> SCF convergence          0.1000000E-05 Eh   :
          :  -> wf. convergence          0.1000000E-03 e    :
          :  Broyden damping             0.4000000          :
          ...................................................

 iter      E             dE          RMSdq      gap      omega  full diag
   1   -906.5314564 -0.906531E+03  0.407E+00    8.60       0.0  T
   2   -906.5953057 -0.638494E-01  0.241E+00    7.21       1.0  T
   3   -906.6189960 -0.236903E-01  0.222E-01    5.42       1.0  T
   4   -906.6233408 -0.434477E-02  0.478E-02    5.91       1.0  T
   5   -906.6234252 -0.843767E-04  0.317E-02    5.83       1.0  T
   6   -906.6234572 -0.319816E-04  0.466E-03    5.87       1.0  T
   7   -906.6234592 -0.206315E-05  0.774E-04    5.87       5.6  T
   8   -906.6234592 -0.212079E-07  0.418E-04    5.86      10.4  T
   9   -906.6234593 -0.122295E-07  0.665E-05    5.86      65.3  T

   *** convergence criteria satisfied after 9 iterations ***

         #    Occupation            Energy/Eh            Energy/eV
      -------------------------------------------------------------
         1        2.0000           -0.7048215             -19.1792
       ...           ...                  ...                  ...
       702        2.0000           -0.3519496              -9.5770
       703        2.0000           -0.3417709              -9.3001
       704        2.0000           -0.3349062              -9.1133
       705        2.0000           -0.3339527              -9.0873
       706        2.0000           -0.3227095              -8.7814
       707        2.0000           -0.3126944              -8.5088
       708        2.0000           -0.3002170              -8.1693 (HOMO)
       709                         -0.0846897              -2.3045 (LUMO)
       710                         -0.0808864              -2.2010
       711                         -0.0580028              -1.5783
       712                         -0.0546990              -1.4884
       713                         -0.0456522              -1.2423
       ...                                ...                  ...
      1062                          0.4785709              13.0226
      -------------------------------------------------------------
                  HL-Gap            0.2155273 Eh            5.8648 eV
             Fermi-level           -0.1924533 Eh           -5.2369 eV

 SCC (total)                   0 d,  0 h,  0 min,  8.416 sec
 SCC setup                      ...        0 min,  0.027 sec (  0.323%)
 Dispersion                     ...        0 min,  0.071 sec (  0.841%)
 classical contributions        ...        0 min,  0.016 sec (  0.186%)
 integral evaluation            ...        0 min,  0.549 sec (  6.527%)
 iterations                     ...        0 min,  2.928 sec ( 34.787%)
 molecular gradient             ...        0 min,  4.796 sec ( 56.982%)
 printout                       ...        0 min,  0.030 sec (  0.353%)

         :::::::::::::::::::::::::::::::::::::::::::::::::::::
         ::                     SUMMARY                     ::
         :::::::::::::::::::::::::::::::::::::::::::::::::::::
         :: total energy            -901.139804174568 Eh    ::
         :: gradient norm              0.108730892047 Eh/a0 ::
         :: HOMO-LUMO gap              5.864796895463 eV    ::
         ::.................................................::
         :: SCC energy              -906.623459254738 Eh    ::
         :: -> isotropic ES            5.111268647208 Eh    ::
         :: -> anisotropic ES         -1.097139694519 Eh    ::
         :: -> anisotropic XC         -0.092590920937 Eh    ::
         :: -> dispersion             -0.529848576692 Eh    ::
         :: repulsion energy           5.390650520446 Eh    ::
         :: add. restraining           0.000000000000 Eh    ::
         :: total charge              -0.000000000000 e     ::
         :::::::::::::::::::::::::::::::::::::::::::::::::::::

      ----------------------------------------------------------- 
     |                       L-ANC optimizer                     |
      ----------------------------------------------------------- 
          low memory version by Sebastian Ehlert

          ...................................................
          :                      SETUP                      :
          :.................................................:
          :   energy convergence        0.1000000E-05 Eh    :
          :   grad. convergence         0.8000000E-03 Eh/a0 :
          :   optimization log               true           :
          :   writing optlog all                1     steps :
          :   Hessian reset                    20     steps :
          :   maximium step len.        1.0000000     a0    :
          :   LBFGS images                     20           :
          ...................................................
 * calculating model hessian...
Using Lindh-Hessian (1995)
 Shifting diagonal of input Hessian by   1.094677926972508E-002
 Lowest  eigenvalues of input Hessian
    0.010000    0.010947   -0.000000   -0.000000   -0.000000   -0.000000
   -0.000000   -0.000000   -0.000000   -0.000000   -0.000000   -0.000000
   -0.000000   -0.000000   -0.000000   -0.000000   -0.000000   -0.000000
 Highest eigenvalues
    0.291905    0.315545    1.218925    1.236005    1.367053    1.443910
 

........................................................................
.............................. CYCLE    1 ..............................
........................................................................
   1   -906.6213136 -0.906621E+03  0.389E-02    5.88       0.0  T
   2   -906.6213239 -0.102242E-04  0.240E-02    5.89       1.0  T
   3   -906.6213286 -0.474068E-05  0.191E-03    5.90       2.3  T
   4   -906.6213288 -0.207282E-06  0.536E-04    5.90       8.1  T
   5   -906.6213288 -0.462239E-08  0.704E-05    5.90      61.6  T
     SCC iter.                  ...        0 min,  1.406 sec
     gradient                   ...        0 min,  4.802 sec
 * total energy  :  -901.1420810 Eh     change       -0.2276874E-02 Eh
   gradient norm :     0.0203356 Eh/a0  converged?    E=F G=F D=F
   step length   :     0.4366480 a0

........................................................................
.............................. CYCLE    2 ..............................
........................................................................
   1   -906.6177832 -0.906618E+03  0.392E-02    5.91       0.0  T
   2   -906.6178068 -0.235989E-04  0.236E-02    5.94       1.0  T
   3   -906.6178128 -0.599259E-05  0.323E-03    5.97       1.3  T
   4   -906.6178137 -0.844715E-06  0.803E-04    5.97       5.4  T
   5   -906.6178137 -0.175559E-07  0.123E-04    5.97      35.4  T
     SCC iter.                  ...        0 min,  1.400 sec
     gradient                   ...        0 min,  4.814 sec
 * total energy  :  -901.1454510 Eh     change       -0.3369947E-02 Eh
   gradient norm :     0.0410066 Eh/a0  converged?    E=F G=F D=F
   step length   :     0.9539589 a0

........................................................................
.............................. CYCLE    3 ..............................
........................................................................
   1   -906.6159477 -0.906616E+03  0.352E-02    6.00       0.0  T
   2   -906.6159894 -0.417468E-04  0.207E-02    6.03       1.0  T
   3   -906.6159971 -0.765774E-05  0.454E-03    6.05       1.0  T
   4   -906.6159982 -0.112515E-05  0.861E-04    6.05       5.0  T
   5   -906.6159983 -0.215483E-07  0.178E-04    6.04      24.4  T
   6   -906.6159983 -0.112402E-08  0.583E-05    6.04      74.4  T
     SCC iter.                  ...        0 min,  1.651 sec
     gradient                   ...        0 min,  4.851 sec
 * total energy  :  -901.1483717 Eh     change       -0.2920675E-02 Eh
   gradient norm :     0.0552878 Eh/a0  converged?    E=F G=F D=F
   step length   :     2.5802132 a0

........................................................................
.............................. CYCLE    4 ..............................
........................................................................
   1   -906.6247170 -0.906625E+03  0.387E-02    6.07       0.0  T
   2   -906.6247801 -0.630873E-04  0.232E-02    6.10       1.0  T
   3   -906.6247923 -0.122276E-04  0.544E-03    6.13       1.0  T
   4   -906.6247940 -0.166323E-05  0.109E-03    6.13       4.0  T
   5   -906.6247940 -0.282474E-07  0.199E-04    6.13      21.9  T
   6   -906.6247940 -0.131035E-08  0.691E-05    6.13      62.8  T
     SCC iter.                  ...        0 min,  1.629 sec
     gradient                   ...        0 min,  4.891 sec
 * total energy  :  -901.1515491 Eh     change       -0.3177435E-02 Eh
   gradient norm :     0.0397222 Eh/a0  converged?    E=F G=F D=F
   step length   :     1.1491519 a0

........................................................................
.............................. CYCLE    5 ..............................
........................................................................
   1   -906.6258200 -0.906626E+03  0.474E-02    6.12       0.0  T
   2   -906.6259171 -0.971612E-04  0.278E-02    6.14       1.0  T
   3   -906.6259317 -0.145795E-04  0.671E-03    6.15       1.0  T
   4   -906.6259338 -0.207802E-05  0.103E-03    6.15       4.2  T
   5   -906.6259338 -0.227167E-07  0.204E-04    6.15      21.3  T
   6   -906.6259338 -0.125988E-08  0.716E-05    6.15      60.6  T
     SCC iter.                  ...        0 min,  1.565 sec
     gradient                   ...        0 min,  4.954 sec
 * total energy  :  -901.1511307 Eh     change        0.4184121E-03 Eh
   gradient norm :     0.0474319 Eh/a0  converged?    E=F G=F D=F
   step length   :     0.8598283 a0

........................................................................
.............................. CYCLE    6 ..............................
........................................................................
   1   -906.6411127 -0.906641E+03  0.447E-02    6.18       0.0  T
   2   -906.6411417 -0.289951E-04  0.269E-02    6.19       1.0  T
   3   -906.6411503 -0.864230E-05  0.379E-03    6.20       1.1  T
   4   -906.6411512 -0.894441E-06  0.865E-04    6.20       5.0  T
   5   -906.6411512 -0.975513E-08  0.109E-04    6.20      40.0  T
     SCC iter.                  ...        0 min,  1.344 sec
     gradient                   ...        0 min,  4.954 sec
 * total energy  :  -901.1537924 Eh     change       -0.2661705E-02 Eh
   gradient norm :     0.0298872 Eh/a0  converged?    E=F G=F D=F
   step length   :     0.3683329 a0

........................................................................
.............................. CYCLE    7 ..............................
........................................................................
   1   -906.6150385 -0.906615E+03  0.627E-02    6.25       0.0  T
   2   -906.6152275 -0.188953E-03  0.356E-02    6.32       1.0  T
   3   -906.6152559 -0.284117E-04  0.948E-03    6.37       1.0  T
   4   -906.6152594 -0.354850E-05  0.163E-03    6.37       2.7  T
   5   -906.6152595 -0.521828E-07  0.394E-04    6.37      11.0  T
   6   -906.6152595 -0.470709E-08  0.879E-05    6.37      49.4  T
     SCC iter.                  ...        0 min,  1.599 sec
     gradient                   ...        0 min,  4.986 sec
 * total energy  :  -901.1511376 Eh     change        0.2654779E-02 Eh
   gradient norm :     0.0728805 Eh/a0  converged?    E=F G=F D=F
   step length   :     1.0829316 a0

........................................................................
.............................. CYCLE    8 ..............................
........................................................................
   1   -906.6323948 -0.906632E+03  0.445E-02    6.36       0.0  T
   2   -906.6324785 -0.837711E-04  0.257E-02    6.31       1.0  T
   3   -906.6324931 -0.145978E-04  0.628E-03    6.27       1.0  T
   4   -906.6324949 -0.179316E-05  0.119E-03    6.27       3.6  T
   5   -906.6324949 -0.191818E-07  0.189E-04    6.27      23.0  T
   6   -906.6324949 -0.117006E-08  0.581E-05    6.27      74.6  T
     SCC iter.                  ...        0 min,  1.569 sec
     gradient                   ...        0 min,  5.015 sec
 * total energy  :  -901.1559481 Eh     change       -0.4810479E-02 Eh
   gradient norm :     0.0297987 Eh/a0  converged?    E=F G=F D=F
   step length   :     0.4300536 a0

........................................................................
.............................. CYCLE    9 ..............................
........................................................................
   1   -906.6359683 -0.906636E+03  0.199E-02    6.26       0.0  T
   2   -906.6359863 -0.179472E-04  0.114E-02    6.28       1.0  T
   3   -906.6359891 -0.285312E-05  0.281E-03    6.28       1.5  T
   4   -906.6359894 -0.335032E-06  0.483E-04    6.28       9.0  T
   5   -906.6359895 -0.445493E-08  0.855E-05    6.28      50.7  T
     SCC iter.                  ...        0 min,  1.329 sec
     gradient                   ...        0 min,  5.002 sec
 * total energy  :  -901.1562855 Eh     change       -0.3373831E-03 Eh
   gradient norm :     0.0139049 Eh/a0  converged?    E=F G=F D=F
   step length   :     0.2288742 a0

........................................................................
.............................. CYCLE   10 ..............................
........................................................................
   1   -906.6343827 -0.906634E+03  0.172E-02    6.31       0.0  T
   2   -906.6343922 -0.957234E-05  0.101E-02    6.31       1.0  T
   3   -906.6343939 -0.171788E-05  0.213E-03    6.32       2.0  T
   4   -906.6343942 -0.252414E-06  0.394E-04    6.32      11.0  T
   5   -906.6343942 -0.376531E-08  0.655E-05    6.32      66.3  T
     SCC iter.                  ...        0 min,  1.319 sec
     gradient                   ...        0 min,  4.982 sec
 * total energy  :  -901.1574656 Eh     change       -0.1180109E-02 Eh
   gradient norm :     0.0121965 Eh/a0  converged?    E=F G=F D=F
   step length   :     0.4555218 a0

........................................................................
.............................. CYCLE   11 ..............................
........................................................................
   1   -906.6334887 -0.906633E+03  0.167E-02    6.34       0.0  T
   2   -906.6334984 -0.976904E-05  0.990E-03    6.34       1.0  T
   3   -906.6335003 -0.182553E-05  0.216E-03    6.34       2.0  T
   4   -906.6335005 -0.259179E-06  0.407E-04    6.34      10.7  T
   5   -906.6335005 -0.450927E-08  0.741E-05    6.34      58.6  T
     SCC iter.                  ...        0 min,  1.316 sec
     gradient                   ...        0 min,  4.920 sec
 * total energy  :  -901.1579051 Eh     change       -0.4395562E-03 Eh
   gradient norm :     0.0163931 Eh/a0  converged?    E=F G=F D=F
   step length   :     0.4177744 a0

........................................................................
.............................. CYCLE   12 ..............................
........................................................................
   1   -906.6368838 -0.906637E+03  0.603E-03    6.34       0.0  T
   2   -906.6368848 -0.996292E-06  0.348E-03    6.33       1.2  T
   3   -906.6368850 -0.191727E-06  0.671E-04    6.33       6.5  T
   4   -906.6368850 -0.245491E-07  0.148E-04    6.33      29.4  T
     SCC iter.                  ...        0 min,  1.071 sec
     gradient                   ...        0 min,  4.921 sec
 * total energy  :  -901.1581330 Eh     change       -0.2278741E-03 Eh
   gradient norm :     0.0070461 Eh/a0  converged?    E=F G=F D=F
   step length   :     0.0985851 a0

........................................................................
.............................. CYCLE   13 ..............................
........................................................................
   1   -906.6378635 -0.906638E+03  0.855E-03    6.33       0.0  T
   2   -906.6378644 -0.873294E-06  0.516E-03    6.33       1.0  T
   3   -906.6378646 -0.236226E-06  0.616E-04    6.33       7.0  T
   4   -906.6378646 -0.309436E-07  0.171E-04    6.33      25.3  T
     SCC iter.                  ...        0 min,  1.061 sec
     gradient                   ...        0 min,  4.916 sec
 * total energy  :  -901.1583354 Eh     change       -0.2023408E-03 Eh
   gradient norm :     0.0054249 Eh/a0  converged?    E=F G=F D=F
   step length   :     0.1294260 a0

........................................................................
.............................. CYCLE   14 ..............................
........................................................................
   1   -906.6378120 -0.906638E+03  0.137E-02    6.32       0.0  T
   2   -906.6378126 -0.583918E-06  0.830E-03    6.32       1.0  T
   3   -906.6378128 -0.199465E-06  0.490E-04    6.32       8.9  T
   4   -906.6378128 -0.194158E-07  0.154E-04    6.32      28.1  T
     SCC iter.                  ...        0 min,  1.064 sec
     gradient                   ...        0 min,  4.909 sec
 * total energy  :  -901.1585269 Eh     change       -0.1914946E-03 Eh
   gradient norm :     0.0044918 Eh/a0  converged?    E=F G=F D=F
   step length   :     0.1815966 a0

........................................................................
.............................. CYCLE   15 ..............................
........................................................................
   1   -906.6367716 -0.906637E+03  0.200E-02    6.31       0.0  T
   2   -906.6367720 -0.382030E-06  0.120E-02    6.30       1.0  T
   3   -906.6367722 -0.168300E-06  0.388E-04    6.30      11.2  T
   4   -906.6367722 -0.759042E-08  0.120E-04    6.30      36.1  T
     SCC iter.                  ...        0 min,  1.062 sec
     gradient                   ...        0 min,  4.897 sec
 * total energy  :  -901.1586596 Eh     change       -0.1327116E-03 Eh
   gradient norm :     0.0085371 Eh/a0  converged?    E=F G=F D=F
   step length   :     0.2787884 a0

........................................................................
.............................. CYCLE   16 ..............................
........................................................................
   1   -906.6387778 -0.906639E+03  0.484E-03    6.30       0.0  T
   2   -906.6387785 -0.711988E-06  0.275E-03    6.30       1.6  T
   3   -906.6387786 -0.115891E-06  0.577E-04    6.30       7.5  T
   4   -906.6387786 -0.156618E-07  0.104E-04    6.30      41.6  T
     SCC iter.                  ...        0 min,  1.070 sec
     gradient                   ...        0 min,  4.879 sec
 * total energy  :  -901.1587389 Eh     change       -0.7936231E-04 Eh
   gradient norm :     0.0045908 Eh/a0  converged?    E=F G=F D=F
   step length   :     0.0903023 a0

........................................................................
.............................. CYCLE   17 ..............................
........................................................................
   1   -906.6388325 -0.906639E+03  0.924E-03    6.30       0.0  T
   2   -906.6388330 -0.517040E-06  0.557E-03    6.30       1.0  T
   3   -906.6388331 -0.956313E-07  0.429E-04    6.29      10.1  T
   4   -906.6388331 -0.207289E-07  0.995E-05    6.30      43.6  T
     SCC iter.                  ...        0 min,  1.064 sec
     gradient                   ...        0 min,  4.810 sec
 * total energy  :  -901.1588240 Eh     change       -0.8505539E-04 Eh
   gradient norm :     0.0050924 Eh/a0  converged?    E=F G=F D=F
   step length   :     0.1389135 a0

........................................................................
.............................. CYCLE   18 ..............................
........................................................................
   1   -906.6376629 -0.906638E+03  0.150E-02    6.30       0.0  T
   2   -906.6376639 -0.997468E-06  0.905E-03    6.30       1.0  T
   3   -906.6376641 -0.192284E-06  0.586E-04    6.30       7.4  T
   4   -906.6376641 -0.401362E-07  0.136E-04    6.30      31.9  T
     SCC iter.                  ...        0 min,  1.061 sec
     gradient                   ...        0 min,  4.817 sec
 * total energy  :  -901.1588669 Eh     change       -0.4293032E-04 Eh
   gradient norm :     0.0103268 Eh/a0  converged?    E=F G=F D=F
   step length   :     0.2097250 a0

........................................................................
.............................. CYCLE   19 ..............................
........................................................................
   1   -906.6386709 -0.906639E+03  0.421E-03    6.30       0.0  T
   2   -906.6386711 -0.257250E-06  0.255E-03    6.30       1.7  T
   3   -906.6386712 -0.129665E-06  0.365E-04    6.31      11.9  T
   4   -906.6386713 -0.625482E-08  0.119E-04    6.31      36.6  T
     SCC iter.                  ...        0 min,  1.065 sec
     gradient                   ...        0 min,  4.821 sec
 * total energy  :  -901.1589537 Eh     change       -0.8681686E-04 Eh
   gradient norm :     0.0064928 Eh/a0  converged?    E=F G=F D=F
   step length   :     0.0541880 a0

........................................................................
.............................. CYCLE   20 ..............................
........................................................................
   1   -906.6393401 -0.906639E+03  0.493E-03    6.31       0.0  T
   2   -906.6393403 -0.235552E-06  0.301E-03    6.31       1.4  T
   3   -906.6393404 -0.796407E-07  0.321E-04    6.31      13.5  T
   4   -906.6393404 -0.719092E-08  0.965E-05    6.31      45.0  T
     SCC iter.                  ...        0 min,  1.041 sec
     gradient                   ...        0 min,  4.866 sec
 * total energy  :  -901.1590163 Eh     change       -0.6251997E-04 Eh
   gradient norm :     0.0032635 Eh/a0  converged?    E=F G=F D=F
   step length   :     0.0620667 a0
 * RMSD in coord.:     0.2132869 a0     energy gain  -0.1921208E-01 Eh
 * calculating model hessian...
Using Lindh-Hessian (1995)
 Shifting diagonal of input Hessian by   1.000010103688908E-002
 Lowest  eigenvalues of input Hessian
    0.010000    0.010000   -0.000000   -0.000000   -0.000000   -0.000000
   -0.000000   -0.000000   -0.000000   -0.000000   -0.000000   -0.000000
   -0.000000   -0.000000   -0.000000   -0.000000   -0.000000   -0.000000
 Highest eigenvalues
    0.285972    0.311372    1.197069    1.217569    1.363972    1.436314
 

........................................................................
.............................. CYCLE   21 ..............................
........................................................................
   1   -906.6391383 -0.906639E+03  0.103E-02    6.32       0.0  T
   2   -906.6391390 -0.729582E-06  0.633E-03    6.32       1.0  T
   3   -906.6391393 -0.328688E-06  0.494E-04    6.32       8.8  T
   4   -906.6391394 -0.149405E-07  0.145E-04    6.32      30.0  T
     SCC iter.                  ...        0 min,  1.049 sec
     gradient                   ...        0 min,  4.782 sec
 * total energy  :  -901.1593062 Eh     change       -0.2899703E-03 Eh
   gradient norm :     0.0022303 Eh/a0  converged?    E=F G=F D=F
   step length   :     0.1505246 a0

........................................................................
.............................. CYCLE   22 ..............................
........................................................................
   1   -906.6372156 -0.906637E+03  0.198E-02    6.34       0.0  T
   2   -906.6372182 -0.261049E-05  0.123E-02    6.34       1.0  T
   3   -906.6372195 -0.132815E-05  0.900E-04    6.34       4.8  T
   4   -906.6372196 -0.390892E-07  0.272E-04    6.34      16.0  T
   5   -906.6372196 -0.114687E-08  0.315E-05    6.34     137.7  T
     SCC iter.                  ...        0 min,  1.307 sec
     gradient                   ...        0 min,  4.794 sec
 * total energy  :  -901.1595805 Eh     change       -0.2742865E-03 Eh
   gradient norm :     0.0122546 Eh/a0  converged?    E=F G=F D=F
   step length   :     0.3560136 a0

........................................................................
.............................. CYCLE   23 ..............................
........................................................................
   1   -906.6395457 -0.906640E+03  0.915E-03    6.34       0.0  T
   2   -906.6395473 -0.159901E-05  0.542E-03    6.35       1.0  T
   3   -906.6395476 -0.341344E-06  0.932E-04    6.35       4.7  T
   4   -906.6395477 -0.479934E-07  0.160E-04    6.35      27.0  T
     SCC iter.                  ...        0 min,  1.046 sec
     gradient                   ...        0 min,  4.803 sec
 * total energy  :  -901.1598263 Eh     change       -0.2457805E-03 Eh
   gradient norm :     0.0055598 Eh/a0  converged?    E=F G=F D=F
   step length   :     0.2304418 a0

........................................................................
.............................. CYCLE   24 ..............................
........................................................................
   1   -906.6409886 -0.906641E+03  0.157E-02    6.35       0.0  T
   2   -906.6409920 -0.340527E-05  0.937E-03    6.36       1.0  T
   3   -906.6409927 -0.669141E-06  0.131E-03    6.36       3.3  T
   4   -906.6409928 -0.121736E-06  0.269E-04    6.36      16.2  T
   5   -906.6409928 -0.183775E-08  0.406E-05    6.36     106.9  T
     SCC iter.                  ...        0 min,  1.309 sec
     gradient                   ...        0 min,  4.823 sec
 * total energy  :  -901.1601968 Eh     change       -0.3704948E-03 Eh
   gradient norm :     0.0088597 Eh/a0  converged?    E=F G=F D=F
   step length   :     0.6207830 a0

........................................................................
.............................. CYCLE   25 ..............................
........................................................................
   1   -906.6401231 -0.906640E+03  0.869E-03    6.35       0.0  T
   2   -906.6401239 -0.849229E-06  0.524E-03    6.35       1.0  T
   3   -906.6401241 -0.188409E-06  0.620E-04    6.35       7.0  T
   4   -906.6401241 -0.321248E-07  0.144E-04    6.35      30.2  T
     SCC iter.                  ...        0 min,  1.058 sec
     gradient                   ...        0 min,  4.825 sec
 * total energy  :  -901.1603324 Eh     change       -0.1356074E-03 Eh
   gradient norm :     0.0057919 Eh/a0  converged?    E=F G=F D=F
   step length   :     0.2560823 a0

........................................................................
.............................. CYCLE   26 ..............................
........................................................................
   1   -906.6401278 -0.906640E+03  0.529E-03    6.35       0.0  T
   2   -906.6401285 -0.691185E-06  0.316E-03    6.34       1.4  T
   3   -906.6401287 -0.130832E-06  0.558E-04    6.34       7.8  T
   4   -906.6401287 -0.218179E-07  0.116E-04    6.34      37.5  T
     SCC iter.                  ...        0 min,  1.059 sec
     gradient                   ...        0 min,  4.816 sec
 * total energy  :  -901.1604402 Eh     change       -0.1078452E-03 Eh
   gradient norm :     0.0031774 Eh/a0  converged?    E=F G=F D=F
   step length   :     0.1129776 a0

........................................................................
.............................. CYCLE   27 ..............................
........................................................................
   1   -906.6394206 -0.906639E+03  0.583E-03    6.34       0.0  T
   2   -906.6394209 -0.259000E-06  0.353E-03    6.34       1.2  T
   3   -906.6394210 -0.886772E-07  0.336E-04    6.34      12.9  T
   4   -906.6394210 -0.920863E-08  0.112E-04    6.34      38.9  T
     SCC iter.                  ...        0 min,  1.057 sec
     gradient                   ...        0 min,  4.789 sec
 * total energy  :  -901.1604763 Eh     change       -0.3606931E-04 Eh
   gradient norm :     0.0050367 Eh/a0  converged?    E=F G=F D=F
   step length   :     0.1071558 a0

........................................................................
.............................. CYCLE   28 ..............................
........................................................................
   1   -906.6399857 -0.906640E+03  0.336E-03    6.34       0.0  T
   2   -906.6399859 -0.200884E-06  0.204E-03    6.34       2.1  T
   3   -906.6399860 -0.474403E-07  0.285E-04    6.33      15.2  T
   4   -906.6399860 -0.663977E-08  0.705E-05    6.33      61.5  T
     SCC iter.                  ...        0 min,  1.040 sec
     gradient                   ...        0 min,  4.782 sec
 * total energy  :  -901.1604953 Eh     change       -0.1894437E-04 Eh
   gradient norm :     0.0027603 Eh/a0  converged?    E=F G=F D=F
   step length   :     0.0384247 a0

........................................................................
.............................. CYCLE   29 ..............................
........................................................................
   1   -906.6402196 -0.906640E+03  0.421E-03    6.33       0.0  T
   2   -906.6402199 -0.298133E-06  0.253E-03    6.33       1.7  T
   3   -906.6402199 -0.618728E-07  0.348E-04    6.33      12.5  T
   4   -906.6402200 -0.107498E-07  0.907E-05    6.33      47.8  T
     SCC iter.                  ...        0 min,  1.046 sec
     gradient                   ...        0 min,  4.745 sec
 * total energy  :  -901.1605271 Eh     change       -0.3181491E-04 Eh
   gradient norm :     0.0032435 Eh/a0  converged?    E=F G=F D=F
   step length   :     0.0535787 a0

........................................................................
.............................. CYCLE   30 ..............................
........................................................................
   1   -906.6396599 -0.906640E+03  0.108E-02    6.33       0.0  T
   2   -906.6396605 -0.661767E-06  0.653E-03    6.33       1.0  T
   3   -906.6396607 -0.142200E-06  0.476E-04    6.32       9.1  T
   4   -906.6396607 -0.264059E-07  0.130E-04    6.33      33.3  T
     SCC iter.                  ...        0 min,  1.049 sec
     gradient                   ...        0 min,  4.746 sec
 * total energy  :  -901.1605510 Eh     change       -0.2395867E-04 Eh
   gradient norm :     0.0064497 Eh/a0  converged?    E=F G=F D=F
   step length   :     0.1504734 a0

........................................................................
.............................. CYCLE   31 ..............................
........................................................................
   1   -906.6406770 -0.906641E+03  0.297E-03    6.33       0.0  T
   2   -906.6406771 -0.128931E-06  0.177E-03    6.33       2.5  T
   3   -906.6406772 -0.296492E-07  0.230E-04    6.33      18.9  T
   4   -906.6406772 -0.436557E-08  0.636E-05    6.33      68.2  T
     SCC iter.                  ...        0 min,  1.046 sec
     gradient                   ...        0 min,  4.754 sec
 * total energy  :  -901.1605782 Eh     change       -0.2721997E-04 Eh
   gradient norm :     0.0026661 Eh/a0  converged?    E=F G=F D=F
   step length   :     0.0511073 a0

........................................................................
.............................. CYCLE   32 ..............................
........................................................................
   1   -906.6406760 -0.906641E+03  0.318E-03    6.33       0.0  T
   2   -906.6406761 -0.491365E-07  0.191E-03    6.33       2.3  T
   3   -906.6406761 -0.876707E-08  0.128E-04    6.33      33.9  T
   4   -906.6406761 -0.208945E-08  0.316E-05    6.33     137.4  T
     SCC iter.                  ...        0 min,  1.044 sec
     gradient                   ...        0 min,  4.760 sec
 * total energy  :  -901.1605957 Eh     change       -0.1742988E-04 Eh
   gradient norm :     0.0021707 Eh/a0  converged?    E=F G=F D=F
   step length   :     0.0427253 a0

........................................................................
.............................. CYCLE   33 ..............................
........................................................................
   1   -906.6400338 -0.906640E+03  0.977E-03    6.33       0.0  T
   2   -906.6400342 -0.402566E-06  0.589E-03    6.34       1.0  T
   3   -906.6400343 -0.965991E-07  0.380E-04    6.34      11.4  T
   4   -906.6400343 -0.163275E-07  0.115E-04    6.34      37.7  T
     SCC iter.                  ...        0 min,  1.042 sec
     gradient                   ...        0 min,  4.762 sec
 * total energy  :  -901.1606171 Eh     change       -0.2141708E-04 Eh
   gradient norm :     0.0030136 Eh/a0  converged?    E=F G=F D=F
   step length   :     0.1336263 a0

........................................................................
.............................. CYCLE   34 ..............................
........................................................................
   1   -906.6405326 -0.906641E+03  0.159E-03    6.34       0.0  T
   2   -906.6405326 -0.325909E-07  0.945E-04    6.34       4.6  T
   3   -906.6405327 -0.639795E-08  0.111E-04    6.34      39.0  T
     SCC iter.                  ...        0 min,  0.789 sec
     gradient                   ...        0 min,  4.768 sec
 * total energy  :  -901.1606236 Eh     change       -0.6496501E-05 Eh
   gradient norm :     0.0008181 Eh/a0  converged?    E=F G=F D=F
   step length   :     0.0221665 a0

........................................................................
.............................. CYCLE   35 ..............................
........................................................................
   1   -906.6405251 -0.906641E+03  0.294E-03    6.34       0.0  T
   2   -906.6405251 -0.278562E-07  0.179E-03    6.34       2.4  T
   3   -906.6405252 -0.181003E-07  0.118E-04    6.34      36.6  T
   4   -906.6405252 -0.423029E-09  0.339E-05    6.34     128.2  T
     SCC iter.                  ...        0 min,  1.045 sec
     gradient                   ...        0 min,  4.747 sec
 * total energy  :  -901.1606281 Eh     change       -0.4493411E-05 Eh
   gradient norm :     0.0012174 Eh/a0  converged?    E=F G=F D=F
   step length   :     0.0391252 a0

........................................................................
.............................. CYCLE   36 ..............................
........................................................................
   1   -906.6404898 -0.906640E+03  0.386E-03    6.34       0.0  T
   2   -906.6404898 -0.518974E-07  0.234E-03    6.34       1.9  T
   3   -906.6404899 -0.213089E-07  0.147E-04    6.34      29.6  T
   4   -906.6404899 -0.164266E-08  0.535E-05    6.34      81.0  T
     SCC iter.                  ...        0 min,  1.048 sec
     gradient                   ...        0 min,  4.749 sec
 * total energy  :  -901.1606299 Eh     change       -0.1817784E-05 Eh
   gradient norm :     0.0013746 Eh/a0  converged?    E=F G=F D=F
   step length   :     0.0533592 a0

........................................................................
.............................. CYCLE   37 ..............................
........................................................................
   1   -906.6406436 -0.906641E+03  0.195E-03    6.34       0.0  T
   2   -906.6406437 -0.425010E-07  0.121E-03    6.34       3.6  T
   3   -906.6406437 -0.229229E-07  0.131E-04    6.34      33.0  T
   4   -906.6406437 -0.758178E-09  0.422E-05    6.34     102.9  T
     SCC iter.                  ...        0 min,  1.053 sec
     gradient                   ...        0 min,  4.752 sec
 * total energy  :  -901.1606322 Eh     change       -0.2309752E-05 Eh
   gradient norm :     0.0010602 Eh/a0  converged?    E=F G=F D=F
   step length   :     0.0214321 a0

........................................................................
.............................. CYCLE   38 ..............................
........................................................................
   1   -906.6407084 -0.906641E+03  0.100E-03    6.34       0.0  T
   2   -906.6407084 -0.955822E-08  0.604E-04    6.34       7.2  T
   3   -906.6407084 -0.262037E-08  0.639E-05    6.34      67.9  T
     SCC iter.                  ...        0 min,  0.791 sec
     gradient                   ...        0 min,  4.750 sec
 * total energy  :  -901.1606332 Eh     change       -0.9521824E-06 Eh
   gradient norm :     0.0006049 Eh/a0  converged?    E=T G=T D=F
   step length   :     0.0129879 a0

   *** GEOMETRY OPTIMIZATION CONVERGED AFTER 38 CYCLES ***

------------------------------------------------------------------------
 total energy gain   :        -0.0208290 Eh      -13.0704 kcal/mol
 total RMSD          :         0.1959560 a0        0.1037 Å
 total power (kW/mol):        -1.4391184 (step)   -0.2144 (real)
------------------------------------------------------------------------

 L-ANCopt (total)              0 d,  0 h,  4 min, 15.014 sec
 setup                          ...        0 min,  0.019 sec (  0.007%)
 model hessian                  ...        0 min,  7.842 sec (  3.075%)
 ANC generation                 ...        0 min,  1.967 sec (  0.771%)
 coordinate transformation      ...        0 min,  0.003 sec (  0.001%)
 Rational function              ...        0 min,  0.000 sec (  0.000%)
 singlepoint calculation        ...        4 min,  4.991 sec ( 96.070%)
 optimization log               ...        0 min,  0.185 sec (  0.072%)
 hessian update                 ...        0 min,  0.001 sec (  0.000%)

================
 final structure:
================
$coord
        1.12962970649862       -5.41329267758014       -1.65672212067543      o
        1.15126143685798       -7.04096273827011       -2.49205739868692      h
        2.86073422448337       -5.15457318234014       -1.12597720336716      h
       -1.34846628689285      -10.12400405395249       -0.64647666360633      o
        0.07486637634374       -9.91471029386313        0.50676022454216      h
       -0.88624629278271      -11.36317191785622       -1.93458500389705      h
        5.93154683876570        8.14624248026045        0.27072105932862      o
        6.94015900645512        6.65869830309792        0.66020933288010      h
        4.23037107339003        7.83549234522969        1.01189637438274      h
        5.22030125160718       -1.52448138342136       -2.01976518114188      o
        5.07698693175106       -2.53216132548913       -3.54636320426904      h
        5.55461697787217        0.20474788901503       -2.52997924665181      h
      -11.18774138612985        2.13483944491317       11.19289016500807      o
      -11.34730486000178        3.96552420431078       10.94070198235679      h
       -9.52696326123385        1.85542762665231       11.88011259025002      h
        3.34594266994803       -9.56051222703711       -3.88561547882694      o
        4.29970033047174      -10.12552183497167       -5.35318958887108      h
        3.53580411429573      -10.90629355917409       -2.64560116434280      h
       -6.52900622430461       -7.30533379948983        5.16789105015471      o
       -7.15784956859311       -9.03085327986374        5.18451736985103      h
       -4.92970696000838       -7.26409398638910        4.28490324621967      h
        9.80815580869739       -5.70811072928440       10.04355098025279      o
        8.95173993171962       -5.78490336243937        8.41913529901072      h
        9.31325864475028       -4.14220503107004       10.84712332971310      h
       -2.17540217166570       -5.85253872360286        2.51772584955642      o
       -1.20995228442006       -5.84253009568100        0.95903303781434      h
       -0.98333205965740       -5.39043690369492        3.83282890255042      h
        1.37389385836543        3.10590495196355        6.50946836850039      o
       -0.21794140700400        3.74820154913659        5.85411744828272      h
        2.70178559732434        4.28964949665359        6.06550107500768      h
       -3.22138668184565       -1.64690120679061       -2.24977690367874      o
       -3.42451616439474       -3.45997486702313       -2.52133434701997      h
       -4.59666660902991       -0.82327793620598       -3.16936445095908      h
        5.59683917275780        5.61451394850263        5.48639314924713      o
        6.75528496424866        4.87520136995289        4.24487610465226      h
        5.79565689991966        7.42572430455389        5.38933102851015      h
       -1.67297102184638        6.56129967735232       -2.49408929665462      o
       -2.30849904378030        7.02536525265705       -0.81089079356968      h
       -3.11720520114569        6.83032471879091       -3.61608258487841      h
       -7.94680634991721        4.58594336007573        6.47505215964914      o
       -7.66930907083955        6.19475482128566        7.33399447020847      h
       -9.53088708309114        4.67605755111216        5.53114023115649      h
        0.56586471648429       -0.03859764438814      -11.21791727974058      o
       -0.34290023705888        0.54165986913288       -9.75524349893539      h
        1.71758854792772        1.31064328274316      -11.70728082608805      h
       -3.64109821102328       11.62547947109354       -7.76450979167261      o
       -4.07318907864653       10.07964142431070       -6.87858469371890      h
       -2.09663297209665       12.24274718513017       -7.00807370275206      h
       -6.77648892131189       -0.17384306479783       -5.38558189046141      o
       -8.20719864889819       -1.23073957694305       -4.96599744535525      h
       -7.39982414758306        1.56356861933278       -5.23801175715714      h
        0.55881332202459       -2.13472810717600       -5.62691441635214      o
       -0.87175677673774       -2.72534897965867       -6.60212677449528      h
        0.71587741884407       -3.28306443477922       -4.19715268055971      h
        5.48840556470601       -2.21114234897401        3.02260117262008      o
        6.78143219117217       -1.12594067874320        3.72331893985778      h
        5.55346145958722       -1.99160140649323        1.19666814632191      h
        6.96181088166884       -6.38197484260998        5.61548867916293      o
        6.60389830621192       -4.95110805517190        4.50611560387225      h
        7.57908993651817       -7.72117779494307        4.55618282387895      h
       -9.03459218825774       10.91038424345460       -7.92470722607922      o
       -7.43805689893026       11.78698259898856       -7.95575166325155      h
       -8.76524620483523        9.33888642966247       -8.82640260599859      h
        4.58351479974781        0.09463436694096       -7.41155175129814      o
        3.81884084493596        1.76145026639968       -7.32313792792199      h
        3.22213458662290       -1.05431374847797       -6.88434136795685      h
        8.71687060248976        4.13379134545622        1.87272934290534      o
       10.43130034329101        4.74674991495314        2.04630644427203      h
        8.94859604379097        2.30662419621024        1.48846659586212      h
       16.17492924280230       -2.43379910051325        0.70081588937032      o
       17.74012879181534       -3.14654775377214       -0.01156994085518      h
       16.37290686017002       -2.36738227016809        2.52332616144556      h
      -10.81995624415230        2.08098939361055       -0.37181763328175      o
      -11.51066798732126        0.49940554456199       -0.97105318036532      h
       -9.53667975736490        1.56052458924559        0.87461999066266      h
        5.78469339290968        3.44005244235222       -3.06509297243856      o
        5.75019574612892        4.42395298694372       -4.61726164140157      h
        7.45398362828388        3.77782830294015       -2.39667529685537      h
       -7.73875221301022       -4.63374829844243        9.32213607686153      o
       -6.90894918103678       -5.47490591451267        7.90290487784724      h
       -8.60213382222788       -3.17621349734357        8.59166193800459      h
       -3.46939784581950       -2.62495152323656      -13.08220307822789      o
       -3.63055626653278       -2.83675884334118      -11.24349591137023      h
       -1.85938497186793       -1.79592000797569      -13.29675730963917      h
      -12.67066651049827        4.28677503054299       -8.38831587925670      o
      -13.75320863598671        5.62750931814297       -7.72338388406896      h
      -13.71677917830513        2.84965496570978       -8.81256021885668      h
       14.76405394366166       -5.19490273145964        9.79988749762316      o
       12.90842913469032       -5.49460720005237        9.79385968644983      h
       15.48351147553235       -6.54235999804749       10.76502598694443      h
       11.29378722717505       -8.62312542606245       -7.01399522628966      o
       10.95146843384788       -6.96492677671073       -7.74397422481816      h
       12.46539894117763       -9.44375981216615       -8.12193163780258      h
      -16.69872314127765       -4.56929686226407        0.03193666994948      o
      -14.87931478707181       -4.33173853766896       -0.25430068574796      h
      -16.90879239822187       -5.44237702542340        1.62681754314070      h
       -5.06284704013890        3.11175471145496       -0.94571636789540      o
       -5.67170096216905        2.12696871781710        0.45884426723082      h
       -6.33178753920782        4.37142903003808       -1.24970730507190      h
       -0.43012455070167      -13.68550322929531       -4.17041071606057      o
        1.03073720590326      -14.32411480455518       -3.26455678121998      h
        0.18477795587885      -13.08416269739286       -5.78872350769584      h
        1.78279994816990       -4.75858002798465        5.52848622123292      o
        2.98710621200892       -3.87882649095769        4.45515861452522      h
        1.97502760832862       -3.97706009683794        7.16392642344390      h
       11.57929307430791      -11.20774168470373       -2.44604476390592      o
       13.15502137601277      -10.99682191993713       -1.53052550822024      h
       11.60217253269677      -10.03192745376220       -3.85207179367489      h
        3.91219897903333       -0.91982651144202        8.42076649646681      o
        3.01313669619893        0.41591525569310        7.53261006850458      h
        5.57116844438884       -0.97819623730628        7.65621195929743      h
      -11.96990283161426       -2.99318553295403       -0.27250727421638      o
      -11.21924227828709       -3.76569397237561        1.22897312461920      h
      -10.85977997372752       -3.42972614563973       -1.68102111984111      h
       10.75828058050039        4.65735000064037       -3.08897023711749      o
       11.86405655998820        4.38318469996198       -1.67289586177557      h
       11.30840428177102        6.21782906657855       -3.87672149763207      h
       -3.06939152959874        3.92414768918860       -8.06849272396962      o
       -4.20385474746292        2.87545621971696       -9.10374035668070      h
       -4.14832411600535        5.10799144033525       -7.19886078815928      h
        6.10930907008350       -6.34708550514728       -0.17330621047525      o
        7.32045817804032       -7.64497409355751        0.31714816713787      h
        7.06489176235591       -4.97364133674179       -0.88863522007713      h
        0.65966285361653       -4.39169780727132       11.57531290195552      o
        1.09516969153158       -2.72772395680844       10.94226345024686      h
       -0.94068410555014       -4.12595945354869       12.45618144513596      h
        8.98541970246307       -0.63924109324094       11.59133355163275      o
        7.68159611034390        0.26784564571099       12.47922130232953      h
        8.68066879895868       -0.36527633179178        9.78727973703903      h
       -3.67253914142086       -2.13022487436427        6.91934029610363      o
       -3.33611704856693       -3.91857148358898        7.17528553343391      h
       -3.23301094532986       -1.71402834127801        5.18366073572314      h
        1.90145394002675        4.30688534480951       -7.12421143285611      o
        0.07986044865105        4.17868061356169       -7.28753418164609      h
        2.26659340029118        5.81071233314131       -6.11050302917434      h
       -1.15372799069248       11.64265071178539       -0.59841623579706      o
       -0.43032355301850       12.26490051802321       -2.17615696335735      h
       -0.62850629806085       12.75825071130134        0.77358606754912      h
       -8.14586331430933       -8.87743391959075       -0.26412073716190      o
       -7.08099013627294      -10.15831932063604        0.56626476542251      h
       -9.84872195245047       -9.15557316389585        0.39103692059579      h
      -10.19145140836233       -0.68578981190572        7.03825774070390      o
      -11.71304847774516       -0.78373008054017        6.01359076824319      h
      -10.59640444961682        0.40627090835373        8.46821359670715      h
       14.89995354259834        3.46155822096607       -6.30597442244920      o
       13.51399228984421        4.16902706533501       -7.26087760913870      h
       15.60900197903437        2.15532192577686       -7.36676576521776      h
       -6.11412689011004        1.53378671335902      -11.22283662189102      o
       -7.65186024603493        0.63592808239738      -10.67526103975162      h
       -5.28028493382269        0.36139342854368      -12.36179539007414      h
      -14.11820205066999       -0.24417505336444        3.73311466936572      o
      -15.86165873416429       -0.61018569694437        4.15751847122102      h
      -13.70916449697750       -1.09028742467187        2.16979651355530      h
        4.33285650898899        2.21007495749243       12.50900793601890      o
        3.99206916185247        0.98126304425770       11.16530760694408      h
        2.96678721738717        2.04212177692566       13.72055796596539      h
      -14.42223790965611        6.51781941461458       -0.27192258922575      o
      -14.61648091888891        8.28707444836258        0.26060319882200      h
      -13.67869543732911        5.65545199334434        1.18347681890360      h
       -7.44855869411386        0.39715288559487        2.87992623757001      o
       -8.21951903980158        0.17340152655115        4.53596982682107      h
       -7.22622109423207       -1.31112693032190        2.20371658336189      h
       13.95390347631124       -0.04440257107661        9.98793231780119      o
       12.33495954625971       -0.02563259747762       10.84549069833532      h
       14.52899846452123       -1.77703792713895       10.12061162794585      h
       17.39502472215054        2.14835740655318       -1.00518415813875      o
       16.53995847100505        0.56483272183653       -0.54240234359282      h
       19.10587073034816        1.97405880385002       -0.33289914706544      h
      -16.47758709586439        5.08498455318909        6.86174068912063      o
      -16.81678416604692        6.79115669936362        7.35937274742306      h
      -17.69505265872594        4.61702616170623        5.52717304934868      h
        3.55847177257752        4.05916485602536      -12.04312412574178      o
        2.19789899248596        5.07641360344936      -12.73572693694405      h
        3.42155465807379        4.35341876689873      -10.22385521025498      h
       -5.80487030621729      -10.19085436210598       10.63413870089652      o
       -7.54099212728920       -9.70908201629767       10.85353148054813      h
       -4.86623258244289       -8.69604918964334       10.12468439346807      h
        5.62246337002392       12.88841282635455        2.31087429305043      o
        6.35613018084055       12.78479113936111        3.96886981424641      h
        5.84902908942103       11.22164409899161        1.55105125170993      h
       -9.21426062355633        4.12670090661051       -4.71336118562617      o
      -10.51639550252101        4.12469627266298       -6.02190840966982      h
       -9.98294135844190        3.48960325543757       -3.15113738844156      h
      -13.52681145954707       10.03566757970403        6.51729483311644      o
      -11.91126115018738       10.09727705891988        5.56977324063497      h
      -13.64693355965418       11.61960410449244        7.38533190844096      h
      -11.56252778945968       13.16410971004343        0.01573903874557      o
      -11.26949906502012       11.99532089436132       -1.38354635798144      h
      -10.53605594125545       12.52768965091115        1.39866109193514      h
       -8.76619223414919        6.90779991453072        0.29128497414945      o
       -9.88228997878733        5.49862607512598        0.60835611095572      h
       -9.48682225196140        7.84825841609287       -1.13664692016296      h
       10.12879839432284       -0.45632772674303        1.06620189915201      o
       11.09977455966396       -0.35894845254690       -0.49643731251723      h
       11.40352779312680       -0.45047787314201        2.39044857539799      h
        7.15604692499445       10.42136432563155        7.02690780665494      o
        8.72324133920595       10.00374121953042        6.13280802466857      h
        7.35940595160894        9.72966495121130        8.69945979840826      h
        9.70176521587419       -4.30695693027268       -3.90491944816385      o
        8.18138974168983       -4.91326705648706       -4.75380697046627      h
        9.74984332489998       -2.49315415481054       -4.27422336175161      h
        1.39373452763294        7.82855016955997        2.08091929460504      o
        1.42823626850473        8.40691599843052        3.83037306554143      h
        0.35527958155392        9.03447070552553        1.16244580842393      h
       -0.35005912990342        1.64371501035485       14.92923471654767      o
       -0.76129444772457        0.26774490385230       16.02839803074732      h
       -0.69894522924116        1.05383218942633       13.20139599573786      h
       -6.69816535370471       -4.10954428899754        0.95935081771967      o
       -4.98853565948799       -4.44564757204401        1.52824771155114      h
       -7.35988047521203       -5.77511450208658        0.55342762064297      h
       10.52305278594140       -3.96240408043944       -9.26133119854741      o
       10.93190179147212       -3.33855830067178      -10.91263951043518      h
       10.11276935029323       -2.47124769533719       -8.26069567652949      h
      -11.08347200728210       -5.31217953545496        4.06555429668286      o
      -11.95958724662509       -4.98135074625096        5.65042702023777      h
       -9.35669765401405       -5.83983885059597        4.45830127904585      h
        5.14744284760092       -5.13525850430337       -5.75491806375151      o
        4.16722113399201       -4.97171498261302       -7.30480239098018      h
        4.50680994247605       -6.62230445352081       -4.89460116559154      h
        6.86874616059607       -0.41920470486514      -11.92086023726783      o
        6.01426709605782        0.85334370509422      -12.88961445905725      h
        6.00464146796455       -0.45179414228785      -10.28358064706020      h
      -18.70895319141106        2.53441315278755       -7.06457369615628      o
      -17.30886206334741        2.74001203887696       -5.84655997765292      h
      -17.98072322930055        1.59854680074413       -8.45526610931761      h
       13.24540918368262       -0.11106302130252       -2.85837422133010      o
       14.04013978170547       -1.62536686383695       -3.51131984394059      h
       13.74928280289251        1.27463608432394       -3.94560375005591      h
       12.24608034649884       -5.41714049503891        0.29718801106719      o
       11.21024215893193       -5.08410753005539       -1.18656645204421      h
       13.63885556193393       -4.18113730680747        0.23090008176105      h
      -19.50065255695157       -4.90339881914086       -4.31555923775270      o
      -20.44578011779839       -3.33581217001000       -4.29381989127844      h
      -18.74104453638158       -5.07889335890997       -2.65528554779910      h
       -0.74715718226304        0.37388638582158       10.14336396314374      o
       -0.09397935599136        1.74712352624459        9.12216958944976      h
       -1.85406654246542       -0.58995991418660        9.01285058942307      h
        9.42666460289727        0.21765194520938       -6.18453940330005      o
        9.89991067076490        1.70528364219740       -5.23555305399816      h
        7.61730726807941        0.32444914526398       -6.52974273081998      h
        1.47964209629949        6.53372265580871       10.57409557168142      o
       -0.26394317114025        6.10365174554214       10.96243787025191      h
        2.51113723443007        5.18780491040047       11.25023805633799      h
       10.92044750732618        5.72761849536102       -9.36522019275818      o
       10.29100592531081        6.49471299295846      -10.92036637798848      h
        9.36782826061111        5.72488418625533       -8.32017667973937      h
        2.54994966525922       -8.96104784529219        2.50610310220170      o
        2.13616089455511       -7.89223490234648        3.93449683930188      h
        3.72718714349194       -8.00864449220600        1.47216700562682      h
      -15.16443364062847        2.72921237772098       -3.55564758092776      o
      -14.63836561835621        4.27142372935492       -2.70737956597011      h
      -16.09697460676882        1.77023801343926       -2.27260539407775      h
      -15.07913387397055        8.26579197375152       -6.33385063409509      o
      -14.88236274835370        9.70448010502139       -7.41519089595885      h
      -16.92007600761236        8.06626738420338       -6.03157406442589      h
        0.96741078235402       12.60726642165181       -5.23705202468366      o
        2.27865937908881       13.76446664866129       -4.65743449066837      h
        1.71237468008366       10.92408410331437       -4.96829066729012      h
       13.68208957467286        0.34179263712021        4.73097591873321      o
       13.92825077045117        2.01229350992951        4.01515555562752      h
       13.86730518446733        0.45971624479923        6.55464420277733      h
       19.31687068601560       -0.49515233799070       -5.06302870913523      o
       18.06545451707152       -0.98240320020623       -6.28654579223578      h
       18.53317587683137        0.74448134864993       -3.94972533079199      h
       11.17008227696772        8.76505210976013        4.46353046274062      o
       11.23795496654613        8.97195528299913        2.62070863135620      h
       12.88848632856916        9.08231501538786        5.00377804386415      h
       13.95425791652506        4.60418373004087        1.84810478515248      o
       14.76796436131844        5.94625688280671        2.80056359092209      h
       15.26304265379965        3.84517443814682        0.77430910107481      h
        3.85693492857348      -13.91859071268496       -1.26053947234783      o
        5.34130472821008      -14.44618103374322       -2.23528062317028      h
        4.28677707314903      -14.10254080853699        0.50176539426462      h
       11.65985126760896       -4.29016387797882        5.17234277791650      o
       13.31624092085825       -3.56040508467840        5.39425380826121      h
       11.49562307099139       -4.61746171027723        3.36072950753924      h
        5.34261823854587      -12.98377739474366        3.72449834465494      o
        4.09266294568332      -11.62012843994782        3.58568542665656      h
        6.15214483328404      -12.79405762654975        5.37821982978009      h
      -18.12018624893362        0.21598247759212       -0.33166169215213      o
      -17.63729288008291       -1.56670707921269       -0.10359833924115      h
      -19.58652666537462        0.18013711284576       -1.43979403952498      h
      -14.27344772958951       -4.58028389674308        8.00669390706511      o
      -14.69552585385147       -2.88384312829345        8.54362706704443      h
      -15.68611456244353       -5.20045616548242        7.01934396992334      h
      -12.79309139909109       -9.36946829140040        1.68322739529417      o
      -12.31671387598970      -10.66509007889234        2.87703486238183      h
      -12.46753849041117       -7.78369082658410        2.60459918062161      h
        1.01899726964909      -11.48845012897926       -8.74927500531528      o
        0.41997766400658      -10.43661202183881      -10.11035298134077      h
        2.83427708722951      -11.47397929854411       -8.84755845498679      h
       15.09467785671527       -9.40931685292123        1.04605004663414      o
       13.98993710122741       -7.92462854564101        0.76070282593003      h
       14.58799719530624      -10.01431741379032        2.70400448537957      h
      -10.12570777209758       -1.17170495383757       -9.92948184394609      o
       -9.50425895190583       -2.89395143925630       -9.97304788323670      h
      -10.59886897558654       -0.86601825577298       -8.16077295989423      h
       -5.50745697991873      -14.87267290378349       -2.99589717725628      o
       -5.53322178375377      -14.39275672730174       -1.22437158542903      h
       -3.75498574674165      -14.78572186624212       -3.50988797345474      h
       17.29221519987656       -3.33055259744297        5.65457579904751      o
       18.25514952040793       -4.72392571404067        4.89751516968221      h
       16.62090012824671       -3.99197459335147        7.22770289524485      h
        7.84690172306441      -11.63633983308694        7.92179005330209      o
        9.53410358789789      -10.99467445180842        7.62038166757061      h
        7.01385607102708      -10.46806182865631        9.04397526133156      h
       -9.79979962838886      -11.27013560900368        5.61653809273556      o
       -8.88207919648728      -12.73717223865548        6.15103732235234      h
      -10.35243420569513      -10.38580224120154        7.15365166976490      h
       -9.00609830399916       -5.03341008644043       -3.95144305766180      o
       -7.36083164306745       -5.56092266757561       -3.29158022304319      h
      -10.18712491236010       -6.43284534259936       -3.72020033476157      h
      -11.02227172233584       -8.41149980859033        9.66225840184397      o
      -12.66362653338606       -7.64199352273786        9.51142873410758      h
       -9.86009891638239       -6.95626178381298        9.70207565173908      h
       17.83433393717701       -7.98808556493949       -3.37591065288694      o
       17.02517193520431       -8.76864809496936       -1.94229016095667      h
       16.59860154894090       -6.85983818749175       -4.14593282542004      h
       11.08164459655717        4.31032645923024        7.12482095054463      o
       10.99137929471865        5.74713750058009        5.97998226945635      h
       10.00476264342552        4.77071550712365        8.55972673032130      h
      -15.68346197775054        0.51160978686285        9.32874950295332      o
      -14.32480041621444        0.74110038590724       10.53116583221927      h
      -15.87946566524821        2.17502469909421        8.57309611584560      h
       -3.87930427377004        7.75247801332187        1.83502539829456      o
       -5.58887787487244        7.59124831875815        1.19119120122423      h
       -3.55959275536416        6.24284425713762        2.89477170523033      h
      -21.64698837380057       -0.09354126574513       -4.03054802713835      o
      -20.66833241322637        0.85808517981305       -5.31531949048702      h
      -23.39123384307876        0.29560188376189       -4.29982716717632      h
      -18.17843332534748       -5.93028432155176        4.81917058076135      o
      -18.85675167466708       -4.22638085034270        5.02623021045836      h
      -19.53399785036052       -7.09753429484179        5.07983376950110      h
      -19.89004508508255        7.41881419488975       -5.56348146857730      o
      -19.95643356330221        5.73184554340236       -6.26901063038839      h
      -20.07226465078963        7.25544244474948       -3.73933547635776      h
       14.60040821633246       -4.46821176820796       -5.28151941411638      o
       12.80111443261904       -4.81128122115494       -5.05098949849122      h
       14.77838383418133       -3.62084447714171       -6.89190025285622      h
       -4.23016756162309      -12.66768175733764        6.54173764231823      o
       -2.43649307209199      -12.35604588734711        6.66585791819555      h
       -4.92695020643919      -11.98159697980962        8.11493948643998      h
       -4.11650437359962       -6.52710177304294       -3.13689712535978      o
       -3.83221897063397       -7.21307852495398       -4.82260619513448      h
       -3.33993465441189       -7.71972262678149       -1.97848126410268      h
       -6.11494565998364       11.23439454805634       -1.63761523784924      o
       -6.75706280424790       12.89288895955179       -1.95671130596157      h
       -4.34274713883336       11.39072827713631       -1.12090940075528      h
        6.64778054465128        6.63200123490023       -7.00369459035645      o
        7.15689324291861        8.00502370188589       -5.86843079783881      h
        5.45121149272292        7.45766195244159       -8.13805636905090      h
        6.62275400250909       -7.04619081817200      -11.30184466392240      o
        5.01500696231651       -6.14644017204999      -11.19965000877008      h
        7.86353615535178       -5.86199780126516      -10.66737638348247      h
       -5.18571230706340      -12.37334913276528        1.60437263952733      o
       -4.93946388078143      -12.63823399648722        3.41251487488375      h
       -3.63356353804729      -11.57307479350140        0.97201789491142      h
       11.68076879853007        1.01868378225602      -11.39273796818408      o
        9.93920400661803        0.43873671385695      -11.67260300395405      h
       11.49309854886817        2.72095277545012      -10.72256240564828      h
       20.36426838503967       -4.02457955676212       -1.55023951368851      o
       19.78536406175001       -5.60087057387923       -2.34475817573912      h
       20.30522424546400       -2.78513411233904       -2.92898049039521      h
       -7.98961393049977      -10.97217755256268       -4.89162188375442      o
       -7.31837142775098      -12.64860816373723       -4.44955477225174      h
       -7.85263050305770      -10.03717627851145       -3.29038085102393      h
      -15.70468169550616       10.90690969166068        1.71859473572233      o
      -14.42024533008207       12.07045961725623        1.03350871331814      h
      -15.23244652878758       10.62839092632181        3.46578856903162      h
      -15.24692636697714       -0.33291991024186       -9.72736297304392      o
      -13.65020153946305       -0.55886897917722      -10.59786581494530      h
      -15.45252349467845       -1.88313125719309       -8.77610491822592      h
       -4.17819254667599       -3.10305326990456       12.87157344553916      o
       -4.48454046627010       -1.33268365575716       12.60548453253652      h
       -5.40194033961238       -3.94081229945712       11.78343192902984      h
      -19.56025720058321        3.57992771836347        3.19741086172816      o
      -19.99312861818710        5.01955262779064        2.13595643924686      h
      -18.85738789871789        2.35769485691704        1.99693701804575      h
        3.24244275500293        9.40488880795715       -9.70786015407863      o
        1.75492581937383        8.58632125934330      -10.45303612026048      h
        2.62886241993903       10.84828917365061       -8.79362913988430      h
       16.25627102041497        8.21545001479372        4.92652834761984      o
       17.81074654757539        8.04866092224697        3.97777659436742      h
       16.47845395510645        7.21350583960903        6.44435223804927      h
        2.69623494743393        8.12045191152000       -3.93337703400149      o
        1.07878296660039        7.67269252858669       -3.12462585278193      h
        3.97886550246097        8.08117486265400       -2.62794372456917      h
       -3.32187104166359        5.15757181572827       11.84560377311373      o
       -4.15297381826175        3.67635052779970       11.08573337675189      h
       -2.80778388852127        4.63684735149153       13.50998793277727      h
       21.89866646688319        0.79697012906320        0.96806017873603      o
       22.05380606018473       -0.90999904303973        0.35700774084651      h
       21.41120530141586        0.70645163116082        2.72535537846040      h
      -11.90520796906572       -0.85339248704286       -5.16408607788774      o
      -13.00492963586785       -2.30293931451368       -5.47241489987585      h
      -13.01861296874101        0.55292072773650       -4.76457262864862      h
      -14.98690753926517       -4.64199054074410       -6.46396926126861      o
      -16.73924802097688       -4.74826375135596       -5.84970662627911      h
      -14.19958257201457       -6.17449437056448       -5.86214425200057      h
[...]
   160   8 o      161   1 h                                       0.9738767
   160   8 o      162   1 h                                       0.9793230
   163   8 o      164   1 h                                       0.9695270
   163   8 o      165   1 h                                       0.9686059
   166   8 o      167   1 h                                       0.9833098
   166   8 o      168   1 h                                       0.9770941
   169   8 o      170   1 h                                       0.9574622
   169   8 o      171   1 h                                       0.9874905
   172   8 o      173   1 h                                       0.9708134
   172   8 o      174   1 h                                       0.9779149
   175   8 o      176   1 h                                       0.9604759
   175   8 o      177   1 h                                       0.9721646
   178   8 o      179   1 h                                       0.9610001
   178   8 o      180   1 h                                       0.9767272
   181   8 o      182   1 h                                       0.9768812
   181   8 o      183   1 h                                       0.9810933
   184   8 o      185   1 h                                       0.9916386
   184   8 o      186   1 h                                       0.9579092
   187   8 o      188   1 h                                       0.9771789
   187   8 o      189   1 h                                       0.9716058
   190   8 o      191   1 h                                       0.9659448
   190   8 o      192   1 h                                       0.9818712
   193   8 o      194   1 h                                       0.9749104
   193   8 o      195   1 h                                       0.9726788
   196   8 o      197   1 h                                       0.9800388
   196   8 o      198   1 h                                       0.9638050
   199   8 o      200   1 h                                       0.9757207
   199   8 o      201   1 h                                       0.9798467
   202   8 o      203   1 h                                       0.9752216
   202   8 o      204   1 h                                       0.9723373
   205   8 o      206   1 h                                       0.9570019
   205   8 o      207   1 h                                       0.9836308
   208   8 o      209   1 h                                       0.9699175
   208   8 o      210   1 h                                       0.9724148
   211   8 o      212   1 h                                       0.9588424
   211   8 o      213   1 h                                       0.9747714
   214   8 o      215   1 h                                       0.9741530
   214   8 o      216   1 h                                       0.9778222
   217   8 o      218   1 h                                       0.9742788
   217   8 o      219   1 h                                       0.9702666
   220   8 o      221   1 h                                       0.9595486
   220   8 o      222   1 h                                       0.9798247
   223   8 o      224   1 h                                       0.9880298
   223   8 o      225   1 h                                       0.9671343
   226   8 o      227   1 h                                       0.9687053
   226   8 o      228   1 h                                       0.9694375
   229   8 o      230   1 h                                       0.9736573
   229   8 o      231   1 h                                       0.9860208
   232   8 o      233   1 h                                       0.9687076
   232   8 o      234   1 h                                       0.9706201
   235   8 o      236   1 h                                       0.9693134
   235   8 o      237   1 h                                       0.9803797
   238   8 o      239   1 h                                       0.9667570
   238   8 o      240   1 h                                       0.9763779
   241   8 o      242   1 h                                       0.9722846
   241   8 o      243   1 h                                       0.9660414
   244   8 o      245   1 h                                       0.9762009
   244   8 o      246   1 h                                       0.9903888
   247   8 o      248   1 h                                       0.9691157
   247   8 o      249   1 h                                       0.9702843
   250   8 o      251   1 h                                       0.9721207
   250   8 o      252   1 h                                       0.9808300
   253   8 o      254   1 h                                       0.9580650
   253   8 o      255   1 h                                       0.9928597
   256   8 o      257   1 h                                       0.9749568
   256   8 o      258   1 h                                       0.9843702
   259   8 o      260   1 h                                       0.9705127
   259   8 o      261   1 h                                       0.9720133
   262   8 o      263   1 h                                       0.9613638
   262   8 o      264   1 h                                       0.9743637
   265   8 o      266   1 h                                       0.9819636
   265   8 o      267   1 h                                       0.9678934
   268   8 o      269   1 h                                       0.9715061
   268   8 o      270   1 h                                       0.9817700
   271   8 o      272   1 h                                       0.9803108
   271   8 o      273   1 h                                       0.9648340
   274   8 o      275   1 h                                       0.9649935
   274   8 o      276   1 h                                       0.9780532
   277   8 o      278   1 h                                       0.9816482
   277   8 o      279   1 h                                       0.9794958
   280   8 o      281   1 h                                       0.9847790
   280   8 o      282   1 h                                       0.9727937
   283   8 o      284   1 h                                       0.9677375
   283   8 o      285   1 h                                       0.9692906
   286   8 o      287   1 h                                       0.9657663
   286   8 o      288   1 h                                       0.9856913
   289   8 o      290   1 h                                       0.9638759
   289   8 o      291   1 h                                       0.9620422
   292   8 o      293   1 h                                       0.9908729
   292   8 o      294   1 h                                       0.9716657
   295   8 o      296   1 h                                       0.9691647
   295   8 o      297   1 h                                       0.9822843
   298   8 o      299   1 h                                       0.9713374
   298   8 o      300   1 h                                       0.9675268
   301   8 o      302   1 h                                       0.9817446
   301   8 o      303   1 h                                       0.9704124
   304   8 o      305   1 h                                       0.9684423
   304   8 o      306   1 h                                       0.9639365
   307   8 o      308   1 h                                       0.9583949
   307   8 o      309   1 h                                       0.9829272
   310   8 o      311   1 h                                       0.9787048
   310   8 o      312   1 h                                       0.9767179
   313   8 o      314   1 h                                       0.9625988
   313   8 o      315   1 h                                       0.9857407
   316   8 o      317   1 h                                       0.9641036
   316   8 o      318   1 h                                       0.9747369
   319   8 o      320   1 h                                       0.9733452
   319   8 o      321   1 h                                       0.9801339
   322   8 o      323   1 h                                       0.9677482
   322   8 o      324   1 h                                       0.9723592
   325   8 o      326   1 h                                       0.9704539
   325   8 o      327   1 h                                       0.9906040
   328   8 o      329   1 h                                       0.9919778
   328   8 o      330   1 h                                       0.9563824
   331   8 o      332   1 h                                       0.9766549
   331   8 o      333   1 h                                       0.9566221
   334   8 o      335   1 h                                       0.9682703
   334   8 o      336   1 h                                       0.9739454
   337   8 o      338   1 h                                       0.9769448
   337   8 o      339   1 h                                       0.9675458
   340   8 o      341   1 h                                       0.9656276
   340   8 o      342   1 h                                       0.9802189
   343   8 o      344   1 h                                       0.9747493
   343   8 o      345   1 h                                       0.9710557
   346   8 o      347   1 h                                       0.9561488 (min)
   346   8 o      348   1 h                                       0.9803518
   349   8 o      350   1 h                                       0.9805085
   349   8 o      351   1 h                                       0.9757934
   352   8 o      353   1 h                                       0.9764497
   352   8 o      354   1 h                                       0.9677440
   355   8 o      356   1 h                                       0.9757806
   355   8 o      357   1 h                                       0.9828287
   358   8 o      359   1 h                                       0.9825770
   358   8 o      360   1 h                                       0.9731792
   361   8 o      362   1 h                                       0.9830575
   361   8 o      363   1 h                                       0.9815686
   364   8 o      365   1 h                                       0.9838157
   364   8 o      366   1 h                                       0.9838948
   367   8 o      368   1 h                                       0.9861695
   367   8 o      369   1 h                                       0.9690253
   370   8 o      371   1 h                                       0.9697609
   370   8 o      372   1 h                                       0.9685993
   373   8 o      374   1 h                                       0.9611323
   373   8 o      375   1 h                                       0.9733771
   376   8 o      377   1 h                                       0.9738275
   376   8 o      378   1 h                                       0.9799094
   379   8 o      380   1 h                                       0.9811989
   379   8 o      381   1 h                                       0.9606723
   382   8 o      383   1 h                                       0.9677352
   382   8 o      384   1 h                                       0.9695716
   385   8 o      386   1 h                                       0.9858500
   385   8 o      387   1 h                                       0.9686748
   388   8 o      389   1 h                                       0.9846326
   388   8 o      390   1 h                                       0.9621156
   391   8 o      392   1 h                                       0.9629277
   391   8 o      393   1 h                                       0.9662230
   394   8 o      395   1 h                                       0.9765637
   394   8 o      396   1 h                                       0.9724485
   397   8 o      398   1 h                                       0.9842284
   397   8 o      399   1 h                                       0.9657510
   400   8 o      401   1 h                                       0.9776351
   400   8 o      402   1 h                                       0.9716728
   403   8 o      404   1 h                                       0.9786920
   403   8 o      405   1 h                                       0.9734228
   406   8 o      407   1 h                                       0.9714040
   406   8 o      408   1 h                                       0.9915539
   409   8 o      410   1 h                                       0.9713799
   409   8 o      411   1 h                                       0.9704319
   412   8 o      413   1 h                                       0.9758474
   412   8 o      414   1 h                                       0.9771313
   415   8 o      416   1 h                                       0.9751404
   415   8 o      417   1 h                                       0.9722152
   418   8 o      419   1 h                                       0.9753123
   418   8 o      420   1 h                                       0.9885954
   421   8 o      422   1 h                                       0.9695204
   421   8 o      423   1 h                                       0.9715356
   424   8 o      425   1 h                                       0.9566014
   424   8 o      426   1 h                                       0.9792410
   427   8 o      428   1 h                                       0.9836103
   427   8 o      429   1 h                                       0.9744814
   430   8 o      431   1 h                                       0.9624219
   430   8 o      432   1 h                                       0.9715588
   433   8 o      434   1 h                                       0.9857938
   433   8 o      435   1 h                                       0.9616638
   436   8 o      437   1 h                                       0.9731461
   436   8 o      438   1 h                                       0.9621106
   439   8 o      440   1 h                                       0.9570244
   439   8 o      441   1 h                                       0.9959178 (max)
   442   8 o      443   1 h                                       0.9667704
   442   8 o      444   1 h                                       0.9720812
   445   8 o      446   1 h                                       0.9751044
   445   8 o      447   1 h                                       0.9652201
   448   8 o      449   1 h                                       0.9797764
   448   8 o      450   1 h                                       0.9656910
   451   8 o      452   1 h                                       0.9717470
   451   8 o      453   1 h                                       0.9774712
   454   8 o      455   1 h                                       0.9699444
   454   8 o      456   1 h                                       0.9699196
   457   8 o      458   1 h                                       0.9860286
   457   8 o      459   1 h                                       0.9614747
   460   8 o      461   1 h                                       0.9737613
   460   8 o      462   1 h                                       0.9617351
   463   8 o      464   1 h                                       0.9880006
   463   8 o      465   1 h                                       0.9561682
   466   8 o      467   1 h                                       0.9878745
   466   8 o      468   1 h                                       0.9614755
   469   8 o      470   1 h                                       0.9713207
   469   8 o      471   1 h                                       0.9718246
   472   8 o      473   1 h                                       0.9727483
   472   8 o      474   1 h                                       0.9835348
   475   8 o      476   1 h                                       0.9914244
   475   8 o      477   1 h                                       0.9583905
   478   8 o      479   1 h                                       0.9635351
   478   8 o      480   1 h                                       0.9711849
   481   8 o      482   1 h                                       0.9695569
   481   8 o      483   1 h                                       0.9676312
   484   8 o      485   1 h                                       0.9682949
   484   8 o      486   1 h                                       0.9701030
   487   8 o      488   1 h                                       0.9743776
   487   8 o      489   1 h                                       0.9725306
   490   8 o      491   1 h                                       0.9849507
   490   8 o      492   1 h                                       0.9815925
   493   8 o      494   1 h                                       0.9821222
   493   8 o      495   1 h                                       0.9701410
   496   8 o      497   1 h                                       0.9687894
   496   8 o      498   1 h                                       0.9678838
   499   8 o      500   1 h                                       0.9846671
   499   8 o      501   1 h                                       0.9756182
   502   8 o      503   1 h                                       0.9649668
   502   8 o      504   1 h                                       0.9700612
   505   8 o      506   1 h                                       0.9851665
   505   8 o      507   1 h                                       0.9579886
   508   8 o      509   1 h                                       0.9684189
   508   8 o      510   1 h                                       0.9675756
   511   8 o      512   1 h                                       0.9744154
   511   8 o      513   1 h                                       0.9637435
   514   8 o      515   1 h                                       0.9760661
   514   8 o      516   1 h                                       0.9581166
   517   8 o      518   1 h                                       0.9679880
   517   8 o      519   1 h                                       0.9642433
   520   8 o      521   1 h                                       0.9800538
   520   8 o      522   1 h                                       0.9769777
   523   8 o      524   1 h                                       0.9782978
   523   8 o      525   1 h                                       0.9647809
   526   8 o      528   1 h                                       0.9581082
   529   8 o      530   1 h                                       0.9616122
   529   8 o      531   1 h                                       0.9580923

 * 1 distinct bonds (by element types)

   Z      Z             #   av. dist./Å        max./Å        min./Å
   1 H    8 O         353     0.9730250     0.9959178     0.9561488


optimized geometry written to: xtbopt.coord


           -------------------------------------------------
          | TOTAL ENERGY             -901.160633162316 Eh   |
          | GRADIENT NORM               0.001879602804 Eh/α |
          | HOMO-LUMO GAP               6.341477367174 eV   |
           -------------------------------------------------

------------------------------------------------------------------------
 * finished run on 2022/11/17 at 06:53:17.993     
------------------------------------------------------------------------
 total:
 * wall-time:     0 d,  0 h,  4 min, 30.009 sec
 *  cpu-time:     0 d,  0 h,  6 min, 59.789 sec
 * ratio c/w:     1.555 speedup
 SCF:
 * wall-time:     0 d,  0 h,  0 min,  8.423 sec
 *  cpu-time:     0 d,  0 h,  0 min, 13.030 sec
 * ratio c/w:     1.547 speedup
 ANC optimizer:
 * wall-time:     0 d,  0 h,  4 min, 20.994 sec
 *  cpu-time:     0 d,  0 h,  6 min, 45.682 sec
 * ratio c/w:     1.554 speedup

