      -----------------------------------------------------------      
     |                   =====================                   |     
     |                           x T B                           |     
     |                   =====================                   |     
     |                         S. Grimme                         |     
     |          Mulliken Center for Theoretical Chemistry        |     
     |                    University of Bonn                     |     
      -----------------------------------------------------------      

   * xtb version 6.5.1 (579679a) compiled by 'ehlert@majestix' on 2022-07-11

   xtb is free software: you can redistribute it and/or modify it under
   the terms of the GNU Lesser General Public License as published by
   the Free Software Foundation, either version 3 of the License, or
   (at your option) any later version.
   
   xtb is distributed in the hope that it will be useful,
   but WITHOUT ANY WARRANTY; without even the implied warranty of
   MERCHANTABILITY or FITNESS FOR A PARTICULAR PURPOSE.  See the
   GNU Lesser General Public License for more details.
   
   Cite this work as:
   * C. Bannwarth, E. Caldeweyher, S. Ehlert, A. Hansen, P. Pracht,
     J. Seibert, S. Spicher, S. Grimme, WIREs Comput. Mol. Sci., 2020, 11,
     e01493. DOI: 10.1002/wcms.1493
   
   for GFN2-xTB:
   * C. Bannwarth, S. Ehlert and S. Grimme., J. Chem. Theory Comput., 2019,
     15, 1652-1671. DOI: 10.1021/acs.jctc.8b01176
   for GFN1-xTB:
   * S. Grimme, C. Bannwarth, P. Shushkov, J. Chem. Theory Comput., 2017,
     13, 1989-2009. DOI: 10.1021/acs.jctc.7b00118
   for GFN0-xTB:
   * P. Pracht, E. Caldeweyher, S. Ehlert, S. Grimme, ChemRxiv, 2019, preprint.
     DOI: 10.26434/chemrxiv.8326202.v1
   for GFN-FF:
   * S. Spicher and S. Grimme, Angew. Chem. Int. Ed., 2020, 59, 15665-15673.
     DOI: 10.1002/anie.202004239
   
   for ALPB and GBSA implicit solvation:
   * S. Ehlert, M. Stahn, S. Spicher, S. Grimme, J. Chem. Theory Comput.,
     2021, 17, 4250-4261. DOI: 10.1021/acs.jctc.1c00471
   
   for DFT-D4:
   * E. Caldeweyher, C. Bannwarth and S. Grimme, J. Chem. Phys., 2017,
     147, 034112. DOI: 10.1063/1.4993215
   * E. Caldeweyher, S. Ehlert, A. Hansen, H. Neugebauer, S. Spicher,
     C. Bannwarth and S. Grimme, J. Chem. Phys., 2019, 150, 154122.
     DOI: 10.1063/1.5090222
   * E. Caldeweyher, J.-M. Mewes, S. Ehlert and S. Grimme, Phys. Chem. Chem. Phys.
     2020, 22, 8499-8512. DOI: 10.1039/D0CP00502A
   
   for sTDA-xTB:
   * S. Grimme and C. Bannwarth, J. Chem. Phys., 2016, 145, 054103.
     DOI: 10.1063/1.4959605
   
   in the mass-spec context:
   * V. Asgeirsson, C. Bauer and S. Grimme, Chem. Sci., 2017, 8, 4879.
     DOI: 10.1039/c7sc00601b
   * J. Koopman and S. Grimme, ACS Omega 2019, 4, 12, 15120-15133.
     DOI: 10.1021/acsomega.9b02011
   
   for metadynamics refer to:
   * S. Grimme, J. Chem. Theory Comput., 2019, 155, 2847-2862
     DOI: 10.1021/acs.jctc.9b00143
   
   for SPH calculations refer to:
   * S. Spicher and S. Grimme, J. Chem. Theory Comput., 2021, 17, 1701-1714
     DOI: 10.1021/acs.jctc.0c01306
   
   with help from (in alphabetical order)
   P. Atkinson, C. Bannwarth, F. Bohle, G. Brandenburg, E. Caldeweyher
   M. Checinski, S. Dohm, S. Ehlert, S. Ehrlich, I. Gerasimov, C. Hölzer
   A. Katbashev, J. Koopman, C. Lavigne, S. Lehtola, F. März, M. Müller,
   F. Musil, H. Neugebauer, J. Pisarek, C. Plett, P. Pracht, F. Pultar,
   J. Seibert, P. Shushkov, S. Spicher, M. Stahn, M. Steiner, T. Strunk,
   J. Stückrath, T. Rose, and J. Unsleber
   
 * started run on 2022/11/17 at 06:54:49.175     

           -------------------------------------------------
          |                Calculation Setup                |
           -------------------------------------------------

          program call               : xtb xtbopt.coord --gfn2 --sp --gbsa water
          hostname                   : cn0363
          coordinate file            : xtbopt.coord
          omp threads                :                     2

   ID    Z sym.   atoms
    1    8 o      1, 4, 7, 10, 13, 16, 19, 22, 25, 28, 31, 34, 37, 40, 43,
                  46, 49, 52, 55, 58, 61, 64, 67, 70, 73, 76, 79, 82, 85, 88,
                  91, 94, 97, 100, 103, 106, 109, 112, 115, 118, 121, 124,
                  127, 130, 133, 136, 139, 142, 145, 148, 151, 154, 157, 160,
                  163, 166, 169, 172, 175, 178, 181, 184, 187, 190, 193, 196,
                  199, 202, 205, 208, 211, 214, 217, 220, 223, 226, 229, 232,
                  235, 238, 241, 244, 247, 250, 253, 256, 259, 262, 265, 268,
                  271, 274, 277, 280, 283, 286, 289, 292, 295, 298, 301, 304,
                  307, 310, 313, 316, 319, 322, 325, 328, 331, 334, 337, 340,
                  343, 346, 349, 352, 355, 358, 361, 364, 367, 370, 373, 376,
                  379, 382, 385, 388, 391, 394, 397, 400, 403, 406, 409, 412,
                  415, 418, 421, 424, 427, 430, 433, 436, 439, 442, 445, 448,
                  451, 454, 457, 460, 463, 466, 469, 472, 475, 478, 481, 484,
                  487, 490, 493, 496, 499, 502, 505, 508, 511, 514, 517, 520,
                  523, 526, 529
    2    1 h      2, 3, 5, 6, 8, 9, 11, 12, 14, 15, 17, 18, 20, 21, 23, 24,
                  26, 27, 29, 30, 32, 33, 35, 36, 38, 39, 41, 42, 44, 45, 47,
                  48, 50, 51, 53, 54, 56, 57, 59, 60, 62, 63, 65, 66, 68, 69,
                  71, 72, 74, 75, 77, 78, 80, 81, 83, 84, 86, 87, 89, 90, 92,
                  93, 95, 96, 98, 99, 101, 102, 104, 105, 107, 108, 110, 111,
                  113, 114, 116, 117, 119, 120, 122, 123, 125, 126, 128, 129,
                  131, 132, 134, 135, 137, 138, 140, 141, 143, 144, 146, 147,
                  149, 150, 152, 153, 155, 156, 158, 159, 161, 162, 164, 165,
                  167, 168, 170, 171, 173, 174, 176, 177, 179, 180, 182, 183,
                  185, 186, 188, 189, 191, 192, 194, 195, 197, 198, 200, 201,
                  203, 204, 206, 207, 209, 210, 212, 213, 215, 216, 218, 219,
                  221, 222, 224, 225, 227, 228, 230, 231, 233, 234, 236, 237,
                  239, 240, 242, 243, 245, 246, 248, 249, 251, 252, 254, 255,
                  257, 258, 260, 261, 263, 264, 266, 267, 269, 270, 272, 273,
                  275, 276, 278, 279, 281, 282, 284, 285, 287, 288, 290, 291,
                  293, 294, 296, 297, 299, 300, 302, 303, 305, 306, 308, 309,
                  311, 312, 314, 315, 317, 318, 320, 321, 323, 324, 326, 327,
                  329, 330, 332, 333, 335, 336, 338, 339, 341, 342, 344, 345,
                  347, 348, 350, 351, 353, 354, 356, 357, 359, 360, 362, 363,
                  365, 366, 368, 369, 371, 372, 374, 375, 377, 378, 380, 381,
                  383, 384, 386, 387, 389, 390, 392, 393, 395, 396, 398, 399,
                  401, 402, 404, 405, 407, 408, 410, 411, 413, 414, 416, 417,
                  419, 420, 422, 423, 425, 426, 428, 429, 431, 432, 434, 435,
                  437, 438, 440, 441, 443, 444, 446, 447, 449, 450, 452, 453,
                  455, 456, 458, 459, 461, 462, 464, 465, 467, 468, 470, 471,
                  473, 474, 476, 477, 479, 480, 482, 483, 485, 486, 488, 489,
                  491, 492, 494, 495, 497, 498, 500, 501, 503, 504, 506, 507,
                  509, 510, 512, 513, 515, 516, 518, 519, 521, 522, 524, 525,
                  527, 528, 530, 531

molecular fragmentation (1/2 indicates fragments):
111222222222222222222222222222222222222222222222222222222222222222222222
222222222222222222222222222222222222222222222222222222222222222222222222
222222222222222222222222222222222222222222222222222222222222222222222222
222222222222222222222222222222222222222222222222222222222222222222222222
222222222222222222222222222222222222222222222222222222222222222222222222
222222222222222222222222222222222222222222222222222222222222222222222222
222222222222222222222222222222222222222222222222222222222222222222222222
222222222222222222222222222
# atoms in fragment 1/2:     3   528
 fragment masses (1/2) :       18.02     3170.69
CMA distance (Bohr)    :   5.857
constraining FC (au)   :  0.0500

           -------------------------------------------------
          |                 G F N 2 - x T B                 |
           -------------------------------------------------

        Reference                      10.1021/acs.jctc.8b01176
      * Hamiltonian:
        H0-scaling (s, p, d)           1.850000    2.230000    2.230000
        zeta-weighting                 0.500000
      * Dispersion:
        s8                             2.700000
        a1                             0.520000
        a2                             5.000000
        s9                             5.000000
      * Repulsion:
        kExp                           1.500000    1.000000
        rExp                           1.000000
      * Coulomb:
        alpha                          2.000000
        third order                    shell-resolved
        anisotropic                    true
        a3                             3.000000
        a5                             4.000000
        cn-shift                       1.200000
        cn-exp                         4.000000
        max-rad                        5.000000

      * Solvation model:               GBSA
        Solvent                        water
        Parameter file                 internal GFN2-xTB/GBSA
        Dielectric constant                8.0200E+01
        Reference state                gsolv [1 M gas/solution]
        Free energy shift                  1.8574E-03 Eh       1.1656E+00 kcal/mol
        Temperature                        2.9815E+02 K
        Density                            1.0000E+00 kg/L
        Solvent mass                       1.8000E+01 g/mol
        Interaction kernel             Still
        Born radius scaling (c1)           1.5524E+00
        Born radii integrator          GBOBC
        Born offset                        2.4628E-02 a0       4.6540E-02 AA
        H-bond correction              true
        Ion screening                  false
        Surface tension                    1.0000E-05 Eh       1.5569E+01 dyn/cm
        Grid points                               230 per atom

          ...................................................
          :                      SETUP                      :
          :.................................................:
          :  # basis functions                1062          :
          :  # atomic orbitals                1062          :
          :  # shells                          708          :
          :  # electrons                      1416          :
          :  max. iterations                   250          :
          :  Hamiltonian                  GFN2-xTB          :
          :  restarted?                      false          :
          :  GBSA solvation                   true          :
          :  PC potential                    false          :
          :  electronic temp.          300.0000000     K    :
          :  accuracy                    1.0000000          :
          :  -> integral cutoff          0.2500000E+02      :
          :  -> integral neglect         0.1000000E-07      :
          :  -> SCF convergence          0.1000000E-05 Eh   :
          :  -> wf. convergence          0.1000000E-03 e    :
          :  Broyden damping             0.4000000          :
          ...................................................

 iter      E             dE          RMSdq      gap      omega  full diag
   1   -906.7649421 -0.906765E+03  0.409E+00    8.64       0.0  T
   2   -906.8317049 -0.667629E-01  0.242E+00    7.93       1.0  T
   3   -906.8580468 -0.263419E-01  0.235E-01    6.87       1.0  T
   4   -906.8622755 -0.422862E-02  0.514E-02    7.13       1.0  T
   5   -906.8624296 -0.154167E-03  0.318E-02    7.06       1.0  T
   6   -906.8624640 -0.343589E-04  0.384E-03    7.07       1.1  T
   7   -906.8624652 -0.123922E-05  0.792E-04    7.07       5.5  T
   8   -906.8624653 -0.274133E-07  0.458E-04    7.07       9.5  T
   9   -906.8624653 -0.182241E-07  0.992E-05    7.07      43.8  T

   *** convergence criteria satisfied after 9 iterations ***

         #    Occupation            Energy/Eh            Energy/eV
      -------------------------------------------------------------
         1        2.0000           -0.6560481             -17.8520
       ...           ...                  ...                  ...
       702        2.0000           -0.3500076              -9.5242
       703        2.0000           -0.3452428              -9.3945
       704        2.0000           -0.3439557              -9.3595
       705        2.0000           -0.3396090              -9.2412
       706        2.0000           -0.3363113              -9.1515
       707        2.0000           -0.3266722              -8.8892
       708        2.0000           -0.3168007              -8.6206 (HOMO)
       709                         -0.0568621              -1.5473 (LUMO)
       710                         -0.0464062              -1.2628
       711                         -0.0320794              -0.8729
       712                         -0.0308249              -0.8388
       713                         -0.0219911              -0.5984
       ...                                ...                  ...
      1062                          0.4792260              13.0404
      -------------------------------------------------------------
                  HL-Gap            0.2599387 Eh            7.0733 eV
             Fermi-level           -0.1868314 Eh           -5.0839 eV

 SCC (total)                   0 d,  0 h,  0 min,  7.785 sec
 SCC setup                      ...        0 min,  0.060 sec (  0.771%)
 Dispersion                     ...        0 min,  0.054 sec (  0.688%)
 classical contributions        ...        0 min,  0.012 sec (  0.148%)
 integral evaluation            ...        0 min,  0.319 sec (  4.100%)
 iterations                     ...        0 min,  2.530 sec ( 32.492%)
 molecular gradient             ...        0 min,  4.782 sec ( 61.423%)
 printout                       ...        0 min,  0.029 sec (  0.377%)

         :::::::::::::::::::::::::::::::::::::::::::::::::::::
         ::                     SUMMARY                     ::
         :::::::::::::::::::::::::::::::::::::::::::::::::::::
         :: total energy            -901.382390015765 Eh    ::
         :: total w/o Gsasa/hb      -901.192795099597 Eh    ::
         :: gradient norm              0.104937091440 Eh/a0 ::
         :: HOMO-LUMO gap              7.073291359633 eV    ::
         ::.................................................::
         :: SCC energy              -906.862465277530 Eh    ::
         :: -> isotropic ES            5.278458384798 Eh    ::
         :: -> anisotropic ES         -1.119629361512 Eh    ::
         :: -> anisotropic XC         -0.085952629270 Eh    ::
         :: -> dispersion             -0.530688955522 Eh    ::
         :: -> Gsolv                  -0.235438817867 Eh    ::
         ::    -> Gelec               -0.045843901700 Eh    ::
         ::    -> Gsasa                0.005112661229 Eh    ::
         ::    -> Ghb                 -0.196565020524 Eh    ::
         ::    -> Gshift               0.001857443127 Eh    ::
         :: repulsion energy           5.387283758640 Eh    ::
         :: add. restraining           0.000000000000 Eh    ::
         :: total charge              -0.000000000000 e     ::
         :::::::::::::::::::::::::::::::::::::::::::::::::::::

           -------------------------------------------------
          |                Property Printout                |
           -------------------------------------------------

    * Orbital Energies and Occupations

         #    Occupation            Energy/Eh            Energy/eV
      -------------------------------------------------------------
         1        2.0000           -0.6560481             -17.8520
       ...           ...                  ...                  ...
       696        2.0000           -0.3599826              -9.7956
       697        2.0000           -0.3594699              -9.7817
       698        2.0000           -0.3575493              -9.7294
       699        2.0000           -0.3561457              -9.6912
       700        2.0000           -0.3516822              -9.5698
       701        2.0000           -0.3502335              -9.5303
       702        2.0000           -0.3500076              -9.5242
       703        2.0000           -0.3452428              -9.3945
       704        2.0000           -0.3439557              -9.3595
       705        2.0000           -0.3396090              -9.2412
       706        2.0000           -0.3363113              -9.1515
       707        2.0000           -0.3266722              -8.8892
       708        2.0000           -0.3168007              -8.6206 (HOMO)
       709                         -0.0568621              -1.5473 (LUMO)
       710                         -0.0464062              -1.2628
       711                         -0.0320794              -0.8729
       712                         -0.0308249              -0.8388
       713                         -0.0219911              -0.5984
       714                         -0.0164199              -0.4468
       715                         -0.0144434              -0.3930
       716                         -0.0017515              -0.0477
       717                          0.0012761               0.0347
       718                          0.0030331               0.0825
       719                          0.0056311               0.1532
       ...                                ...                  ...
      1062                          0.4792260              13.0404
      -------------------------------------------------------------
                  HL-Gap            0.2599387 Eh            7.0733 eV
             Fermi-level           -0.1868314 Eh           -5.0839 eV

     #   Z          covCN         q      C6AA      α(0)
     1   8 o        1.609    -0.655    26.535     6.952
     2   1 h        0.804     0.335     0.624     1.241
     3   1 h        0.805     0.347     0.595     1.212
     4   8 o        1.607    -0.670    26.923     7.003
     5   1 h        0.804     0.348     0.594     1.210
     6   1 h        0.803     0.331     0.635     1.251
     7   8 o        1.604    -0.711    27.998     7.141
     8   1 h        0.804     0.346     0.599     1.215
     9   1 h        0.802     0.352     0.585     1.201
    10   8 o        1.608    -0.694    27.557     7.085
    11   1 h        0.804     0.340     0.612     1.229
    12   1 h        0.804     0.333     0.631     1.248
    13   8 o        1.608    -0.667    26.842     6.992
    14   1 h        0.803     0.343     0.604     1.221
    15   1 h        0.805     0.329     0.641     1.257
    16   8 o        1.608    -0.676    27.079     7.023
    17   1 h        0.804     0.322     0.660     1.276
    18   1 h        0.804     0.331     0.634     1.251
    19   8 o        1.609    -0.656    26.561     6.956
    20   1 h        0.804     0.330     0.638     1.255
    21   1 h        0.805     0.349     0.591     1.208
    22   8 o        1.609    -0.673    27.012     7.015
    23   1 h        0.804     0.354     0.579     1.195
    24   1 h        0.805     0.329     0.639     1.255
    25   8 o        1.608    -0.685    27.314     7.054
    26   1 h        0.804     0.342     0.607     1.223
    27   1 h        0.804     0.338     0.616     1.233
    28   8 o        1.608    -0.685    27.308     7.053
    29   1 h        0.804     0.339     0.615     1.231
    30   1 h        0.804     0.336     0.621     1.238
    31   8 o        1.609    -0.691    27.466     7.073
    32   1 h        0.804     0.339     0.616     1.233
    33   1 h        0.803     0.336     0.622     1.239
    34   8 o        1.608    -0.673    27.015     7.015
    35   1 h        0.803     0.356     0.575     1.191
    36   1 h        0.805     0.326     0.648     1.265
    37   8 o        1.607    -0.707    27.890     7.128
    38   1 h        0.803     0.343     0.606     1.223
    39   1 h        0.804     0.328     0.641     1.258
    40   8 o        1.607    -0.677    27.116     7.028
    41   1 h        0.803     0.327     0.644     1.261
    42   1 h        0.803     0.349     0.591     1.208
    43   8 o        1.609    -0.663    26.744     6.980
    44   1 h        0.805     0.342     0.608     1.224
    45   1 h        0.804     0.331     0.634     1.251
    46   8 o        1.609    -0.683    27.262     7.047
    47   1 h        0.804     0.350     0.589     1.205
    48   1 h        0.805     0.326     0.647     1.263
    49   8 o        1.608    -0.674    27.038     7.018
    50   1 h        0.805     0.343     0.604     1.221
    51   1 h        0.803     0.346     0.598     1.215
    52   8 o        1.609    -0.677    27.110     7.027
    53   1 h        0.804     0.324     0.653     1.269
    54   1 h        0.804     0.340     0.613     1.230
    55   8 o        1.608    -0.682    27.234     7.043
    56   1 h        0.805     0.338     0.618     1.235
    57   1 h        0.804     0.351     0.587     1.204
    58   8 o        1.609    -0.673    27.010     7.014
    59   1 h        0.803     0.358     0.570     1.186
    60   1 h        0.805     0.327     0.645     1.261
    61   8 o        1.609    -0.656    26.562     6.956
    62   1 h        0.805     0.326     0.647     1.264
    63   1 h        0.804     0.344     0.602     1.219
    64   8 o        1.607    -0.693    27.532     7.082
    65   1 h        0.804     0.341     0.610     1.226
    66   1 h        0.803     0.359     0.568     1.184
    67   8 o        1.605    -0.694    27.545     7.083
    68   1 h        0.805     0.336     0.622     1.238
    69   1 h        0.802     0.355     0.577     1.193
    70   8 o        1.607    -0.661    26.691     6.973
    71   1 h        0.802     0.333     0.629     1.246
    72   1 h        0.804     0.341     0.609     1.226
    73   8 o        1.607    -0.697    27.625     7.094
    74   1 h        0.805     0.334     0.626     1.243
    75   1 h        0.802     0.347     0.595     1.212
    76   8 o        1.608    -0.683    27.270     7.048
    77   1 h        0.804     0.335     0.624     1.240
    78   1 h        0.804     0.331     0.634     1.250
    79   8 o        1.607    -0.691    27.471     7.074
    80   1 h        0.803     0.356     0.575     1.191
    81   1 h        0.803     0.350     0.589     1.206
    82   8 o        1.607    -0.704    27.823     7.119
    83   1 h        0.803     0.354     0.580     1.197
    84   1 h        0.805     0.323     0.655     1.272
    85   8 o        1.608    -0.665    26.796     6.986
    86   1 h        0.803     0.338     0.617     1.234
    87   1 h        0.805     0.333     0.630     1.247
    88   8 o        1.606    -0.673    27.014     7.015
    89   1 h        0.801     0.354     0.581     1.197
    90   1 h        0.806     0.310     0.690     1.305
    91   8 o        1.609    -0.648    26.365     6.930
    92   1 h        0.804     0.355     0.577     1.193
    93   1 h        0.806     0.317     0.670     1.286
    94   8 o        1.607    -0.677    27.112     7.027
    95   1 h        0.803     0.355     0.577     1.193
    96   1 h        0.804     0.327     0.646     1.262
    97   8 o        1.610    -0.674    27.023     7.016
    98   1 h        0.805     0.332     0.632     1.249
    99   1 h        0.805     0.316     0.673     1.289
   100   8 o        1.609    -0.661    26.691     6.973
   101   1 h        0.804     0.339     0.615     1.232
   102   1 h        0.804     0.338     0.618     1.235
   103   8 o        1.609    -0.667    26.857     6.994
   104   1 h        0.804     0.350     0.589     1.206
   105   1 h        0.805     0.327     0.645     1.261
   106   8 o        1.608    -0.663    26.741     6.979
   107   1 h        0.804     0.331     0.634     1.250
   108   1 h        0.804     0.344     0.602     1.219
   109   8 o        1.608    -0.680    27.186     7.037
   110   1 h        0.804     0.351     0.587     1.203
   111   1 h        0.805     0.339     0.615     1.232
   112   8 o        1.607    -0.690    27.435     7.069
   113   1 h        0.803     0.353     0.582     1.198
   114   1 h        0.803     0.349     0.590     1.206
   115   8 o        1.609    -0.657    26.604     6.961
   116   1 h        0.805     0.333     0.630     1.247
   117   1 h        0.804     0.329     0.641     1.257
   118   8 o        1.607    -0.670    26.932     7.004
   119   1 h        0.803     0.343     0.605     1.222
   120   1 h        0.805     0.336     0.622     1.239
   121   8 o        1.609    -0.686    27.339     7.057
   122   1 h        0.804     0.333     0.630     1.247
   123   1 h        0.805     0.339     0.614     1.231
   124   8 o        1.608    -0.680    27.182     7.037
   125   1 h        0.804     0.345     0.600     1.217
   126   1 h        0.803     0.334     0.627     1.244
   127   8 o        1.608    -0.690    27.445     7.071
   128   1 h        0.805     0.317     0.671     1.287
   129   1 h        0.803     0.354     0.578     1.195
   130   8 o        1.608    -0.678    27.133     7.030
   131   1 h        0.804     0.344     0.603     1.220
   132   1 h        0.804     0.354     0.579     1.195
   133   8 o        1.607    -0.684    27.283     7.050
   134   1 h        0.804     0.337     0.619     1.236
   135   1 h        0.803     0.347     0.596     1.212
   136   8 o        1.607    -0.660    26.681     6.971
   137   1 h        0.804     0.327     0.646     1.263
   138   1 h        0.803     0.325     0.651     1.268
   139   8 o        1.606    -0.682    27.245     7.045
   140   1 h        0.803     0.336     0.621     1.238
   141   1 h        0.803     0.329     0.639     1.256
   142   8 o        1.607    -0.675    27.051     7.020
   143   1 h        0.804     0.346     0.598     1.215
   144   1 h        0.803     0.329     0.641     1.258
   145   8 o        1.609    -0.653    26.491     6.947
   146   1 h        0.805     0.334     0.627     1.243
   147   1 h        0.805     0.323     0.656     1.272
   148   8 o        1.606    -0.679    27.147     7.032
   149   1 h        0.802     0.345     0.600     1.217
   150   1 h        0.804     0.323     0.655     1.271
   151   8 o        1.609    -0.658    26.625     6.964
   152   1 h        0.804     0.331     0.636     1.253
   153   1 h        0.805     0.348     0.593     1.209
   154   8 o        1.607    -0.691    27.460     7.072
   155   1 h        0.803     0.351     0.586     1.202
   156   1 h        0.804     0.320     0.664     1.280
   157   8 o        1.606    -0.688    27.400     7.065
   158   1 h        0.803     0.329     0.640     1.257
   159   1 h        0.803     0.348     0.592     1.209
   160   8 o        1.607    -0.692    27.506     7.078
   161   1 h        0.804     0.340     0.612     1.229
   162   1 h        0.804     0.353     0.580     1.197
   163   8 o        1.609    -0.665    26.794     6.986
   164   1 h        0.804     0.330     0.639     1.255
   165   1 h        0.804     0.323     0.657     1.273
   166   8 o        1.606    -0.684    27.293     7.051
   167   1 h        0.802     0.357     0.572     1.188
   168   1 h        0.803     0.322     0.659     1.275
   169   8 o        1.607    -0.651    26.446     6.941
   170   1 h        0.806     0.312     0.687     1.302
   171   1 h        0.802     0.349     0.591     1.208
   172   8 o        1.607    -0.671    26.944     7.006
   173   1 h        0.804     0.330     0.638     1.255
   174   1 h        0.803     0.360     0.566     1.181
   175   8 o        1.609    -0.672    26.971     7.009
   176   1 h        0.805     0.329     0.640     1.257
   177   1 h        0.804     0.351     0.587     1.204
   178   8 o        1.609    -0.678    27.145     7.032
   179   1 h        0.805     0.321     0.662     1.278
   180   1 h        0.803     0.352     0.584     1.200
   181   8 o        1.607    -0.688    27.388     7.063
   182   1 h        0.803     0.337     0.619     1.236
   183   1 h        0.803     0.359     0.567     1.183
   184   8 o        1.606    -0.663    26.744     6.980
   185   1 h        0.802     0.356     0.574     1.190
   186   1 h        0.806     0.309     0.693     1.308
   187   8 o        1.607    -0.700    27.723     7.106
   188   1 h        0.803     0.342     0.608     1.225
   189   1 h        0.804     0.337     0.620     1.236
   190   8 o        1.607    -0.673    27.003     7.013
   191   1 h        0.805     0.356     0.574     1.190
   192   1 h        0.803     0.349     0.590     1.207
   193   8 o        1.609    -0.677    27.105     7.027
   194   1 h        0.804     0.347     0.597     1.213
   195   1 h        0.804     0.344     0.602     1.219
   196   8 o        1.608    -0.677    27.109     7.027
   197   1 h        0.803     0.347     0.595     1.211
   198   1 h        0.805     0.326     0.648     1.265
   199   8 o        1.607    -0.689    27.417     7.067
   200   1 h        0.804     0.348     0.592     1.209
   201   1 h        0.803     0.352     0.585     1.201
   202   8 o        1.609    -0.666    26.811     6.988
   203   1 h        0.804     0.332     0.633     1.250
   204   1 h        0.804     0.338     0.617     1.234
   205   8 o        1.608    -0.688    27.405     7.065
   206   1 h        0.806     0.306     0.702     1.316
   207   1 h        0.803     0.360     0.565     1.181
   208   8 o        1.609    -0.692    27.492     7.077
   209   1 h        0.804     0.339     0.615     1.232
   210   1 h        0.804     0.336     0.621     1.238
   211   8 o        1.609    -0.652    26.474     6.944
   212   1 h        0.805     0.312     0.687     1.302
   213   1 h        0.804     0.366     0.552     1.167
   214   8 o        1.607    -0.675    27.055     7.020
   215   1 h        0.804     0.337     0.619     1.236
   216   1 h        0.803     0.353     0.582     1.199
   217   8 o        1.608    -0.676    27.083     7.024
   218   1 h        0.804     0.338     0.616     1.233
   219   1 h        0.804     0.344     0.603     1.219
   220   8 o        1.608    -0.669    26.894     6.999
   221   1 h        0.805     0.308     0.698     1.312
   222   1 h        0.803     0.358     0.570     1.187
   223   8 o        1.607    -0.682    27.236     7.043
   224   1 h        0.802     0.360     0.565     1.181
   225   1 h        0.805     0.331     0.634     1.251
   226   8 o        1.609    -0.673    27.000     7.013
   227   1 h        0.804     0.329     0.641     1.258
   228   1 h        0.804     0.332     0.633     1.250
   229   8 o        1.607    -0.693    27.520     7.080
   230   1 h        0.804     0.351     0.585     1.202
   231   1 h        0.802     0.350     0.589     1.206
   232   8 o        1.609    -0.681    27.218     7.041
   233   1 h        0.804     0.331     0.635     1.251
   234   1 h        0.804     0.345     0.599     1.216
   235   8 o        1.608    -0.703    27.778     7.113
   236   1 h        0.804     0.341     0.609     1.225
   237   1 h        0.803     0.353     0.581     1.198
   238   8 o        1.608    -0.683    27.263     7.047
   239   1 h        0.805     0.338     0.618     1.234
   240   1 h        0.804     0.342     0.607     1.224
   241   8 o        1.609    -0.674    27.040     7.018
   242   1 h        0.804     0.329     0.639     1.256
   243   1 h        0.805     0.327     0.646     1.262
   244   8 o        1.605    -0.683    27.268     7.048
   245   1 h        0.803     0.323     0.656     1.272
   246   1 h        0.801     0.360     0.566     1.182
   247   8 o        1.609    -0.672    26.970     7.009
   248   1 h        0.804     0.348     0.594     1.210
   249   1 h        0.804     0.358     0.570     1.186
   250   8 o        1.607    -0.671    26.952     7.007
   251   1 h        0.804     0.348     0.594     1.210
   252   1 h        0.803     0.344     0.603     1.219
   253   8 o        1.606    -0.652    26.463     6.943
   254   1 h        0.806     0.312     0.686     1.301
   255   1 h        0.802     0.342     0.609     1.226
   256   8 o        1.606    -0.702    27.764     7.111
   257   1 h        0.804     0.321     0.662     1.278
   258   1 h        0.803     0.353     0.581     1.198
   259   8 o        1.608    -0.675    27.056     7.020
   260   1 h        0.804     0.333     0.629     1.246
   261   1 h        0.804     0.325     0.651     1.267
   262   8 o        1.609    -0.679    27.165     7.034
   263   1 h        0.805     0.326     0.647     1.264
   264   1 h        0.804     0.347     0.596     1.213
   265   8 o        1.607    -0.666    26.824     6.990
   266   1 h        0.803     0.351     0.587     1.204
   267   1 h        0.805     0.330     0.636     1.253
   268   8 o        1.607    -0.679    27.147     7.032
   269   1 h        0.804     0.323     0.655     1.271
   270   1 h        0.803     0.344     0.603     1.220
   271   8 o        1.608    -0.666    26.811     6.988
   272   1 h        0.803     0.331     0.634     1.251
   273   1 h        0.805     0.331     0.634     1.251
   274   8 o        1.608    -0.664    26.776     6.984
   275   1 h        0.805     0.329     0.639     1.255
   276   1 h        0.803     0.355     0.578     1.194
   277   8 o        1.606    -0.700    27.704     7.104
   278   1 h        0.803     0.355     0.578     1.194
   279   1 h        0.803     0.335     0.626     1.243
   280   8 o        1.606    -0.667    26.851     6.993
   281   1 h        0.802     0.347     0.595     1.212
   282   1 h        0.804     0.326     0.648     1.264
   283   8 o        1.609    -0.661    26.683     6.972
   284   1 h        0.805     0.334     0.626     1.243
   285   1 h        0.804     0.329     0.641     1.257
   286   8 o        1.607    -0.684    27.277     7.049
   287   1 h        0.805     0.322     0.657     1.273
   288   1 h        0.802     0.355     0.577     1.193
   289   8 o        1.610    -0.649    26.390     6.933
   290   1 h        0.805     0.332     0.631     1.248
   291   1 h        0.805     0.328     0.642     1.259
   292   8 o        1.605    -0.701    27.735     7.108
   293   1 h        0.802     0.364     0.557     1.173
   294   1 h        0.804     0.326     0.648     1.265
   295   8 o        1.607    -0.686    27.350     7.058
   296   1 h        0.804     0.327     0.645     1.261
   297   1 h        0.803     0.361     0.563     1.179
   298   8 o        1.609    -0.678    27.126     7.029
   299   1 h        0.804     0.343     0.604     1.221
   300   1 h        0.805     0.334     0.626     1.243
   301   8 o        1.607    -0.674    27.020     7.016
   302   1 h        0.803     0.332     0.631     1.248
   303   1 h        0.804     0.325     0.650     1.266
   304   8 o        1.609    -0.664    26.777     6.984
   305   1 h        0.804     0.334     0.627     1.244
   306   1 h        0.805     0.337     0.620     1.237
   307   8 o        1.608    -0.650    26.408     6.936
   308   1 h        0.806     0.305     0.707     1.321
   309   1 h        0.802     0.341     0.610     1.227
   310   8 o        1.607    -0.671    26.957     7.007
   311   1 h        0.803     0.363     0.559     1.175
   312   1 h        0.803     0.338     0.618     1.235
   313   8 o        1.607    -0.694    27.541     7.083
   314   1 h        0.805     0.326     0.648     1.264
   315   1 h        0.802     0.348     0.593     1.209
   316   8 o        1.609    -0.684    27.282     7.050
   317   1 h        0.805     0.330     0.638     1.254
   318   1 h        0.804     0.350     0.588     1.204
   319   8 o        1.607    -0.666    26.820     6.990
   320   1 h        0.804     0.342     0.608     1.225
   321   1 h        0.803     0.332     0.632     1.249
   322   8 o        1.608    -0.675    27.064     7.021
   323   1 h        0.805     0.330     0.637     1.253
   324   1 h        0.804     0.340     0.612     1.229
   325   8 o        1.606    -0.680    27.193     7.038
   326   1 h        0.804     0.347     0.596     1.213
   327   1 h        0.803     0.353     0.581     1.197
   328   8 o        1.607    -0.669    26.893     6.999
   329   1 h        0.801     0.346     0.597     1.214
   330   1 h        0.806     0.317     0.672     1.287
   331   8 o        1.609    -0.652    26.461     6.943
   332   1 h        0.803     0.352     0.584     1.201
   333   1 h        0.806     0.322     0.657     1.274
   334   8 o        1.609    -0.672    26.987     7.011
   335   1 h        0.804     0.340     0.613     1.230
   336   1 h        0.804     0.340     0.612     1.229
   337   8 o        1.608    -0.676    27.070     7.022
   338   1 h        0.803     0.356     0.574     1.190
   339   1 h        0.805     0.323     0.655     1.271
   340   8 o        1.608    -0.686    27.345     7.058
   341   1 h        0.805     0.326     0.647     1.264
   342   1 h        0.803     0.336     0.622     1.239
   343   8 o        1.608    -0.667    26.848     6.993
   344   1 h        0.804     0.331     0.634     1.251
   345   1 h        0.804     0.342     0.608     1.225
   346   8 o        1.609    -0.641    26.177     6.905
   347   1 h        0.806     0.300     0.721     1.334
   348   1 h        0.803     0.343     0.605     1.222
   349   8 o        1.607    -0.667    26.840     6.992
   350   1 h        0.803     0.340     0.612     1.229
   351   1 h        0.803     0.333     0.629     1.246
   352   8 o        1.608    -0.687    27.354     7.059
   353   1 h        0.803     0.340     0.612     1.229
   354   1 h        0.805     0.335     0.625     1.241
   355   8 o        1.607    -0.695    27.572     7.087
   356   1 h        0.804     0.332     0.631     1.248
   357   1 h        0.803     0.348     0.594     1.210
   358   8 o        1.608    -0.696    27.594     7.090
   359   1 h        0.803     0.339     0.614     1.231
   360   1 h        0.804     0.330     0.636     1.253
   361   8 o        1.605    -0.690    27.452     7.071
   362   1 h        0.802     0.331     0.634     1.251
   363   1 h        0.803     0.337     0.619     1.236
   364   8 o        1.605    -0.698    27.658     7.098
   365   1 h        0.802     0.323     0.656     1.273
   366   1 h        0.802     0.354     0.579     1.195
   367   8 o        1.606    -0.680    27.193     7.038
   368   1 h        0.802     0.331     0.635     1.252
   369   1 h        0.804     0.325     0.651     1.268
   370   8 o        1.609    -0.672    26.977     7.010
   371   1 h        0.804     0.333     0.630     1.246
   372   1 h        0.804     0.337     0.619     1.236
   373   8 o        1.609    -0.674    27.028     7.017
   374   1 h        0.805     0.327     0.644     1.260
   375   1 h        0.804     0.341     0.609     1.226
   376   8 o        1.607    -0.686    27.353     7.059
   377   1 h        0.804     0.328     0.643     1.260
   378   1 h        0.803     0.351     0.586     1.203
   379   8 o        1.608    -0.663    26.744     6.980
   380   1 h        0.803     0.339     0.614     1.231
   381   1 h        0.805     0.313     0.683     1.298
   382   8 o        1.609    -0.663    26.747     6.980
   383   1 h        0.805     0.334     0.628     1.244
   384   1 h        0.804     0.338     0.617     1.234
   385   8 o        1.607    -0.684    27.291     7.051
   386   1 h        0.804     0.354     0.579     1.195
   387   1 h        0.804     0.341     0.611     1.227
   388   8 o        1.607    -0.670    26.919     7.002
   389   1 h        0.802     0.356     0.575     1.191
   390   1 h        0.805     0.315     0.678     1.293
   391   8 o        1.610    -0.651    26.450     6.941
   392   1 h        0.805     0.329     0.641     1.257
   393   1 h        0.805     0.340     0.612     1.229
   394   8 o        1.607    -0.679    27.161     7.034
   395   1 h        0.803     0.330     0.637     1.254
   396   1 h        0.804     0.340     0.612     1.229
   397   8 o        1.607    -0.670    26.931     7.004
   398   1 h        0.802     0.329     0.641     1.258
   399   1 h        0.805     0.332     0.631     1.248
   400   8 o        1.607    -0.674    27.035     7.018
   401   1 h        0.803     0.356     0.575     1.191
   402   1 h        0.804     0.332     0.633     1.250
   403   8 o        1.607    -0.672    26.968     7.009
   404   1 h        0.803     0.327     0.645     1.262
   405   1 h        0.804     0.339     0.616     1.232
   406   8 o        1.605    -0.699    27.695     7.103
   407   1 h        0.804     0.331     0.635     1.251
   408   1 h        0.801     0.336     0.623     1.240
   409   8 o        1.608    -0.663    26.735     6.978
   410   1 h        0.804     0.339     0.615     1.232
   411   1 h        0.804     0.334     0.626     1.243
   412   8 o        1.607    -0.669    26.900     7.000
   413   1 h        0.804     0.329     0.640     1.257
   414   1 h        0.803     0.354     0.578     1.194
   415   8 o        1.608    -0.706    27.869     7.125
   416   1 h        0.804     0.338     0.618     1.235
   417   1 h        0.804     0.339     0.614     1.230
   418   8 o        1.605    -0.677    27.118     7.028
   419   1 h        0.804     0.333     0.629     1.246
   420   1 h        0.802     0.336     0.621     1.238
   421   8 o        1.608    -0.671    26.946     7.006
   422   1 h        0.804     0.330     0.638     1.255
   423   1 h        0.804     0.345     0.599     1.216
   424   8 o        1.609    -0.640    26.165     6.904
   425   1 h        0.806     0.308     0.698     1.313
   426   1 h        0.803     0.346     0.597     1.214
   427   8 o        1.606    -0.690    27.457     7.072
   428   1 h        0.802     0.324     0.652     1.269
   429   1 h        0.804     0.342     0.608     1.225
   430   8 o        1.609    -0.669    26.891     6.999
   431   1 h        0.805     0.327     0.646     1.263
   432   1 h        0.804     0.335     0.625     1.242
   433   8 o        1.607    -0.665    26.800     6.987
   434   1 h        0.802     0.360     0.565     1.181
   435   1 h        0.805     0.316     0.674     1.290
   436   8 o        1.609    -0.664    26.768     6.983
   437   1 h        0.804     0.339     0.614     1.231
   438   1 h        0.805     0.328     0.643     1.260
   439   8 o        1.606    -0.669    26.895     6.999
   440   1 h        0.806     0.308     0.698     1.312
   441   1 h        0.801     0.355     0.578     1.194
   442   8 o        1.609    -0.674    27.019     7.015
   443   1 h        0.805     0.338     0.616     1.233
   444   1 h        0.804     0.339     0.614     1.231
   445   8 o        1.609    -0.676    27.091     7.025
   446   1 h        0.804     0.358     0.569     1.185
   447   1 h        0.805     0.329     0.639     1.255
   448   8 o        1.608    -0.668    26.867     6.996
   449   1 h        0.803     0.348     0.593     1.210
   450   1 h        0.805     0.326     0.649     1.265
   451   8 o        1.607    -0.700    27.704     7.104
   452   1 h        0.804     0.351     0.587     1.203
   453   1 h        0.803     0.347     0.594     1.211
   454   8 o        1.609    -0.680    27.191     7.038
   455   1 h        0.804     0.333     0.629     1.246
   456   1 h        0.804     0.335     0.626     1.242
   457   8 o        1.607    -0.680    27.177     7.036
   458   1 h        0.802     0.356     0.575     1.191
   459   1 h        0.805     0.319     0.668     1.283
   460   8 o        1.609    -0.659    26.652     6.968
   461   1 h        0.804     0.337     0.621     1.238
   462   1 h        0.805     0.331     0.635     1.252
   463   8 o        1.607    -0.673    27.013     7.015
   464   1 h        0.802     0.360     0.567     1.183
   465   1 h        0.806     0.307     0.699     1.314
   466   8 o        1.607    -0.660    26.662     6.969
   467   1 h        0.802     0.344     0.604     1.221
   468   1 h        0.805     0.321     0.661     1.277
   469   8 o        1.608    -0.679    27.164     7.034
   470   1 h        0.804     0.341     0.611     1.227
   471   1 h        0.804     0.329     0.640     1.257
   472   8 o        1.607    -0.687    27.375     7.062
   473   1 h        0.804     0.332     0.633     1.250
   474   1 h        0.802     0.357     0.573     1.189
   475   8 o        1.606    -0.679    27.159     7.034
   476   1 h        0.802     0.360     0.567     1.183
   477   1 h        0.806     0.309     0.694     1.309
   478   8 o        1.609    -0.679    27.147     7.032
   479   1 h        0.805     0.328     0.642     1.258
   480   1 h        0.804     0.342     0.607     1.224
   481   8 o        1.609    -0.671    26.959     7.008
   482   1 h        0.804     0.330     0.639     1.255
   483   1 h        0.805     0.334     0.626     1.243
   484   8 o        1.609    -0.665    26.803     6.987
   485   1 h        0.804     0.339     0.615     1.232
   486   1 h        0.804     0.351     0.586     1.202
   487   8 o        1.608    -0.685    27.320     7.054
   488   1 h        0.804     0.328     0.644     1.260
   489   1 h        0.804     0.334     0.626     1.243
   490   8 o        1.605    -0.700    27.720     7.106
   491   1 h        0.802     0.348     0.592     1.209
   492   1 h        0.803     0.354     0.579     1.196
   493   8 o        1.607    -0.661    26.691     6.973
   494   1 h        0.803     0.335     0.626     1.243
   495   1 h        0.804     0.335     0.625     1.242
   496   8 o        1.609    -0.657    26.596     6.960
   497   1 h        0.804     0.342     0.608     1.225
   498   1 h        0.805     0.328     0.642     1.259
   499   8 o        1.606    -0.683    27.275     7.049
   500   1 h        0.802     0.355     0.577     1.193
   501   1 h        0.804     0.348     0.593     1.209
   502   8 o        1.609    -0.658    26.616     6.963
   503   1 h        0.805     0.339     0.615     1.232
   504   1 h        0.804     0.345     0.600     1.217
   505   8 o        1.608    -0.668    26.869     6.996
   506   1 h        0.802     0.346     0.598     1.215
   507   1 h        0.806     0.303     0.711     1.325
   508   8 o        1.609    -0.644    26.263     6.917
   509   1 h        0.804     0.329     0.640     1.256
   510   1 h        0.805     0.338     0.617     1.234
   511   8 o        1.609    -0.653    26.484     6.946
   512   1 h        0.804     0.332     0.631     1.248
   513   1 h        0.805     0.333     0.631     1.247
   514   8 o        1.609    -0.651    26.450     6.941
   515   1 h        0.803     0.352     0.585     1.201
   516   1 h        0.806     0.312     0.686     1.301
   517   8 o        1.609    -0.667    26.843     6.993
   518   1 h        0.804     0.342     0.608     1.225
   519   1 h        0.805     0.336     0.621     1.238
   520   8 o        1.608    -0.692    27.495     7.077
   521   1 h        0.803     0.355     0.578     1.194
   522   1 h        0.803     0.347     0.594     1.211
   523   8 o        1.608    -0.683    27.273     7.048
   524   1 h        0.803     0.355     0.577     1.193
   525   1 h        0.805     0.318     0.669     1.285
   526   8 o        1.604    -0.664    26.764     6.982
   527   1 h        0.800     0.366     0.554     1.169
   528   1 h        0.806     0.308     0.697     1.311
   529   8 o        1.611    -0.663    26.735     6.979
   530   1 h        0.805     0.332     0.631     1.248
   531   1 h        0.806     0.324     0.654     1.270

 Mol. C6AA /au·bohr⁶  :    1428659.779875
 Mol. C8AA /au·bohr⁸  :   25908241.560597
 Mol. α(0) /au        :       1680.152441


Wiberg/Mayer (AO) data.
largest (>0.10) Wiberg bond orders for each atom

 ---------------------------------------------------------------------------
     #   Z sym  total        # sym  WBO       # sym  WBO       # sym  WBO
 ---------------------------------------------------------------------------
     1   8 o    1.869 --     2 h    0.854     3 h    0.843
     2   1 h    0.888 --     1 o    0.854
     3   1 h    0.879 --     1 o    0.843
     4   8 o    1.882 --     6 h    0.828     5 h    0.816
     5   1 h    0.879 --     4 o    0.816
     6   1 h    0.890 --     4 o    0.828
     7   8 o    1.840 --     8 h    0.820     9 h    0.772
     8   1 h    0.880 --     7 o    0.820
     9   1 h    0.876 --     7 o    0.772
    10   8 o    1.803 --    12 h    0.831    11 h    0.825
    11   1 h    0.884 --    10 o    0.825
    12   1 h    0.889 --    10 o    0.831
    13   8 o    1.844 --    15 h    0.868    14 h    0.820
    14   1 h    0.882 --    13 o    0.820
    15   1 h    0.892 --    13 o    0.868
    16   8 o    1.816 --    17 h    0.838    18 h    0.830
    17   1 h    0.897 --    16 o    0.838
    18   1 h    0.890 --    16 o    0.830
    19   8 o    1.873 --    20 h    0.842    21 h    0.833
    20   1 h    0.891 --    19 o    0.842
    21   1 h    0.878 --    19 o    0.833
    22   8 o    1.849 --    24 h    0.860    23 h    0.824
    23   1 h    0.875 --    22 o    0.824
    24   1 h    0.891 --    22 o    0.860
    25   8 o    1.825 --    26 h    0.833    27 h    0.825
    26   1 h    0.883 --    25 o    0.833
    27   1 h    0.885 --    25 o    0.825
    28   8 o    1.827 --    29 h    0.825    30 h    0.824
    29   1 h    0.885 --    28 o    0.825
    30   1 h    0.887 --    28 o    0.824
    31   8 o    1.839 --    32 h    0.820    33 h    0.815
    32   1 h    0.885 --    31 o    0.820
    33   1 h    0.887 --    31 o    0.815
    34   8 o    1.864 --    36 h    0.854    35 h    0.795
    35   1 h    0.873 --    34 o    0.795
    36   1 h    0.894 --    34 o    0.854
    37   8 o    1.821 --    39 h    0.813    38 h    0.805
    38   1 h    0.883 --    37 o    0.805
    39   1 h    0.892 --    37 o    0.813
    40   8 o    1.865 --    41 h    0.832    42 h    0.803
    41   1 h    0.893 --    40 o    0.832
    42   1 h    0.878 --    40 o    0.803
    43   8 o    1.845 --    44 h    0.871    45 h    0.827
    44   1 h    0.883 --    43 o    0.871
    45   1 h    0.890 --    43 o    0.827
    46   8 o    1.810 --    48 h    0.859    47 h    0.834
    47   1 h    0.878 --    46 o    0.834
    48   1 h    0.893 --    46 o    0.859
    49   8 o    1.869 --    50 h    0.847    51 h    0.798
    50   1 h    0.882 --    49 o    0.847
    51   1 h    0.880 --    49 o    0.798
    52   8 o    1.826 --    53 h    0.848    54 h    0.824
    53   1 h    0.895 --    52 o    0.848
    54   1 h    0.884 --    52 o    0.824
    55   8 o    1.844 --    56 h    0.837    57 h    0.815
    56   1 h    0.886 --    55 o    0.837
    57   1 h    0.877 --    55 o    0.815
    58   8 o    1.846 --    60 h    0.869    59 h    0.802
    59   1 h    0.872 --    58 o    0.802
    60   1 h    0.893 --    58 o    0.869
    61   8 o    1.843 --    62 h    0.871    63 h    0.848
    62   1 h    0.894 --    61 o    0.871
    63   1 h    0.882 --    61 o    0.848
    64   8 o    1.864 --    65 h    0.819    66 h    0.783
    65   1 h    0.884 --    64 o    0.819
    66   1 h    0.871 --    64 o    0.783
    67   8 o    1.853 --    68 h    0.846    69 h    0.764
    68   1 h    0.887 --    67 o    0.846
    69   1 h    0.874 --    67 o    0.764
    70   8 o    1.900 --    72 h    0.835    71 h    0.811
    71   1 h    0.889 --    70 o    0.811
    72   1 h    0.883 --    70 o    0.835
    73   8 o    1.830 --    74 h    0.841    75 h    0.790
    74   1 h    0.888 --    73 o    0.841
    75   1 h    0.879 --    73 o    0.790
    76   8 o    1.813 --    78 h    0.848    77 h    0.831
    77   1 h    0.887 --    76 o    0.831
    78   1 h    0.890 --    76 o    0.848
    79   8 o    1.868 --    81 h    0.820    80 h    0.813
    80   1 h    0.873 --    79 o    0.813
    81   1 h    0.878 --    79 o    0.820
    82   8 o    1.809 --    84 h    0.868    83 h    0.793
    83   1 h    0.875 --    82 o    0.793
    84   1 h    0.896 --    82 o    0.868
    85   8 o    1.857 --    87 h    0.849    86 h    0.825
    86   1 h    0.886 --    85 o    0.825
    87   1 h    0.889 --    85 o    0.849
    88   8 o    1.825 --    90 h    0.895    89 h    0.784
    89   1 h    0.875 --    88 o    0.784
    90   1 h    0.904 --    88 o    0.895
    91   8 o    1.852 --    93 h    0.896    92 h    0.821
    92   1 h    0.874 --    91 o    0.821
    93   1 h    0.899 --    91 o    0.896
    94   8 o    1.866 --    96 h    0.849    95 h    0.796
    95   1 h    0.874 --    94 o    0.796
    96   1 h    0.893 --    94 o    0.849
    97   8 o    1.787 --    99 h    0.869    98 h    0.851
    98   1 h    0.890 --    97 o    0.851
    99   1 h    0.900 --    97 o    0.869
   100   8 o    1.854 --   101 h    0.847   102 h    0.846
   101   1 h    0.885 --   100 o    0.847
   102   1 h    0.886 --   100 o    0.846
   103   8 o    1.841 --   105 h    0.854   104 h    0.827
   104   1 h    0.878 --   103 o    0.827
   105   1 h    0.893 --   103 o    0.854
   106   8 o    1.850 --   107 h    0.848   108 h    0.843
   107   1 h    0.890 --   106 o    0.848
   108   1 h    0.881 --   106 o    0.843
   109   8 o    1.850 --   111 h    0.840   110 h    0.827
   110   1 h    0.877 --   109 o    0.827
   111   1 h    0.885 --   109 o    0.840
   112   8 o    1.864 --   113 h    0.812   114 h    0.811
   113   1 h    0.875 --   112 o    0.812
   114   1 h    0.878 --   112 o    0.811
   115   8 o    1.834 --   116 h    0.865   117 h    0.843
   116   1 h    0.889 --   115 o    0.865
   117   1 h    0.892 --   115 o    0.843
   118   8 o    1.853 --   120 h    0.857   119 h    0.806
   119   1 h    0.882 --   118 o    0.806
   120   1 h    0.887 --   118 o    0.857
   121   8 o    1.806 --   123 h    0.843   122 h    0.820
   122   1 h    0.889 --   121 o    0.820
   123   1 h    0.885 --   121 o    0.843
   124   8 o    1.830 --   125 h    0.840   126 h    0.838
   125   1 h    0.881 --   124 o    0.840
   126   1 h    0.888 --   124 o    0.838
   127   8 o    1.811 --   128 h    0.872   129 h    0.801
   128   1 h    0.899 --   127 o    0.872
   129   1 h    0.874 --   127 o    0.801
   130   8 o    1.861 --   131 h    0.828   132 h    0.822
   131   1 h    0.882 --   130 o    0.828
   132   1 h    0.875 --   130 o    0.822
   133   8 o    1.849 --   134 h    0.831   135 h    0.804
   134   1 h    0.886 --   133 o    0.831
   135   1 h    0.880 --   133 o    0.804
   136   8 o    1.867 --   137 h    0.836   138 h    0.834
   137   1 h    0.893 --   136 o    0.836
   138   1 h    0.895 --   136 o    0.834
   139   8 o    1.871 --   141 h    0.820   140 h    0.805
   140   1 h    0.887 --   139 o    0.805
   141   1 h    0.891 --   139 o    0.820
   142   8 o    1.859 --   144 h    0.829   143 h    0.822
   143   1 h    0.880 --   142 o    0.822
   144   1 h    0.892 --   142 o    0.829
   145   8 o    1.837 --   147 h    0.860   146 h    0.858
   146   1 h    0.888 --   145 o    0.858
   147   1 h    0.896 --   145 o    0.860
   148   8 o    1.845 --   150 h    0.849   149 h    0.800
   149   1 h    0.881 --   148 o    0.800
   150   1 h    0.895 --   148 o    0.849
   151   8 o    1.864 --   152 h    0.842   153 h    0.841
   152   1 h    0.891 --   151 o    0.842
   153   1 h    0.879 --   151 o    0.841
   154   8 o    1.818 --   156 h    0.856   155 h    0.809
   155   1 h    0.877 --   154 o    0.809
   156   1 h    0.898 --   154 o    0.856
   157   8 o    1.851 --   158 h    0.813   159 h    0.809
   158   1 h    0.892 --   157 o    0.813
   159   1 h    0.879 --   157 o    0.809
   160   8 o    1.851 --   161 h    0.822   162 h    0.808
   161   1 h    0.884 --   160 o    0.822
   162   1 h    0.875 --   160 o    0.808
   163   8 o    1.824 --   165 h    0.856   164 h    0.852
   164   1 h    0.891 --   163 o    0.852
   165   1 h    0.896 --   163 o    0.856
   166   8 o    1.867 --   168 h    0.833   167 h    0.797
   167   1 h    0.872 --   166 o    0.797
   168   1 h    0.896 --   166 o    0.833
   169   8 o    1.863 --   170 h    0.893   171 h    0.802
   170   1 h    0.903 --   169 o    0.893
   171   1 h    0.878 --   169 o    0.802
   172   8 o    1.869 --   173 h    0.856   174 h    0.813
   173   1 h    0.891 --   172 o    0.856
   174   1 h    0.870 --   172 o    0.813
   175   8 o    1.830 --   176 h    0.873   177 h    0.833
   176   1 h    0.892 --   175 o    0.873
   177   1 h    0.877 --   175 o    0.833
   178   8 o    1.814 --   179 h    0.880   180 h    0.818
   179   1 h    0.897 --   178 o    0.880
   180   1 h    0.876 --   178 o    0.818
   181   8 o    1.876 --   182 h    0.820   183 h    0.791
   182   1 h    0.886 --   181 o    0.820
   183   1 h    0.871 --   181 o    0.791
   184   8 o    1.851 --   186 h    0.902   185 h    0.792
   185   1 h    0.873 --   184 o    0.792
   186   1 h    0.904 --   184 o    0.902
   187   8 o    1.821 --   189 h    0.840   188 h    0.824
   188   1 h    0.883 --   187 o    0.824
   189   1 h    0.886 --   187 o    0.840
   190   8 o    1.881 --   191 h    0.834   192 h    0.811
   191   1 h    0.873 --   190 o    0.834
   192   1 h    0.878 --   190 o    0.811
   193   8 o    1.867 --   195 h    0.832   194 h    0.821
   194   1 h    0.880 --   193 o    0.821
   195   1 h    0.882 --   193 o    0.832
   196   8 o    1.819 --   198 h    0.879   197 h    0.810
   197   1 h    0.879 --   196 o    0.810
   198   1 h    0.894 --   196 o    0.879
   199   8 o    1.861 --   201 h    0.810   200 h    0.808
   200   1 h    0.878 --   199 o    0.808
   201   1 h    0.876 --   199 o    0.810
   202   8 o    1.865 --   204 h    0.839   203 h    0.831
   203   1 h    0.890 --   202 o    0.831
   204   1 h    0.886 --   202 o    0.839
   205   8 o    1.796 --   206 h    0.902   207 h    0.791
   206   1 h    0.906 --   205 o    0.902
   207   1 h    0.870 --   205 o    0.791
   208   8 o    1.812 --   209 h    0.828   210 h    0.817
   209   1 h    0.885 --   208 o    0.828
   210   1 h    0.887 --   208 o    0.817
   211   8 o    1.847 --   212 h    0.887   213 h    0.817
   212   1 h    0.903 --   211 o    0.887
   213   1 h    0.866 --   211 o    0.817
   214   8 o    1.880 --   215 h    0.824   216 h    0.811
   215   1 h    0.886 --   214 o    0.824
   216   1 h    0.876 --   214 o    0.811
   217   8 o    1.850 --   219 h    0.830   218 h    0.823
   218   1 h    0.885 --   217 o    0.823
   219   1 h    0.882 --   217 o    0.830
   220   8 o    1.835 --   221 h    0.893   222 h    0.800
   221   1 h    0.905 --   220 o    0.893
   222   1 h    0.872 --   220 o    0.800
   223   8 o    1.863 --   225 h    0.858   224 h    0.786
   224   1 h    0.870 --   223 o    0.786
   225   1 h    0.890 --   223 o    0.858
   226   8 o    1.830 --   227 h    0.836   228 h    0.832
   227   1 h    0.892 --   226 o    0.836
   228   1 h    0.890 --   226 o    0.832
   229   8 o    1.875 --   230 h    0.805   231 h    0.798
   230   1 h    0.876 --   229 o    0.805
   231   1 h    0.878 --   229 o    0.798
   232   8 o    1.832 --   233 h    0.849   234 h    0.838
   233   1 h    0.890 --   232 o    0.849
   234   1 h    0.881 --   232 o    0.838
   235   8 o    1.833 --   236 h    0.825   237 h    0.787
   236   1 h    0.883 --   235 o    0.825
   237   1 h    0.875 --   235 o    0.787
   238   8 o    1.836 --   239 h    0.845   240 h    0.813
   239   1 h    0.886 --   238 o    0.845
   240   1 h    0.883 --   238 o    0.813
   241   8 o    1.812 --   243 h    0.851   242 h    0.837
   242   1 h    0.892 --   241 o    0.837
   243   1 h    0.893 --   241 o    0.851
   244   8 o    1.861 --   245 h    0.848   246 h    0.787
   245   1 h    0.896 --   244 o    0.848
   246   1 h    0.871 --   244 o    0.787
   247   8 o    1.879 --   248 h    0.836   249 h    0.825
   248   1 h    0.879 --   247 o    0.836
   249   1 h    0.872 --   247 o    0.825
   250   8 o    1.887 --   251 h    0.827   252 h    0.813
   251   1 h    0.879 --   250 o    0.827
   252   1 h    0.882 --   250 o    0.813
   253   8 o    1.863 --   254 h    0.899   255 h    0.790
   254   1 h    0.903 --   253 o    0.899
   255   1 h    0.883 --   253 o    0.790
   256   8 o    1.822 --   257 h    0.846   258 h    0.789
   257   1 h    0.897 --   256 o    0.846
   258   1 h    0.875 --   256 o    0.789
   259   8 o    1.827 --   261 h    0.840   260 h    0.830
   260   1 h    0.889 --   259 o    0.830
   261   1 h    0.894 --   259 o    0.840
   262   8 o    1.819 --   263 h    0.868   264 h    0.827
   263   1 h    0.894 --   262 o    0.868
   264   1 h    0.880 --   262 o    0.827
   265   8 o    1.867 --   267 h    0.857   266 h    0.805
   266   1 h    0.877 --   265 o    0.805
   267   1 h    0.891 --   265 o    0.857
   268   8 o    1.844 --   269 h    0.844   270 h    0.810
   269   1 h    0.895 --   268 o    0.844
   270   1 h    0.882 --   268 o    0.810
   271   8 o    1.843 --   273 h    0.857   272 h    0.828
   272   1 h    0.890 --   271 o    0.828
   273   1 h    0.890 --   271 o    0.857
   274   8 o    1.876 --   275 h    0.861   276 h    0.809
   275   1 h    0.891 --   274 o    0.861
   276   1 h    0.874 --   274 o    0.809
   277   8 o    1.840 --   279 h    0.826   278 h    0.803
   278   1 h    0.874 --   277 o    0.803
   279   1 h    0.888 --   277 o    0.826
   280   8 o    1.882 --   282 h    0.848   281 h    0.796
   281   1 h    0.879 --   280 o    0.796
   282   1 h    0.894 --   280 o    0.848
   283   8 o    1.843 --   284 h    0.853   285 h    0.849
   284   1 h    0.888 --   283 o    0.853
   285   1 h    0.892 --   283 o    0.849
   286   8 o    1.837 --   287 h    0.873   288 h    0.794
   287   1 h    0.896 --   286 o    0.873
   288   1 h    0.874 --   286 o    0.794
   289   8 o    1.816 --   291 h    0.874   290 h    0.868
   290   1 h    0.889 --   289 o    0.868
   291   1 h    0.892 --   289 o    0.874
   292   8 o    1.834 --   294 h    0.854   293 h    0.777
   293   1 h    0.868 --   292 o    0.777
   294   1 h    0.894 --   292 o    0.854
   295   8 o    1.855 --   296 h    0.854   297 h    0.796
   296   1 h    0.893 --   295 o    0.854
   297   1 h    0.870 --   295 o    0.796
   298   8 o    1.827 --   300 h    0.857   299 h    0.844
   299   1 h    0.882 --   298 o    0.844
   300   1 h    0.888 --   298 o    0.857
   301   8 o    1.833 --   303 h    0.842   302 h    0.823
   302   1 h    0.889 --   301 o    0.823
   303   1 h    0.894 --   301 o    0.842
   304   8 o    1.823 --   306 h    0.865   305 h    0.855
   305   1 h    0.888 --   304 o    0.855
   306   1 h    0.887 --   304 o    0.865
   307   8 o    1.840 --   308 h    0.899   309 h    0.820
   308   1 h    0.907 --   307 o    0.899
   309   1 h    0.884 --   307 o    0.820
   310   8 o    1.901 --   312 h    0.823   311 h    0.809
   311   1 h    0.868 --   310 o    0.809
   312   1 h    0.886 --   310 o    0.823
   313   8 o    1.814 --   314 h    0.868   315 h    0.794
   314   1 h    0.894 --   313 o    0.868
   315   1 h    0.879 --   313 o    0.794
   316   8 o    1.826 --   317 h    0.865   318 h    0.825
   317   1 h    0.891 --   316 o    0.865
   318   1 h    0.877 --   316 o    0.825
   319   8 o    1.882 --   320 h    0.828   321 h    0.825
   320   1 h    0.883 --   319 o    0.828
   321   1 h    0.890 --   319 o    0.825
   322   8 o    1.807 --   323 h    0.851   324 h    0.840
   323   1 h    0.891 --   322 o    0.851
   324   1 h    0.884 --   322 o    0.840
   325   8 o    1.908 --   326 h    0.831   327 h    0.776
   326   1 h    0.880 --   325 o    0.831
   327   1 h    0.875 --   325 o    0.776
   328   8 o    1.837 --   330 h    0.891   329 h    0.795
   329   1 h    0.880 --   328 o    0.795
   330   1 h    0.900 --   328 o    0.891
   331   8 o    1.854 --   333 h    0.890   332 h    0.827
   332   1 h    0.876 --   331 o    0.827
   333   1 h    0.896 --   331 o    0.890
   334   8 o    1.855 --   335 h    0.851   336 h    0.835
   335   1 h    0.885 --   334 o    0.851
   336   1 h    0.884 --   334 o    0.835
   337   8 o    1.853 --   339 h    0.855   338 h    0.807
   338   1 h    0.873 --   337 o    0.807
   339   1 h    0.896 --   337 o    0.855
   340   8 o    1.806 --   341 h    0.861   342 h    0.814
   341   1 h    0.894 --   340 o    0.861
   342   1 h    0.887 --   340 o    0.814
   343   8 o    1.862 --   345 h    0.832   344 h    0.829
   344   1 h    0.890 --   343 o    0.829
   345   1 h    0.883 --   343 o    0.832
   346   8 o    1.850 --   347 h    0.902   348 h    0.817
   347   1 h    0.910 --   346 o    0.902
   348   1 h    0.882 --   346 o    0.817
   349   8 o    1.882 --   351 h    0.829   350 h    0.815
   350   1 h    0.884 --   349 o    0.815
   351   1 h    0.889 --   349 o    0.829
   352   8 o    1.835 --   354 h    0.848   353 h    0.822
   353   1 h    0.884 --   352 o    0.822
   354   1 h    0.888 --   352 o    0.848
   355   8 o    1.849 --   356 h    0.825   357 h    0.800
   356   1 h    0.889 --   355 o    0.825
   357   1 h    0.879 --   355 o    0.800
   358   8 o    1.822 --   360 h    0.834   359 h    0.805
   359   1 h    0.885 --   358 o    0.805
   360   1 h    0.891 --   358 o    0.834
   361   8 o    1.837 --   363 h    0.822   362 h    0.820
   362   1 h    0.890 --   361 o    0.820
   363   1 h    0.886 --   361 o    0.822
   364   8 o    1.844 --   365 h    0.831   366 h    0.800
   365   1 h    0.896 --   364 o    0.831
   366   1 h    0.874 --   364 o    0.800
   367   8 o    1.835 --   369 h    0.856   368 h    0.819
   368   1 h    0.890 --   367 o    0.819
   369   1 h    0.895 --   367 o    0.856
   370   8 o    1.811 --   372 h    0.856   371 h    0.850
   371   1 h    0.889 --   370 o    0.850
   372   1 h    0.886 --   370 o    0.856
   373   8 o    1.810 --   374 h    0.876   375 h    0.838
   374   1 h    0.893 --   373 o    0.876
   375   1 h    0.884 --   373 o    0.838
   376   8 o    1.836 --   377 h    0.840   378 h    0.812
   377   1 h    0.892 --   376 o    0.840
   378   1 h    0.877 --   376 o    0.812
   379   8 o    1.825 --   381 h    0.886   380 h    0.818
   380   1 h    0.885 --   379 o    0.818
   381   1 h    0.902 --   379 o    0.886
   382   8 o    1.838 --   384 h    0.853   383 h    0.851
   383   1 h    0.888 --   382 o    0.851
   384   1 h    0.886 --   382 o    0.853
   385   8 o    1.884 --   387 h    0.832   386 h    0.781
   386   1 h    0.875 --   385 o    0.781
   387   1 h    0.884 --   385 o    0.832
   388   8 o    1.842 --   390 h    0.884   389 h    0.796
   389   1 h    0.873 --   388 o    0.796
   390   1 h    0.901 --   388 o    0.884
   391   8 o    1.839 --   392 h    0.878   393 h    0.859
   392   1 h    0.892 --   391 o    0.878
   393   1 h    0.884 --   391 o    0.859
   394   8 o    1.850 --   395 h    0.828   396 h    0.821
   395   1 h    0.891 --   394 o    0.828
   396   1 h    0.884 --   394 o    0.821
   397   8 o    1.841 --   399 h    0.852   398 h    0.817
   398   1 h    0.892 --   397 o    0.817
   399   1 h    0.889 --   397 o    0.852
   400   8 o    1.868 --   402 h    0.838   401 h    0.811
   401   1 h    0.873 --   400 o    0.811
   402   1 h    0.890 --   400 o    0.838
   403   8 o    1.859 --   405 h    0.826   404 h    0.824
   404   1 h    0.893 --   403 o    0.824
   405   1 h    0.885 --   403 o    0.826
   406   8 o    1.808 --   407 h    0.842   408 h    0.800
   407   1 h    0.890 --   406 o    0.842
   408   1 h    0.887 --   406 o    0.800
   409   8 o    1.851 --   411 h    0.853   410 h    0.840
   410   1 h    0.885 --   409 o    0.840
   411   1 h    0.888 --   409 o    0.853
   412   8 o    1.890 --   413 h    0.832   414 h    0.815
   413   1 h    0.892 --   412 o    0.832
   414   1 h    0.874 --   412 o    0.815
   415   8 o    1.805 --   417 h    0.839   416 h    0.823
   416   1 h    0.886 --   415 o    0.823
   417   1 h    0.885 --   415 o    0.839
   418   8 o    1.879 --   419 h    0.826   420 h    0.803
   419   1 h    0.889 --   418 o    0.826
   420   1 h    0.887 --   418 o    0.803
   421   8 o    1.837 --   422 h    0.857   423 h    0.836
   422   1 h    0.891 --   421 o    0.857
   423   1 h    0.881 --   421 o    0.836
   424   8 o    1.856 --   425 h    0.901   426 h    0.821
   425   1 h    0.905 --   424 o    0.901
   426   1 h    0.880 --   424 o    0.821
   427   8 o    1.833 --   429 h    0.823   428 h    0.821
   428   1 h    0.895 --   427 o    0.821
   429   1 h    0.883 --   427 o    0.823
   430   8 o    1.812 --   431 h    0.879   432 h    0.844
   431   1 h    0.893 --   430 o    0.879
   432   1 h    0.888 --   430 o    0.844
   433   8 o    1.860 --   435 h    0.892   434 h    0.795
   434   1 h    0.870 --   433 o    0.795
   435   1 h    0.900 --   433 o    0.892
   436   8 o    1.834 --   438 h    0.875   437 h    0.836
   437   1 h    0.885 --   436 o    0.836
   438   1 h    0.893 --   436 o    0.875
   439   8 o    1.832 --   440 h    0.900   441 h    0.782
   440   1 h    0.905 --   439 o    0.900
   441   1 h    0.874 --   439 o    0.782
   442   8 o    1.836 --   443 h    0.858   444 h    0.843
   443   1 h    0.885 --   442 o    0.858
   444   1 h    0.885 --   442 o    0.843
   445   8 o    1.844 --   447 h    0.862   446 h    0.817
   446   1 h    0.872 --   445 o    0.817
   447   1 h    0.891 --   445 o    0.862
   448   8 o    1.848 --   450 h    0.861   449 h    0.813
   449   1 h    0.879 --   448 o    0.813
   450   1 h    0.894 --   448 o    0.861
   451   8 o    1.831 --   452 h    0.825   453 h    0.811
   452   1 h    0.877 --   451 o    0.825
   453   1 h    0.879 --   451 o    0.811
   454   8 o    1.800 --   456 h    0.844   455 h    0.844
   455   1 h    0.889 --   454 o    0.844
   456   1 h    0.888 --   454 o    0.844
   457   8 o    1.829 --   459 h    0.878   458 h    0.793
   458   1 h    0.873 --   457 o    0.793
   459   1 h    0.899 --   457 o    0.878
   460   8 o    1.842 --   462 h    0.868   461 h    0.835
   461   1 h    0.887 --   460 o    0.835
   462   1 h    0.890 --   460 o    0.868
   463   8 o    1.835 --   465 h    0.892   464 h    0.782
   464   1 h    0.871 --   463 o    0.782
   465   1 h    0.906 --   463 o    0.892
   466   8 o    1.860 --   468 h    0.882   467 h    0.798
   467   1 h    0.882 --   466 o    0.798
   468   1 h    0.897 --   466 o    0.882
   469   8 o    1.822 --   471 h    0.850   470 h    0.841
   470   1 h    0.884 --   469 o    0.841
   471   1 h    0.892 --   469 o    0.850
   472   8 o    1.861 --   473 h    0.835   474 h    0.794
   473   1 h    0.890 --   472 o    0.835
   474   1 h    0.873 --   472 o    0.794
   475   8 o    1.829 --   477 h    0.889   476 h    0.776
   476   1 h    0.871 --   475 o    0.776
   477   1 h    0.904 --   475 o    0.889
   478   8 o    1.807 --   479 h    0.870   480 h    0.841
   479   1 h    0.892 --   478 o    0.870
   480   1 h    0.883 --   478 o    0.841
   481   8 o    1.822 --   483 h    0.855   482 h    0.844
   482   1 h    0.891 --   481 o    0.844
   483   1 h    0.888 --   481 o    0.855
   484   8 o    1.873 --   485 h    0.842   486 h    0.836
   485   1 h    0.885 --   484 o    0.842
   486   1 h    0.877 --   484 o    0.836
   487   8 o    1.802 --   489 h    0.842   488 h    0.834
   488   1 h    0.893 --   487 o    0.834
   489   1 h    0.888 --   487 o    0.842
   490   8 o    1.854 --   491 h    0.803   492 h    0.792
   491   1 h    0.879 --   490 o    0.803
   492   1 h    0.875 --   490 o    0.792
   493   8 o    1.876 --   495 h    0.843   494 h    0.815
   494   1 h    0.888 --   493 o    0.815
   495   1 h    0.888 --   493 o    0.843
   496   8 o    1.835 --   498 h    0.860   497 h    0.856
   497   1 h    0.883 --   496 o    0.856
   498   1 h    0.892 --   496 o    0.860
   499   8 o    1.881 --   501 h    0.821   500 h    0.803
   500   1 h    0.874 --   499 o    0.803
   501   1 h    0.879 --   499 o    0.821
   502   8 o    1.851 --   503 h    0.854   504 h    0.845
   503   1 h    0.885 --   502 o    0.854
   504   1 h    0.881 --   502 o    0.845
   505   8 o    1.805 --   507 h    0.896   506 h    0.802
   506   1 h    0.880 --   505 o    0.802
   507   1 h    0.908 --   505 o    0.896
   508   8 o    1.861 --   509 h    0.862   510 h    0.859
   509   1 h    0.892 --   508 o    0.862
   510   1 h    0.886 --   508 o    0.859
   511   8 o    1.862 --   513 h    0.861   512 h    0.832
   512   1 h    0.889 --   511 o    0.832
   513   1 h    0.889 --   511 o    0.861
   514   8 o    1.831 --   516 h    0.894   515 h    0.832
   515   1 h    0.876 --   514 o    0.832
   516   1 h    0.902 --   514 o    0.894
   517   8 o    1.832 --   519 h    0.866   518 h    0.850
   518   1 h    0.883 --   517 o    0.850
   519   1 h    0.887 --   517 o    0.866
   520   8 o    1.879 --   522 h    0.808   521 h    0.800
   521   1 h    0.874 --   520 o    0.800
   522   1 h    0.879 --   520 o    0.808
   523   8 o    1.824 --   525 h    0.866   524 h    0.812
   524   1 h    0.874 --   523 o    0.812
   525   1 h    0.899 --   523 o    0.866
   526   8 o    1.859 --   528 h    0.898   527 h    0.761
   527   1 h    0.866 --   526 o    0.761
   528   1 h    0.905 --   526 o    0.898
   529   8 o    1.784 --   531 h    0.890   530 h    0.876
   530   1 h    0.890 --   529 o    0.876
   531   1 h    0.895 --   529 o    0.890
 ---------------------------------------------------------------------------

Topologies differ in total number of bonds
Writing topology from bond orders to xtbtopo.mol

molecular dipole:
                 x           y           z       tot (Debye)
 q only:       -1.637       0.551       3.280
   full:       -0.856       1.218       4.445      11.915
molecular quadrupole (traceless):
                xx          xy          yy          xz          yz          zz
 q only:      208.240      24.964    -117.270     -47.908      34.643     -90.970
  q+dip:      255.786      24.376    -147.998     -55.556      46.749    -107.789
   full:      256.610      24.202    -147.432     -55.512      46.435    -109.178


           -------------------------------------------------
          | TOTAL ENERGY             -901.382390015765 Eh   |
          | GRADIENT NORM               0.104937091440 Eh/α |
          | HOMO-LUMO GAP               7.073291359633 eV   |
           -------------------------------------------------

------------------------------------------------------------------------
 * finished run on 2022/11/17 at 06:54:57.560     
------------------------------------------------------------------------
 total:
 * wall-time:     0 d,  0 h,  0 min,  8.385 sec
 *  cpu-time:     0 d,  0 h,  0 min, 13.920 sec
 * ratio c/w:     1.660 speedup
 SCF:
 * wall-time:     0 d,  0 h,  0 min,  7.795 sec
 *  cpu-time:     0 d,  0 h,  0 min, 12.873 sec
 * ratio c/w:     1.651 speedup

