      -----------------------------------------------------------      
     |                   =====================                   |     
     |                           x T B                           |     
     |                   =====================                   |     
     |                         S. Grimme                         |     
     |          Mulliken Center for Theoretical Chemistry        |     
     |                    University of Bonn                     |     
      -----------------------------------------------------------      

   * xtb version 6.5.1 (579679a) compiled by 'ehlert@majestix' on 2022-07-11

   xtb is free software: you can redistribute it and/or modify it under
   the terms of the GNU Lesser General Public License as published by
   the Free Software Foundation, either version 3 of the License, or
   (at your option) any later version.
   
   xtb is distributed in the hope that it will be useful,
   but WITHOUT ANY WARRANTY; without even the implied warranty of
   MERCHANTABILITY or FITNESS FOR A PARTICULAR PURPOSE.  See the
   GNU Lesser General Public License for more details.
   
   Cite this work as:
   * C. Bannwarth, E. Caldeweyher, S. Ehlert, A. Hansen, P. Pracht,
     J. Seibert, S. Spicher, S. Grimme, WIREs Comput. Mol. Sci., 2020, 11,
     e01493. DOI: 10.1002/wcms.1493
   
   for GFN2-xTB:
   * C. Bannwarth, S. Ehlert and S. Grimme., J. Chem. Theory Comput., 2019,
     15, 1652-1671. DOI: 10.1021/acs.jctc.8b01176
   for GFN1-xTB:
   * S. Grimme, C. Bannwarth, P. Shushkov, J. Chem. Theory Comput., 2017,
     13, 1989-2009. DOI: 10.1021/acs.jctc.7b00118
   for GFN0-xTB:
   * P. Pracht, E. Caldeweyher, S. Ehlert, S. Grimme, ChemRxiv, 2019, preprint.
     DOI: 10.26434/chemrxiv.8326202.v1
   for GFN-FF:
   * S. Spicher and S. Grimme, Angew. Chem. Int. Ed., 2020, 59, 15665-15673.
     DOI: 10.1002/anie.202004239
   
   for ALPB and GBSA implicit solvation:
   * S. Ehlert, M. Stahn, S. Spicher, S. Grimme, J. Chem. Theory Comput.,
     2021, 17, 4250-4261. DOI: 10.1021/acs.jctc.1c00471
   
   for DFT-D4:
   * E. Caldeweyher, C. Bannwarth and S. Grimme, J. Chem. Phys., 2017,
     147, 034112. DOI: 10.1063/1.4993215
   * E. Caldeweyher, S. Ehlert, A. Hansen, H. Neugebauer, S. Spicher,
     C. Bannwarth and S. Grimme, J. Chem. Phys., 2019, 150, 154122.
     DOI: 10.1063/1.5090222
   * E. Caldeweyher, J.-M. Mewes, S. Ehlert and S. Grimme, Phys. Chem. Chem. Phys.
     2020, 22, 8499-8512. DOI: 10.1039/D0CP00502A
   
   for sTDA-xTB:
   * S. Grimme and C. Bannwarth, J. Chem. Phys., 2016, 145, 054103.
     DOI: 10.1063/1.4959605
   
   in the mass-spec context:
   * V. Asgeirsson, C. Bauer and S. Grimme, Chem. Sci., 2017, 8, 4879.
     DOI: 10.1039/c7sc00601b
   * J. Koopman and S. Grimme, ACS Omega 2019, 4, 12, 15120-15133.
     DOI: 10.1021/acsomega.9b02011
   
   for metadynamics refer to:
   * S. Grimme, J. Chem. Theory Comput., 2019, 155, 2847-2862
     DOI: 10.1021/acs.jctc.9b00143
   
   for SPH calculations refer to:
   * S. Spicher and S. Grimme, J. Chem. Theory Comput., 2021, 17, 1701-1714
     DOI: 10.1021/acs.jctc.0c01306
   
   with help from (in alphabetical order)
   P. Atkinson, C. Bannwarth, F. Bohle, G. Brandenburg, E. Caldeweyher
   M. Checinski, S. Dohm, S. Ehlert, S. Ehrlich, I. Gerasimov, C. Hölzer
   A. Katbashev, J. Koopman, C. Lavigne, S. Lehtola, F. März, M. Müller,
   F. Musil, H. Neugebauer, J. Pisarek, C. Plett, P. Pracht, F. Pultar,
   J. Seibert, P. Shushkov, S. Spicher, M. Stahn, M. Steiner, T. Strunk,
   J. Stückrath, T. Rose, and J. Unsleber
   
 * started run on 2022/11/17 at 06:54:59.740     

           -------------------------------------------------
          |                Calculation Setup                |
           -------------------------------------------------

          program call               : xtb solvent_cluster.coord --gfn2 --sp --lmo --chrg 0
          hostname                   : cn0363
          coordinate file            : solvent_cluster.coord
          omp threads                :                     2

   ID    Z sym.   atoms
    1    8 o      1, 4, 7, 10, 13, 16, 19, 22, 25, 28, 31, 34, 37, 40, 43,
                  46, 49, 52, 55, 58, 61, 64, 67, 70, 73, 76, 79, 82, 85, 88,
                  91, 94, 97, 100, 103, 106, 109, 112, 115, 118, 121, 124,
                  127, 130, 133, 136, 139, 142, 145, 148, 151, 154, 157, 160,
                  163, 166, 169, 172, 175, 178, 181, 184, 187, 190, 193, 196,
                  199, 202, 205, 208, 211, 214, 217, 220, 223, 226, 229, 232,
                  235, 238, 241, 244, 247, 250, 253, 256, 259, 262, 265, 268,
                  271, 274, 277, 280, 283, 286, 289, 292, 295, 298, 301, 304,
                  307, 310, 313, 316, 319, 322, 325, 328, 331, 334, 337, 340,
                  343, 346, 349, 352, 355, 358, 361, 364, 367, 370, 373, 376,
                  379, 382, 385, 388, 391, 394, 397, 400, 403, 406, 409, 412,
                  415, 418, 421, 424, 427, 430, 433, 436, 439, 442, 445, 448,
                  451, 454, 457, 460, 463, 466, 469, 472, 475, 478, 481, 484,
                  487, 490, 493, 496, 499, 502, 505, 508, 511, 514, 517, 520,
                  523, 526, 529
    2    1 h      2, 3, 5, 6, 8, 9, 11, 12, 14, 15, 17, 18, 20, 21, 23, 24,
                  26, 27, 29, 30, 32, 33, 35, 36, 38, 39, 41, 42, 44, 45, 47,
                  48, 50, 51, 53, 54, 56, 57, 59, 60, 62, 63, 65, 66, 68, 69,
                  71, 72, 74, 75, 77, 78, 80, 81, 83, 84, 86, 87, 89, 90, 92,
                  93, 95, 96, 98, 99, 101, 102, 104, 105, 107, 108, 110, 111,
                  113, 114, 116, 117, 119, 120, 122, 123, 125, 126, 128, 129,
                  131, 132, 134, 135, 137, 138, 140, 141, 143, 144, 146, 147,
                  149, 150, 152, 153, 155, 156, 158, 159, 161, 162, 164, 165,
                  167, 168, 170, 171, 173, 174, 176, 177, 179, 180, 182, 183,
                  185, 186, 188, 189, 191, 192, 194, 195, 197, 198, 200, 201,
                  203, 204, 206, 207, 209, 210, 212, 213, 215, 216, 218, 219,
                  221, 222, 224, 225, 227, 228, 230, 231, 233, 234, 236, 237,
                  239, 240, 242, 243, 245, 246, 248, 249, 251, 252, 254, 255,
                  257, 258, 260, 261, 263, 264, 266, 267, 269, 270, 272, 273,
                  275, 276, 278, 279, 281, 282, 284, 285, 287, 288, 290, 291,
                  293, 294, 296, 297, 299, 300, 302, 303, 305, 306, 308, 309,
                  311, 312, 314, 315, 317, 318, 320, 321, 323, 324, 326, 327,
                  329, 330, 332, 333, 335, 336, 338, 339, 341, 342, 344, 345,
                  347, 348, 350, 351, 353, 354, 356, 357, 359, 360, 362, 363,
                  365, 366, 368, 369, 371, 372, 374, 375, 377, 378, 380, 381,
                  383, 384, 386, 387, 389, 390, 392, 393, 395, 396, 398, 399,
                  401, 402, 404, 405, 407, 408, 410, 411, 413, 414, 416, 417,
                  419, 420, 422, 423, 425, 426, 428, 429, 431, 432, 434, 435,
                  437, 438, 440, 441, 443, 444, 446, 447, 449, 450, 452, 453,
                  455, 456, 458, 459, 461, 462, 464, 465, 467, 468, 470, 471,
                  473, 474, 476, 477, 479, 480, 482, 483, 485, 486, 488, 489,
                  491, 492, 494, 495, 497, 498, 500, 501, 503, 504, 506, 507,
                  509, 510, 512, 513, 515, 516, 518, 519, 521, 522, 524, 525,
                  527, 528, 530, 531

molecular fragmentation (1/2 indicates fragments):
111222222222222222222222222222222222222222222222222222222222222222222222
222222222222222222222222222222222222222222222222222222222222222222222222
222222222222222222222222222222222222222222222222222222222222222222222222
222222222222222222222222222222222222222222222222222222222222222222222222
222222222222222222222222222222222222222222222222222222222222222222222222
222222222222222222222222222222222222222222222222222222222222222222222222
222222222222222222222222222222222222222222222222222222222222222222222222
222222222222222222222222222
# atoms in fragment 1/2:     3   528
 fragment masses (1/2) :       18.02     3170.69
CMA distance (Bohr)    :   5.857
constraining FC (au)   :  0.0500

           -------------------------------------------------
          |                 G F N 2 - x T B                 |
           -------------------------------------------------

        Reference                      10.1021/acs.jctc.8b01176
      * Hamiltonian:
        H0-scaling (s, p, d)           1.850000    2.230000    2.230000
        zeta-weighting                 0.500000
      * Dispersion:
        s8                             2.700000
        a1                             0.520000
        a2                             5.000000
        s9                             5.000000
      * Repulsion:
        kExp                           1.500000    1.000000
        rExp                           1.000000
      * Coulomb:
        alpha                          2.000000
        third order                    shell-resolved
        anisotropic                    true
        a3                             3.000000
        a5                             4.000000
        cn-shift                       1.200000
        cn-exp                         4.000000
        max-rad                        5.000000


          ...................................................
          :                      SETUP                      :
          :.................................................:
          :  # basis functions                1062          :
          :  # atomic orbitals                1062          :
          :  # shells                          708          :
          :  # electrons                      1416          :
          :  max. iterations                   250          :
          :  Hamiltonian                  GFN2-xTB          :
          :  restarted?                      false          :
          :  GBSA solvation                  false          :
          :  PC potential                    false          :
          :  electronic temp.          300.0000000     K    :
          :  accuracy                    1.0000000          :
          :  -> integral cutoff          0.2500000E+02      :
          :  -> integral neglect         0.1000000E-07      :
          :  -> SCF convergence          0.1000000E-05 Eh   :
          :  -> wf. convergence          0.1000000E-03 e    :
          :  Broyden damping             0.4000000          :
          ...................................................

 iter      E             dE          RMSdq      gap      omega  full diag
   1   -906.5526992 -0.906553E+03  0.407E+00    8.54       0.0  T
   2   -906.6132690 -0.605698E-01  0.241E+00    7.37       1.0  T
   3   -906.6364308 -0.231618E-01  0.219E-01    5.96       1.0  T
   4   -906.6405967 -0.416591E-02  0.473E-02    6.38       1.0  T
   5   -906.6406747 -0.780130E-04  0.317E-02    6.31       1.0  T
   6   -906.6407064 -0.316135E-04  0.462E-03    6.34       1.0  T
   7   -906.6407084 -0.203207E-05  0.774E-04    6.34       5.6  T
   8   -906.6407084 -0.220494E-07  0.412E-04    6.34      10.5  T
   9   -906.6407084 -0.117718E-07  0.644E-05    6.34      67.4  T

   *** convergence criteria satisfied after 9 iterations ***

         #    Occupation            Energy/Eh            Energy/eV
      -------------------------------------------------------------
         1        2.0000           -0.7022425             -19.1090
       ...           ...                  ...                  ...
       702        2.0000           -0.3589753              -9.7682
       703        2.0000           -0.3583133              -9.7502
       704        2.0000           -0.3555948              -9.6762
       705        2.0000           -0.3408141              -9.2740
       706        2.0000           -0.3364983              -9.1566
       707        2.0000           -0.3249705              -8.8429
       708        2.0000           -0.3187691              -8.6741 (HOMO)
       709                         -0.0857273              -2.3328 (LUMO)
       710                         -0.0797125              -2.1691
       711                         -0.0582946              -1.5863
       712                         -0.0553678              -1.5066
       713                         -0.0462214              -1.2577
       ...                                ...                  ...
      1062                          0.4677527              12.7282
      -------------------------------------------------------------
                  HL-Gap            0.2330418 Eh            6.3414 eV
             Fermi-level           -0.2022482 Eh           -5.5035 eV
 
 localization/xTB-IFF output generation
 averaging CT terms over            2  occ. levels
 averaging CT terms over            2  virt. levels
 dipole moment from electron density (au)
     X       Y       Z   
  -0.8092   1.2554   4.0407  total (Debye):   10.950
cpu  time for init local    0.40 s
wall time for init local    0.20 s
 doing rotations ...
 initialization of trafo matrix to unity

 converged in     16 iterations, threshold :   0.99992280D-06
 doing transformations ...
 lmo centers(Z=2) and atoms on file <lmocent.coord>
 LMO Fii/eV  ncent    charge center   contributions...
    1 LP   *******   0.00 -10.21902  11.85191  -8.75895   61O : 15.77  145O :  6.91  217O :  6.73  505O :  6.36   73O :  6.20  175O :  6.14   67O :  5.63  460O :  5.30   10O :  4.92  148O :  4.87   55O :  4.79   82O :  4.60
  259O :  4.54  343O :  4.48  202O :  4.36  481O :  4.08    1O :  4.06   37O :  4.05  352O :  4.03  367O :  4.03  136O :  3.64  154O :  3.50  298O :  3.49   13O :  3.44
  478O :  3.32    4O :  3.06  310O :  3.05  304O :  3.01  313O :  3.00   31O :  2.98   64O :  2.95  238O :  2.93   76O :  2.86  520O :  2.81  235O :  2.78  523O :  2.72
  118O :  2.39   25O :  2.32  517O :  2.29  379O :  2.29  292O :  2.25   58O :  2.23  421O :  2.21   34O :  2.21  214O :  2.09  139O :  2.06  373O :  2.04  121O :  2.00
  277O :  1.97  328O :  1.90  178O :  1.89   52O :  1.89  418O :  1.85  160O :  1.81  493O :  1.77  316O :  1.76  490O :  1.74  337O :  1.73  397O :  1.72  163O :  1.70
  253O :  1.68  208O :  1.66  274O :  1.58  400O :  1.53  205O :  1.53  442O :  1.51  223O :  1.49  451O :  1.47  319O :  1.46  247O :  1.45   28O :  1.43  385O :  1.42
   88O :  1.40  475O :  1.39  382O :  1.38  109O :  1.38  334O :  1.37  133O :  1.36  511O :  1.36  256O :  1.36  412O :  1.34   79O :  1.33  403O :  1.33  502O :  1.30
  529O :  1.29  472O :  1.29   97O :  1.26  283O :  1.25  229O :  1.22    7O :  1.21  445O :  1.21  388O :  1.17  268O :  1.16  427O :  1.16  124O :  1.15  340O :  1.15
   43O :  1.13   66H :  1.12  394O :  1.08  169O :  1.08  151O :  1.08  424O :  1.07  142O :  1.06  526O :  1.01  430O :  1.01  232O :  1.00  211O :  0.98  487O :  0.98
  262O :  0.98  370O :  0.96  514O :  0.95  364O :  0.92   49O :  0.90   70O :  0.89  190O :  0.89  499O :  0.87  112O :  0.87  448O :  0.86   19O :  0.86  250O :  0.86
  103O :  0.83  155H :  0.80  349O :  0.80   94O :  0.79  331O :  0.79   91O :  0.78  346O :  0.78  484O :  0.77  299H :  0.77  457O :  0.75   78H :  0.74  433O :  0.72
  236H :  0.72  187O :  0.70  115O :  0.69  193O :  0.68  376O :  0.68  220O :  0.67  361O :  0.65  127O :  0.65  289O :  0.64  301O :  0.64  469O :  0.63  322O :  0.63
  506H :  0.62  265O :  0.56  100O :  0.55  358O :  0.55  415O :  0.54  355O :  0.53  492H :  0.52  226O :  0.52  307O :  0.49  463O :  0.48   98H :  0.48   85O :  0.48
   26H :  0.47  271O :  0.46    8H :  0.46  199O :  0.45  295O :  0.45  157O :  0.43  150H :  0.43  241O :  0.42  480H :  0.42  196O :  0.42   69H :  0.41  126H :  0.39
  436O :  0.38    3H :  0.38  141H :  0.38  218H :  0.37  137H :  0.36  482H :  0.36  312H :  0.35  406O :  0.35   75H :  0.35  172O :  0.34  429H :  0.34  181O :  0.33
  381H :  0.33  508O :  0.31   77H :  0.31   89H :  0.30  409O :  0.30  306H :  0.30  496O :  0.29  486H :  0.28   54H :  0.28  423H :  0.28   63H :  0.27  444H :  0.26
   56H :  0.26   83H :  0.25  184O :  0.25   12H :  0.24  325O :  0.24  530H :  0.24   53H :  0.23  439O :  0.23  521H :  0.22  123H :  0.22  294H :  0.22  398H :  0.22
  231H :  0.22  335H :  0.21  280O :  0.21  479H :  0.20  483H :  0.20  204H :  0.19  275H :  0.19  286O :  0.19   11H :  0.19   32H :  0.18  503H :  0.18  258H :  0.18
  450H :  0.18  130O :  0.17   16O :  0.17  454O :  0.17  290H :  0.16  466O :  0.16  518H :  0.16   38H :  0.15   39H :  0.15  149H :  0.15  317H :  0.15  244O :  0.15
   46O :  0.14  270H :  0.14  512H :  0.14  249H :  0.14  180H :  0.14  374H :  0.14  380H :  0.13  473H :  0.13  330H :  0.13  179H :  0.13  302H :  0.12   57H :  0.12
  525H :  0.12  315H :  0.12  485H :  0.12  189H :  0.12  465H :  0.12  165H :  0.11  116H :  0.11  102H :  0.11  311H :  0.11  119H :  0.11  510H :  0.11  391O :  0.11
  114H :  0.11  360H :  0.11  209H :  0.11   22O :  0.10  375H :  0.10   14H :  0.10  281H :  0.10   71H :  0.10  120H :  0.10   50H :  0.10  263H :  0.10  173H :  0.10
  416H :  0.10  372H :  0.10  195H :  0.10  377H :  0.10  287H :  0.09  251H :  0.09  144H :  0.09  176H :  0.09  411H :  0.09  110H :  0.09   45H :  0.09  515H :  0.09
  207H :  0.09   15H :  0.09  369H :  0.08  425H :  0.08  267H :  0.08   84H :  0.08  318H :  0.08  261H :  0.08  260H :  0.08  443H :  0.08  166O :  0.08  296H :  0.08
  185H :  0.08  125H :  0.08  147H :  0.07  143H :  0.07  104H :  0.07  491H :  0.07   62H :  0.07  305H :  0.07   21H :  0.07
    2 LP   *******   0.00  14.19759   2.61922  -4.85631  145O :  7.87   61O :  7.51  217O :  4.36  505O :  4.13   73O :  4.02  175O :  3.98   67O :  3.65  460O :  3.45   10O :  3.19  148O :  3.16   55O :  3.11   82O :  2.98
  259O :  2.94  343O :  2.91  202O :  2.83  481O :  2.65    1O :  2.63   37O :  2.63  352O :  2.62  367O :  2.61  136O :  2.36  154O :  2.27  298O :  2.26   13O :  2.23
  478O :  2.15    4O :  1.99  310O :  1.97  304O :  1.95  313O :  1.95   31O :  1.93   64O :  1.91  238O :  1.90   76O :  1.85  520O :  1.82  235O :  1.80  523O :  1.77
  118O :  1.55   25O :  1.50  517O :  1.49  379O :  1.48  292O :  1.46   58O :  1.45  421O :  1.44   34O :  1.43  214O :  1.35  139O :  1.33  373O :  1.33  121O :  1.29
  277O :  1.27  328O :  1.23  178O :  1.22   52O :  1.22  418O :  1.20  160O :  1.17  493O :  1.17  316O :  1.14  337O :  1.12  397O :  1.12  490O :  1.11  163O :  1.11
  253O :  1.09  208O :  1.08  274O :  1.02  400O :  0.99  205O :  0.99  442O :  0.97  223O :  0.97  451O :  0.95  319O :  0.95  247O :  0.94   28O :  0.92  385O :  0.92
   88O :  0.91  475O :  0.90  382O :  0.90  109O :  0.89  334O :  0.89  511O :  0.88  133O :  0.88  256O :  0.88  412O :  0.87   79O :  0.86  403O :  0.86  502O :  0.84
  529O :  0.84  472O :  0.84   97O :  0.82  283O :  0.81  229O :  0.79    7O :  0.79  445O :  0.78  388O :  0.76  268O :  0.75  427O :  0.75  124O :  0.75  340O :  0.74
   43O :  0.73   66H :  0.73  394O :  0.70  169O :  0.70  151O :  0.70  424O :  0.70  142O :  0.69  526O :  0.66  430O :  0.65  232O :  0.65  211O :  0.63  487O :  0.63
  262O :  0.63  370O :  0.62  514O :  0.62  364O :  0.59   49O :  0.58   70O :  0.58  190O :  0.57  499O :  0.57  112O :  0.56  448O :  0.56   19O :  0.56  250O :  0.55
  103O :  0.54  349O :  0.52  155H :  0.52   94O :  0.51  331O :  0.51   91O :  0.51  346O :  0.50  484O :  0.50  299H :  0.50  457O :  0.48   78H :  0.48  433O :  0.47
  236H :  0.47  187O :  0.45  115O :  0.45  376O :  0.44  193O :  0.44  220O :  0.43  361O :  0.42  127O :  0.42  289O :  0.42  301O :  0.42  469O :  0.41  322O :  0.41
  506H :  0.40  265O :  0.36  100O :  0.36  358O :  0.35  415O :  0.35  355O :  0.34  492H :  0.33  307O :  0.32  463O :  0.31  226O :  0.31   98H :  0.31   85O :  0.31
   26H :  0.31  271O :  0.30    8H :  0.30  199O :  0.29  295O :  0.29  157O :  0.28  150H :  0.28  241O :  0.28  480H :  0.27  196O :  0.27   69H :  0.26  126H :  0.25
  436O :  0.25    3H :  0.24  141H :  0.24  218H :  0.24  137H :  0.23  482H :  0.23  312H :  0.23  406O :  0.23   75H :  0.23  172O :  0.22  429H :  0.22  181O :  0.21
  381H :  0.21  508O :  0.20   77H :  0.20   89H :  0.20   63H :  0.19  409O :  0.19  306H :  0.19  496O :  0.19  486H :  0.18   54H :  0.18  423H :  0.18  444H :  0.17
   56H :  0.17   83H :  0.16  184O :  0.16   12H :  0.16  325O :  0.16  530H :  0.15  439O :  0.15   53H :  0.15  521H :  0.14  123H :  0.14  294H :  0.14  398H :  0.14
  231H :  0.14  335H :  0.14  280O :  0.13  479H :  0.13  483H :  0.13  204H :  0.13  286O :  0.12  275H :  0.12   11H :  0.12   32H :  0.12  503H :  0.12  258H :  0.12
  450H :  0.12  130O :  0.11   16O :  0.11  454O :  0.11  290H :  0.10  466O :  0.10  518H :  0.10   38H :  0.10  244O :  0.10   39H :  0.10  149H :  0.10  317H :  0.10
   46O :  0.09  270H :  0.09  512H :  0.09  249H :  0.09  180H :  0.09  374H :  0.09  380H :  0.09  473H :  0.09  330H :  0.08  179H :  0.08  302H :  0.08  525H :  0.08
   57H :  0.08  315H :  0.08  485H :  0.08  189H :  0.08  465H :  0.08  165H :  0.07  102H :  0.07  311H :  0.07  510H :  0.07  391O :  0.07  119H :  0.07  360H :  0.07
    3 LP   *******   0.00 -13.94189 -16.47073  14.80170   61O :  7.51   73O :  7.01  145O :  4.48  217O :  4.37  505O :  4.13  175O :  3.99   67O :  3.66  460O :  3.44   10O :  3.19  148O :  3.16   55O :  3.11   82O :  2.98
  259O :  2.94  343O :  2.91  202O :  2.83  481O :  2.65    1O :  2.64   37O :  2.63  352O :  2.62  367O :  2.61  136O :  2.36  154O :  2.27  298O :  2.26   13O :  2.23
  478O :  2.15    4O :  1.99  310O :  1.98  304O :  1.96  313O :  1.95   31O :  1.93   64O :  1.92  238O :  1.90   76O :  1.85  520O :  1.82  235O :  1.80  523O :  1.77
  118O :  1.55   25O :  1.51  517O :  1.49  379O :  1.48  292O :  1.46   58O :  1.45  421O :  1.44   34O :  1.43  214O :  1.35  139O :  1.34  373O :  1.33  121O :  1.30
  277O :  1.28  328O :  1.23  178O :  1.23   52O :  1.22  418O :  1.20  493O :  1.17  160O :  1.14  316O :  1.14  337O :  1.12  490O :  1.12  397O :  1.12  163O :  1.11
  253O :  1.09  208O :  1.08  274O :  1.02  400O :  0.99  205O :  0.99  442O :  0.98  223O :  0.97  451O :  0.95  319O :  0.95  247O :  0.94   28O :  0.93  385O :  0.92
   88O :  0.91  475O :  0.90  382O :  0.90  109O :  0.89  334O :  0.89  133O :  0.88  511O :  0.88  256O :  0.88  412O :  0.88   79O :  0.86  403O :  0.86  502O :  0.84
  529O :  0.84  472O :  0.84   97O :  0.82  283O :  0.81  229O :  0.79    7O :  0.79  445O :  0.78  388O :  0.76  268O :  0.75  427O :  0.75  124O :  0.75  340O :  0.74
   43O :  0.73   66H :  0.73  151O :  0.71  394O :  0.70  169O :  0.70  424O :  0.70  142O :  0.69  526O :  0.66  430O :  0.66  232O :  0.65  211O :  0.64  487O :  0.63
  262O :  0.63  370O :  0.62  514O :  0.62  364O :  0.60   49O :  0.59  112O :  0.58   70O :  0.58  499O :  0.57  190O :  0.56  448O :  0.56   19O :  0.56  250O :  0.56
  103O :  0.54  155H :  0.52  349O :  0.52   94O :  0.52  331O :  0.51   91O :  0.51  346O :  0.50  484O :  0.50  299H :  0.50  457O :  0.48   78H :  0.48  433O :  0.47
  236H :  0.47  187O :  0.45  115O :  0.45  376O :  0.44  193O :  0.44  220O :  0.43  361O :  0.42  127O :  0.42  289O :  0.42  301O :  0.42  469O :  0.41  322O :  0.41
  506H :  0.40  265O :  0.36  100O :  0.36  358O :  0.35  415O :  0.35  355O :  0.34  492H :  0.33  226O :  0.33   98H :  0.32  307O :  0.32  463O :  0.31   85O :  0.31
   26H :  0.31  271O :  0.30    8H :  0.30  199O :  0.29  295O :  0.29  150H :  0.28  157O :  0.28  241O :  0.28  480H :  0.27  196O :  0.27   69H :  0.26  126H :  0.25
  436O :  0.25    3H :  0.25  141H :  0.24  218H :  0.24  137H :  0.23  482H :  0.23  312H :  0.23  406O :  0.23  172O :  0.22  429H :  0.22  381H :  0.21  508O :  0.20
   75H :  0.20   77H :  0.20   89H :  0.20   63H :  0.20  409O :  0.19  306H :  0.19  496O :  0.19  486H :  0.18  181O :  0.18   54H :  0.18  423H :  0.18  444H :  0.17
   56H :  0.17   83H :  0.16  184O :  0.16   12H :  0.16  325O :  0.16  530H :  0.15   53H :  0.15  439O :  0.15  521H :  0.14  123H :  0.14  294H :  0.14  398H :  0.14
  231H :  0.14  335H :  0.14  280O :  0.13  479H :  0.13  483H :  0.13  204H :  0.13  275H :  0.12   11H :  0.12  286O :  0.12   32H :  0.12  503H :  0.12  258H :  0.12
  450H :  0.12  130O :  0.11   16O :  0.11  183H :  0.11  454O :  0.11  290H :  0.10  466O :  0.10  518H :  0.10   38H :  0.10   39H :  0.10  149H :  0.10  317H :  0.10
  244O :  0.10   46O :  0.09  270H :  0.09  512H :  0.09  249H :  0.09  180H :  0.09  374H :  0.09  380H :  0.09  473H :  0.09  330H :  0.08  179H :  0.08  302H :  0.08
   57H :  0.08  525H :  0.08  315H :  0.08  485H :  0.08  189H :  0.08  465H :  0.08  165H :  0.07  116H :  0.07  102H :  0.07  311H :  0.07  510H :  0.07  119H :  0.07
  391O :  0.07
    4 LP   *******   0.00  22.49884 -58.86558  38.62054   61O :  6.91  505O :  6.81  145O :  4.12  217O :  4.02   73O :  3.70  175O :  3.66   67O :  3.36  460O :  3.16   10O :  2.93  148O :  2.91   55O :  2.86   82O :  2.74
  259O :  2.71  343O :  2.68  202O :  2.60  481O :  2.44    1O :  2.42   37O :  2.42  352O :  2.41  367O :  2.40  136O :  2.17  154O :  2.09  298O :  2.08   13O :  2.05
  478O :  1.98    4O :  1.83  310O :  1.82  304O :  1.80  313O :  1.79   31O :  1.78   64O :  1.76  238O :  1.75   76O :  1.71  520O :  1.67  235O :  1.66  523O :  1.63
  118O :  1.42   25O :  1.38  517O :  1.37  379O :  1.36  292O :  1.34   58O :  1.33  421O :  1.32   34O :  1.32  214O :  1.25  139O :  1.23  373O :  1.22  121O :  1.19
  277O :  1.17  328O :  1.13  178O :  1.13   52O :  1.13  418O :  1.10  160O :  1.08  493O :  1.08  316O :  1.05  337O :  1.03  397O :  1.03  490O :  1.03  163O :  1.02
  253O :  1.00  208O :  0.99  274O :  0.94  400O :  0.91  205O :  0.91  442O :  0.90  223O :  0.89  247O :  0.89  451O :  0.88  319O :  0.87   28O :  0.85  385O :  0.85
   88O :  0.83  475O :  0.83  382O :  0.83  109O :  0.82  334O :  0.82  511O :  0.82  133O :  0.81  256O :  0.81  412O :  0.80   79O :  0.79  403O :  0.79  502O :  0.77
  529O :  0.77  472O :  0.77   97O :  0.75  283O :  0.75  229O :  0.73    7O :  0.72  445O :  0.72  388O :  0.70  268O :  0.69  427O :  0.69  124O :  0.69  340O :  0.68
   43O :  0.68   66H :  0.67  394O :  0.65  169O :  0.64  151O :  0.64  424O :  0.64  142O :  0.63  526O :  0.61  430O :  0.60  232O :  0.60  211O :  0.58  487O :  0.58
  262O :  0.58  370O :  0.57  514O :  0.57  364O :  0.55   49O :  0.54   70O :  0.53  190O :  0.53  499O :  0.52  112O :  0.52  448O :  0.51   19O :  0.51  250O :  0.51
  103O :  0.50  155H :  0.48  349O :  0.48   94O :  0.47  331O :  0.47   91O :  0.47  346O :  0.46  484O :  0.46  299H :  0.46  457O :  0.45   78H :  0.44  433O :  0.43
  236H :  0.43  187O :  0.42  115O :  0.41  193O :  0.41  376O :  0.41  220O :  0.40  361O :  0.39  127O :  0.39  289O :  0.38  301O :  0.38  469O :  0.38  322O :  0.38
  506H :  0.34  265O :  0.33  100O :  0.33  358O :  0.33  415O :  0.32  355O :  0.31  226O :  0.31  492H :  0.30  307O :  0.29  463O :  0.29   98H :  0.29   85O :  0.28
   26H :  0.28  271O :  0.28    8H :  0.27  199O :  0.27  295O :  0.27  157O :  0.25  150H :  0.25  241O :  0.25  480H :  0.25  196O :  0.25   69H :  0.24  126H :  0.23
  436O :  0.23  141H :  0.23    3H :  0.22  218H :  0.22  137H :  0.22  482H :  0.21  312H :  0.21  406O :  0.21   75H :  0.21  172O :  0.21  429H :  0.21  181O :  0.20
  381H :  0.20  508O :  0.19   77H :  0.18   89H :  0.18   63H :  0.18  306H :  0.18  409O :  0.18  496O :  0.17  486H :  0.17   54H :  0.17  423H :  0.16  444H :  0.16
   56H :  0.16   83H :  0.15  184O :  0.15   12H :  0.15  325O :  0.14  530H :  0.14   53H :  0.14  439O :  0.14  521H :  0.13  123H :  0.13  294H :  0.13  398H :  0.13
  231H :  0.13  335H :  0.13  280O :  0.12  479H :  0.12  483H :  0.12  204H :  0.12  275H :  0.11  286O :  0.11   11H :  0.11   32H :  0.11  503H :  0.11  258H :  0.11
  450H :  0.11  130O :  0.10   16O :  0.10  454O :  0.10  290H :  0.10  466O :  0.09  518H :  0.09   38H :  0.09   39H :  0.09  149H :  0.09  317H :  0.09  244O :  0.09
   46O :  0.09  270H :  0.09  249H :  0.08  512H :  0.08  180H :  0.08  374H :  0.08  380H :  0.08  473H :  0.08  330H :  0.08  179H :  0.08  302H :  0.07   57H :  0.07
  525H :  0.07  315H :  0.07  485H :  0.07
    5 LP   *******   0.00  38.14335 -40.64556  -1.27844   61O :  6.23  217O :  6.00  145O :  3.72  505O :  3.43   73O :  3.34  175O :  3.31   67O :  3.03  460O :  2.85   10O :  2.65  148O :  2.62   55O :  2.58   82O :  2.47
  259O :  2.44  343O :  2.42  202O :  2.35  481O :  2.20    1O :  2.19   37O :  2.18  352O :  2.17  367O :  2.17  136O :  1.96  154O :  1.89  298O :  1.88   13O :  1.85
  478O :  1.79    4O :  1.65  310O :  1.64  304O :  1.62  313O :  1.62   31O :  1.60   64O :  1.60  238O :  1.58   76O :  1.54  520O :  1.51  235O :  1.50  523O :  1.47
  118O :  1.28   25O :  1.25  517O :  1.23  379O :  1.23  292O :  1.21   58O :  1.20  421O :  1.19   34O :  1.19  214O :  1.12  139O :  1.11  373O :  1.10  121O :  1.07
  277O :  1.06   52O :  1.03  328O :  1.02  178O :  1.02  418O :  1.00  160O :  0.97  493O :  0.97  316O :  0.95  337O :  0.93  397O :  0.93  490O :  0.92  163O :  0.92
  253O :  0.90  208O :  0.89  274O :  0.85  400O :  0.83  205O :  0.82  442O :  0.81  223O :  0.80  451O :  0.79  319O :  0.79  247O :  0.78   28O :  0.77  385O :  0.76
   88O :  0.75  475O :  0.75  382O :  0.74  109O :  0.74  334O :  0.74  133O :  0.73  511O :  0.73  256O :  0.73  412O :  0.72   79O :  0.72  403O :  0.70  502O :  0.70
  529O :  0.70  472O :  0.70   97O :  0.68  283O :  0.68  229O :  0.66    7O :  0.65  445O :  0.65  388O :  0.63  268O :  0.62  427O :  0.62  124O :  0.62   66H :  0.62
  340O :  0.62   43O :  0.61  394O :  0.58  169O :  0.58  151O :  0.58  424O :  0.58  142O :  0.57  526O :  0.55  430O :  0.54  232O :  0.54  487O :  0.53  211O :  0.53
  262O :  0.53  370O :  0.52  514O :  0.51  364O :  0.49   49O :  0.49   70O :  0.48  190O :  0.48  499O :  0.47  112O :  0.47   19O :  0.46  448O :  0.46  250O :  0.46
  103O :  0.45  349O :  0.43  155H :  0.43   94O :  0.43  331O :  0.43   91O :  0.42  346O :  0.42  484O :  0.42  299H :  0.41  457O :  0.40   78H :  0.40  433O :  0.39
  236H :  0.39  187O :  0.38  115O :  0.37  376O :  0.37  193O :  0.37  220O :  0.36  361O :  0.35  127O :  0.35  289O :  0.35  301O :  0.35  469O :  0.34  322O :  0.34
  506H :  0.33  265O :  0.30  100O :  0.30  358O :  0.29  415O :  0.29  355O :  0.28  226O :  0.28  492H :  0.27  307O :  0.26  463O :  0.26   98H :  0.26   85O :  0.26
   26H :  0.25  271O :  0.25    8H :  0.25  295O :  0.24  157O :  0.23  199O :  0.23  150H :  0.23  241O :  0.23  480H :  0.23  196O :  0.23   69H :  0.22    3H :  0.21
  126H :  0.21  436O :  0.20  141H :  0.20  137H :  0.19  482H :  0.19  312H :  0.19  406O :  0.19   75H :  0.19  172O :  0.19  429H :  0.19  218H :  0.18  181O :  0.18
  381H :  0.18  508O :  0.17   77H :  0.17   89H :  0.16   63H :  0.16   54H :  0.16  409O :  0.16  306H :  0.16  496O :  0.16  486H :  0.15  423H :  0.15  444H :  0.14
   56H :  0.14   83H :  0.13  184O :  0.13   12H :  0.13  325O :  0.13  530H :  0.13   53H :  0.12  439O :  0.12  521H :  0.12  294H :  0.12  398H :  0.12  231H :  0.12
  335H :  0.11  123H :  0.11  280O :  0.11  479H :  0.11  483H :  0.11  204H :  0.10  286O :  0.10  275H :  0.10   11H :  0.10   16O :  0.10   32H :  0.10  503H :  0.10
  258H :  0.10  450H :  0.10  130O :  0.09  454O :  0.09  290H :  0.09  466O :  0.09  518H :  0.08   38H :  0.08   39H :  0.08  149H :  0.08  317H :  0.08  244O :  0.08
   46O :  0.08  270H :  0.08  512H :  0.08  249H :  0.08  180H :  0.08  374H :  0.07  380H :  0.07  473H :  0.07
    6 LP   *******   0.00  35.06800 -28.93162  11.78368   61O :  6.19   10O :  4.99  145O :  3.70  217O :  3.62  505O :  3.40   73O :  3.32  175O :  3.29   67O :  3.02  460O :  2.84  148O :  2.61   55O :  2.55   82O :  2.46
  259O :  2.43  343O :  2.40  202O :  2.33  481O :  2.19   37O :  2.17    1O :  2.16  352O :  2.16  367O :  2.15  136O :  1.95  154O :  1.87  298O :  1.87   13O :  1.84
  478O :  1.78    4O :  1.64  310O :  1.63  304O :  1.61  313O :  1.61   31O :  1.59   64O :  1.58  238O :  1.56   76O :  1.53  520O :  1.50  235O :  1.49  523O :  1.46
  118O :  1.28   25O :  1.24  517O :  1.23  379O :  1.22  292O :  1.20   58O :  1.19  421O :  1.18   34O :  1.18  214O :  1.12  139O :  1.10  373O :  1.09  121O :  1.07
  277O :  1.05  328O :  1.02  178O :  1.01   52O :  1.01  418O :  0.99  160O :  0.97  493O :  0.96  316O :  0.94  337O :  0.93  397O :  0.92  490O :  0.92  163O :  0.91
  253O :  0.90  208O :  0.89  274O :  0.84  400O :  0.82  205O :  0.82  442O :  0.80  223O :  0.80  451O :  0.79  319O :  0.78  247O :  0.78   28O :  0.76  385O :  0.76
   88O :  0.75  475O :  0.74  382O :  0.74  109O :  0.74  334O :  0.74  511O :  0.73  256O :  0.73  133O :  0.73  412O :  0.72   79O :  0.71  403O :  0.71  502O :  0.69
  529O :  0.69  472O :  0.69   97O :  0.68  283O :  0.67  229O :  0.65    7O :  0.65  445O :  0.65  388O :  0.63  268O :  0.62  427O :  0.62  124O :  0.62  340O :  0.61
   43O :  0.61   66H :  0.61  394O :  0.58  169O :  0.58  151O :  0.58  424O :  0.57  142O :  0.57  526O :  0.54  430O :  0.54  232O :  0.54  211O :  0.52  487O :  0.52
  262O :  0.52  370O :  0.51  514O :  0.51  364O :  0.49   49O :  0.48   70O :  0.48  190O :  0.47  499O :  0.47  112O :  0.47  448O :  0.46   19O :  0.46  250O :  0.46
  103O :  0.45  349O :  0.43  155H :  0.43   94O :  0.42  331O :  0.42   91O :  0.42  346O :  0.42  484O :  0.41  299H :  0.41  457O :  0.40   78H :  0.40  433O :  0.39
  236H :  0.38  187O :  0.37  115O :  0.37  376O :  0.37  193O :  0.36  220O :  0.36  361O :  0.35  127O :  0.35  289O :  0.34  301O :  0.34  469O :  0.34  322O :  0.34
  506H :  0.33  265O :  0.30  100O :  0.30  358O :  0.29  415O :  0.29  355O :  0.28  226O :  0.28  492H :  0.27  307O :  0.26  463O :  0.26   98H :  0.26   85O :  0.26
   26H :  0.25  271O :  0.25    8H :  0.24  199O :  0.24  295O :  0.24  157O :  0.23  150H :  0.23  241O :  0.23  480H :  0.23  196O :  0.22   69H :  0.22  126H :  0.21
  436O :  0.20  141H :  0.20  218H :  0.20  137H :  0.19  482H :  0.19  312H :  0.19  406O :  0.19   75H :  0.19  172O :  0.18  429H :  0.18    3H :  0.18  181O :  0.18
  381H :  0.18  508O :  0.17   77H :  0.17   89H :  0.16   63H :  0.16  409O :  0.16  306H :  0.16  496O :  0.15  486H :  0.15  423H :  0.15  444H :  0.14   54H :  0.14
   56H :  0.14   83H :  0.13  184O :  0.13  325O :  0.13  530H :  0.13   53H :  0.12  439O :  0.12  521H :  0.12  123H :  0.12  294H :  0.12  398H :  0.12  231H :  0.12
  335H :  0.11  280O :  0.11  479H :  0.11  483H :  0.10  204H :  0.10  275H :  0.10  286O :  0.10   32H :  0.10  503H :  0.10  258H :  0.10  450H :  0.10   12H :  0.09
  130O :  0.09   16O :  0.09  454O :  0.09  290H :  0.09  466O :  0.08  518H :  0.08   38H :  0.08   39H :  0.08  149H :  0.08  317H :  0.08  244O :  0.08   46O :  0.08
  270H :  0.08  512H :  0.08  249H :  0.08   11H :  0.07  180H :  0.07  374H :  0.07  380H :  0.07  473H :  0.07
    7 LP   *******   0.00  64.91141 -23.96209  31.98316   61O :  5.93  259O :  4.98  145O :  3.53  217O :  3.44  505O :  3.26   73O :  3.17  175O :  3.14   67O :  2.88  460O :  2.71   10O :  2.52  148O :  2.49   55O :  2.46
   82O :  2.35  343O :  2.30  202O :  2.23  481O :  2.09    1O :  2.08   37O :  2.07  352O :  2.06  367O :  2.06  136O :  1.86  154O :  1.79  298O :  1.78   13O :  1.76
  478O :  1.70    4O :  1.57  310O :  1.56  304O :  1.54  313O :  1.54   31O :  1.52   64O :  1.51  238O :  1.50   76O :  1.46  520O :  1.44  235O :  1.42  523O :  1.39
  118O :  1.22   25O :  1.19  517O :  1.17  379O :  1.17  292O :  1.15   58O :  1.14  421O :  1.13   34O :  1.13  214O :  1.07  139O :  1.05  373O :  1.05  121O :  1.02
  277O :  1.01  328O :  0.97  178O :  0.97   52O :  0.97  418O :  0.95  160O :  0.93  493O :  0.92  316O :  0.90  163O :  0.89  337O :  0.89  397O :  0.88  490O :  0.88
  253O :  0.86  208O :  0.85  274O :  0.80  400O :  0.78  205O :  0.78  442O :  0.77  223O :  0.76  319O :  0.76  451O :  0.75  247O :  0.74   28O :  0.73  385O :  0.73
   88O :  0.71  475O :  0.71  382O :  0.71  109O :  0.70  334O :  0.70  511O :  0.70  133O :  0.70  256O :  0.70  412O :  0.69   79O :  0.68  403O :  0.68  502O :  0.66
  529O :  0.66  472O :  0.66   97O :  0.65  283O :  0.64  229O :  0.62    7O :  0.62  445O :  0.62  388O :  0.60  427O :  0.59  124O :  0.59  268O :  0.59  340O :  0.59
   43O :  0.58   66H :  0.58  394O :  0.56  169O :  0.55  151O :  0.55  424O :  0.55  142O :  0.54  526O :  0.52  430O :  0.52  232O :  0.51  487O :  0.51  211O :  0.50
  262O :  0.50  370O :  0.49  514O :  0.49  364O :  0.47   49O :  0.46  190O :  0.45   70O :  0.45  112O :  0.45  448O :  0.44   19O :  0.44  250O :  0.44  499O :  0.44
  103O :  0.43  155H :  0.41  349O :  0.41   94O :  0.41  331O :  0.41   91O :  0.40  346O :  0.40  484O :  0.40  299H :  0.39  457O :  0.38   78H :  0.38  433O :  0.37
  236H :  0.37  187O :  0.36  193O :  0.36  115O :  0.35  376O :  0.35  220O :  0.34  301O :  0.34  361O :  0.33  127O :  0.33  289O :  0.33  469O :  0.32  322O :  0.32
  506H :  0.32  265O :  0.29  100O :  0.28  358O :  0.28  415O :  0.28  355O :  0.27  226O :  0.26  492H :  0.26  307O :  0.25  463O :  0.25   98H :  0.25   85O :  0.24
   26H :  0.24  271O :  0.24    8H :  0.23  199O :  0.23  295O :  0.23  157O :  0.22  150H :  0.22  241O :  0.22  480H :  0.22  196O :  0.22   69H :  0.21  126H :  0.20
  436O :  0.19    3H :  0.19  141H :  0.19  218H :  0.19  137H :  0.19  482H :  0.18  312H :  0.18  406O :  0.18   75H :  0.18  172O :  0.18  429H :  0.18  181O :  0.17
  381H :  0.17  508O :  0.16   77H :  0.16   89H :  0.15   63H :  0.15  409O :  0.15  306H :  0.15  496O :  0.15  486H :  0.15   54H :  0.14  423H :  0.14  444H :  0.14
   56H :  0.13   83H :  0.13  184O :  0.13   12H :  0.12  325O :  0.12  530H :  0.12   53H :  0.12  439O :  0.12  521H :  0.11  123H :  0.11  294H :  0.11  398H :  0.11
  335H :  0.11  231H :  0.11  280O :  0.11  479H :  0.10  483H :  0.10  204H :  0.10  286O :  0.10   11H :  0.10   32H :  0.09  503H :  0.09  258H :  0.09  450H :  0.09
  130O :  0.09   16O :  0.09  454O :  0.09  290H :  0.08  466O :  0.08  518H :  0.08   38H :  0.08   39H :  0.08  149H :  0.08  317H :  0.08  244O :  0.08   46O :  0.07
  275H :  0.07  512H :  0.07  249H :  0.07  270H :  0.07  180H :  0.07
    8 LP   *******   0.00  46.86000 -10.56697  25.05405   61O :  5.43   67O :  4.96  145O :  3.24  217O :  3.15  505O :  2.98   73O :  2.91  175O :  2.88  460O :  2.49   10O :  2.31  148O :  2.28   55O :  2.25   82O :  2.15
  259O :  2.13  343O :  2.10  202O :  2.05  481O :  1.92    1O :  1.90   37O :  1.90  352O :  1.89  367O :  1.89  136O :  1.71  154O :  1.64  298O :  1.63   13O :  1.61
  478O :  1.56    4O :  1.44  310O :  1.43  304O :  1.41  313O :  1.41   31O :  1.40   64O :  1.39  238O :  1.37   76O :  1.35  520O :  1.32  235O :  1.31  523O :  1.28
  118O :  1.12   25O :  1.09  517O :  1.07  379O :  1.07  292O :  1.06   58O :  1.05  421O :  1.04   34O :  0.99  214O :  0.98  139O :  0.96  373O :  0.96  121O :  0.94
  277O :  0.92  328O :  0.89  178O :  0.89   52O :  0.88  418O :  0.87  160O :  0.85  493O :  0.85  316O :  0.82  337O :  0.81  397O :  0.81  490O :  0.81  163O :  0.80
  253O :  0.79  208O :  0.78  274O :  0.74  400O :  0.72  205O :  0.72  442O :  0.70  223O :  0.70  451O :  0.69  247O :  0.68  319O :  0.68  385O :  0.66   28O :  0.66
   88O :  0.66  475O :  0.65  382O :  0.65  109O :  0.64  334O :  0.64  256O :  0.64  511O :  0.64  133O :  0.64  412O :  0.63   79O :  0.62  403O :  0.62  502O :  0.61
  529O :  0.61  472O :  0.61   97O :  0.59  283O :  0.59    7O :  0.58  229O :  0.57  445O :  0.57  388O :  0.55  427O :  0.54  124O :  0.54  340O :  0.54   43O :  0.53
   66H :  0.53  268O :  0.52  394O :  0.51  169O :  0.51  424O :  0.50  151O :  0.50  142O :  0.50  526O :  0.48  430O :  0.47  232O :  0.47  211O :  0.46  487O :  0.46
  262O :  0.46  370O :  0.45  514O :  0.45  364O :  0.43   49O :  0.42   70O :  0.42  190O :  0.41  499O :  0.41  112O :  0.41   19O :  0.40  448O :  0.40  250O :  0.40
  103O :  0.39  155H :  0.38  349O :  0.38   94O :  0.37  331O :  0.37   78H :  0.37   91O :  0.37  346O :  0.36  484O :  0.36  299H :  0.36  457O :  0.35  433O :  0.34
  115O :  0.34  236H :  0.34  187O :  0.33  193O :  0.32  376O :  0.32  220O :  0.31  361O :  0.31  127O :  0.30  289O :  0.30  301O :  0.30  469O :  0.30  322O :  0.30
  506H :  0.29  265O :  0.26  100O :  0.26  358O :  0.26  415O :  0.25  355O :  0.25  226O :  0.24  492H :  0.24  307O :  0.23  463O :  0.23   98H :  0.22   85O :  0.22
   26H :  0.22  271O :  0.22  199O :  0.21  295O :  0.21  157O :  0.20  150H :  0.20  241O :  0.20  480H :  0.20  196O :  0.20    8H :  0.19  126H :  0.18  436O :  0.18
    3H :  0.18  141H :  0.18  218H :  0.17   69H :  0.17  137H :  0.17  482H :  0.17  312H :  0.17  406O :  0.16   75H :  0.16  172O :  0.16  429H :  0.16  181O :  0.15
  381H :  0.15  508O :  0.15   77H :  0.14   89H :  0.14   63H :  0.14  409O :  0.14  306H :  0.14  496O :  0.14  486H :  0.13   54H :  0.13  423H :  0.13  444H :  0.12
   56H :  0.12   83H :  0.12  184O :  0.12   12H :  0.12  325O :  0.11  530H :  0.11   53H :  0.11  439O :  0.11  521H :  0.10  123H :  0.10  294H :  0.10  398H :  0.10
  231H :  0.10  335H :  0.10  280O :  0.10  479H :  0.09  483H :  0.09  204H :  0.09  275H :  0.09  286O :  0.09   11H :  0.09   32H :  0.09  503H :  0.08  450H :  0.08
  258H :  0.08  130O :  0.08   16O :  0.08  454O :  0.08  290H :  0.08  466O :  0.07  518H :  0.07   38H :  0.07   39H :  0.07
    9 LP   *******   0.00   7.50573 -31.32231 -24.92904   61O :  5.41   82O :  4.34  145O :  3.22  217O :  3.14  505O :  2.97   73O :  2.89  175O :  2.87   67O :  2.63  460O :  2.47   10O :  2.29   55O :  2.24  148O :  2.23
  259O :  2.12  343O :  2.09  202O :  2.04  481O :  1.91    1O :  1.90   37O :  1.89  352O :  1.88  367O :  1.88  136O :  1.70  154O :  1.64  298O :  1.63   13O :  1.60
  478O :  1.55    4O :  1.43  310O :  1.42  304O :  1.41  313O :  1.40   31O :  1.39   64O :  1.38  238O :  1.37   76O :  1.33  520O :  1.31  235O :  1.30  523O :  1.27
  118O :  1.11   25O :  1.08  517O :  1.07  379O :  1.07  292O :  1.05  421O :  1.05   58O :  1.04   34O :  1.03  214O :  0.97  139O :  0.96  373O :  0.95  121O :  0.93
  277O :  0.92  328O :  0.89  178O :  0.88   52O :  0.88  418O :  0.86  160O :  0.84  493O :  0.84  316O :  0.82  337O :  0.81  397O :  0.80  490O :  0.80  163O :  0.80
  253O :  0.78  208O :  0.78  400O :  0.74  274O :  0.74  205O :  0.71  442O :  0.70  223O :  0.70  451O :  0.69  319O :  0.68  247O :  0.68   28O :  0.67  385O :  0.66
   88O :  0.65  475O :  0.65  382O :  0.65  109O :  0.64  334O :  0.64  133O :  0.64  511O :  0.64  256O :  0.64  412O :  0.63   79O :  0.62  403O :  0.62  502O :  0.61
  529O :  0.60  472O :  0.60   97O :  0.59  283O :  0.59  229O :  0.57    7O :  0.57  445O :  0.56  388O :  0.55  268O :  0.54  427O :  0.54  124O :  0.54  340O :  0.54
   66H :  0.53   43O :  0.51  394O :  0.51  169O :  0.50  151O :  0.50  424O :  0.50  142O :  0.50  526O :  0.47  430O :  0.47  232O :  0.47  211O :  0.46  487O :  0.46
  262O :  0.46  370O :  0.45  514O :  0.44  364O :  0.43   49O :  0.42   70O :  0.42  190O :  0.41  499O :  0.41  112O :  0.41  448O :  0.40   19O :  0.40  250O :  0.40
  103O :  0.39  349O :  0.38  155H :  0.38   94O :  0.37  331O :  0.37   91O :  0.37  346O :  0.36  484O :  0.36  299H :  0.36  457O :  0.35   78H :  0.35  433O :  0.34
  236H :  0.34  187O :  0.33  115O :  0.32  193O :  0.32  376O :  0.32  220O :  0.31  361O :  0.31  127O :  0.30  301O :  0.30  289O :  0.30  469O :  0.29  322O :  0.29
  506H :  0.29  265O :  0.26  100O :  0.26  358O :  0.26  415O :  0.25  355O :  0.25  226O :  0.24  492H :  0.24  307O :  0.23  463O :  0.23   98H :  0.22   85O :  0.22
   26H :  0.22  271O :  0.22    8H :  0.21  199O :  0.21  295O :  0.21  157O :  0.20  241O :  0.20  480H :  0.20  196O :  0.20   69H :  0.19  126H :  0.18  436O :  0.18
    3H :  0.18  141H :  0.18  218H :  0.17  137H :  0.17  482H :  0.17  312H :  0.17  406O :  0.16   75H :  0.16  429H :  0.16  172O :  0.16  181O :  0.15  381H :  0.15
  508O :  0.15   77H :  0.14   89H :  0.14   63H :  0.14  409O :  0.14  306H :  0.14  496O :  0.13  486H :  0.13  423H :  0.13   54H :  0.13  150H :  0.13  444H :  0.12
   56H :  0.12  184O :  0.12   12H :  0.11  325O :  0.11  530H :  0.11   53H :  0.11  439O :  0.11  521H :  0.10  123H :  0.10  294H :  0.10  398H :  0.10  231H :  0.10
  335H :  0.10  280O :  0.10   83H :  0.10  479H :  0.09  483H :  0.09  204H :  0.09  275H :  0.09  286O :  0.09   11H :  0.09   32H :  0.09  503H :  0.08  258H :  0.08
  450H :  0.08  130O :  0.08   16O :  0.08  454O :  0.08  290H :  0.07  466O :  0.07  518H :  0.07   38H :  0.07  149H :  0.07   39H :  0.07
   10 LP   *******   0.00  26.15992   1.14028  23.38888   61O :  5.17  202O :  4.03  145O :  3.08  217O :  3.01  505O :  2.84   73O :  2.77  175O :  2.74   67O :  2.52  460O :  2.37   10O :  2.20  148O :  2.18   55O :  2.14
   82O :  2.05  259O :  2.03  343O :  2.00  481O :  1.82    1O :  1.81   37O :  1.81  352O :  1.80  367O :  1.80  136O :  1.61  154O :  1.56  298O :  1.56   13O :  1.53
  478O :  1.48    4O :  1.37  310O :  1.36  304O :  1.35  313O :  1.34   31O :  1.33   64O :  1.32  238O :  1.31   76O :  1.28  520O :  1.25  235O :  1.24  523O :  1.22
  118O :  1.07   25O :  1.04  517O :  1.02  379O :  1.02  292O :  1.01   58O :  1.00  421O :  0.99   34O :  0.98  214O :  0.93  139O :  0.92  373O :  0.91  121O :  0.89
  277O :  0.88  328O :  0.85  178O :  0.84   52O :  0.84  418O :  0.83  160O :  0.81  493O :  0.81  316O :  0.78  337O :  0.77  397O :  0.77  490O :  0.77  163O :  0.76
  253O :  0.75  208O :  0.74  274O :  0.70  400O :  0.68  205O :  0.68  442O :  0.67  223O :  0.67  451O :  0.66  319O :  0.65  247O :  0.65   28O :  0.63  385O :  0.63
   88O :  0.62  475O :  0.62  382O :  0.62  109O :  0.61  334O :  0.61  256O :  0.61  133O :  0.61  511O :  0.61  412O :  0.60   79O :  0.60  403O :  0.59  502O :  0.58
  529O :  0.58  472O :  0.58   97O :  0.57  283O :  0.56  229O :  0.55  445O :  0.54  388O :  0.52  268O :  0.52  427O :  0.52  124O :  0.51  340O :  0.51   43O :  0.51
   66H :  0.50  394O :  0.48  169O :  0.48    7O :  0.48  151O :  0.48  424O :  0.48  142O :  0.47  526O :  0.45  430O :  0.45  232O :  0.45  211O :  0.44  487O :  0.44
  262O :  0.44  370O :  0.43  514O :  0.42  364O :  0.41   49O :  0.40   70O :  0.40  190O :  0.40  499O :  0.39  112O :  0.39   19O :  0.38  250O :  0.38  103O :  0.37
  448O :  0.37  155H :  0.36  349O :  0.36   94O :  0.35  331O :  0.35   91O :  0.35  484O :  0.35  346O :  0.35  299H :  0.34  457O :  0.33   78H :  0.33  433O :  0.32
  236H :  0.32  187O :  0.31  115O :  0.31  193O :  0.30  376O :  0.30  220O :  0.30  361O :  0.29  127O :  0.29  289O :  0.29  301O :  0.29  322O :  0.28  469O :  0.28
  506H :  0.28  265O :  0.25  100O :  0.25  358O :  0.24  415O :  0.24  355O :  0.24  226O :  0.23  492H :  0.23  307O :  0.22  463O :  0.22   98H :  0.21   85O :  0.21
   26H :  0.21  271O :  0.21    8H :  0.20  199O :  0.20  295O :  0.20  157O :  0.19  150H :  0.19  241O :  0.19  480H :  0.19  196O :  0.19   69H :  0.18  126H :  0.18
  436O :  0.17    3H :  0.17  141H :  0.17  218H :  0.17  137H :  0.16  482H :  0.16  312H :  0.16  406O :  0.16   75H :  0.16  172O :  0.15  429H :  0.15  181O :  0.15
  381H :  0.15  508O :  0.14   77H :  0.14   89H :  0.13   63H :  0.13  409O :  0.13  306H :  0.13  486H :  0.13  496O :  0.13   54H :  0.12  423H :  0.12  444H :  0.12
   56H :  0.12  325O :  0.12   83H :  0.11  184O :  0.11   12H :  0.11  530H :  0.11   53H :  0.10  439O :  0.10  123H :  0.10  521H :  0.10  294H :  0.10  398H :  0.10
  231H :  0.10  335H :  0.09  280O :  0.09  479H :  0.09  483H :  0.09  275H :  0.09  286O :  0.09   11H :  0.09   32H :  0.08  503H :  0.08  258H :  0.08  450H :  0.08
  130O :  0.08   16O :  0.08  454O :  0.08  290H :  0.07  466O :  0.07  518H :  0.07
   11 LP   *******   0.00  35.83931 -30.66447  27.74097   61O :  5.14   55O :  4.17  145O :  3.07  217O :  2.99  505O :  2.83   73O :  2.75  175O :  2.73   67O :  2.50  460O :  2.36   10O :  2.17  148O :  2.17   82O :  2.04
  259O :  2.02  343O :  1.99  202O :  1.94  481O :  1.82    1O :  1.80   37O :  1.80  352O :  1.79  367O :  1.79  136O :  1.62  154O :  1.56  298O :  1.55   13O :  1.53
  478O :  1.48    4O :  1.36  310O :  1.35  304O :  1.34  313O :  1.34   31O :  1.32   64O :  1.31  238O :  1.30   76O :  1.27  520O :  1.25  235O :  1.24  523O :  1.21
  118O :  1.06   25O :  1.03  517O :  1.02  379O :  1.02  292O :  1.00  421O :  0.98   34O :  0.98   58O :  0.97  214O :  0.93  139O :  0.91  373O :  0.91  121O :  0.90
  277O :  0.87  328O :  0.84  178O :  0.84   52O :  0.84  418O :  0.82  160O :  0.80  493O :  0.80  316O :  0.78  337O :  0.77  397O :  0.76  490O :  0.76  163O :  0.76
  253O :  0.75  208O :  0.74  274O :  0.70  400O :  0.68  205O :  0.68  442O :  0.67  223O :  0.66  451O :  0.65  319O :  0.65  247O :  0.65   28O :  0.63  385O :  0.63
   88O :  0.62  475O :  0.62  382O :  0.61  334O :  0.61  511O :  0.61  109O :  0.61  133O :  0.61  256O :  0.61  412O :  0.60   79O :  0.59  403O :  0.59  502O :  0.58
  529O :  0.58  472O :  0.57   97O :  0.56  283O :  0.56  229O :  0.54    7O :  0.54  445O :  0.53  388O :  0.52  268O :  0.52  427O :  0.51  124O :  0.51  340O :  0.51
   43O :  0.50   66H :  0.50  394O :  0.48  169O :  0.48  151O :  0.48  424O :  0.48  142O :  0.47  526O :  0.45  430O :  0.45  232O :  0.45  211O :  0.43  487O :  0.43
  262O :  0.43  370O :  0.43  514O :  0.42  364O :  0.41   49O :  0.40   70O :  0.40  190O :  0.39  499O :  0.39  112O :  0.39  448O :  0.38   19O :  0.38  250O :  0.38
  103O :  0.37  349O :  0.36  155H :  0.36   94O :  0.35  331O :  0.35   91O :  0.35  346O :  0.34  484O :  0.34  299H :  0.34  457O :  0.33   78H :  0.33  433O :  0.32
  236H :  0.32  187O :  0.31  115O :  0.31  376O :  0.30  220O :  0.30  361O :  0.29  193O :  0.29  127O :  0.29  289O :  0.29  301O :  0.29  469O :  0.28  322O :  0.28
  506H :  0.28  265O :  0.25  100O :  0.25  358O :  0.24  415O :  0.24  355O :  0.23  226O :  0.23  492H :  0.23  307O :  0.22  463O :  0.22   98H :  0.21   85O :  0.21
   26H :  0.21  271O :  0.20    8H :  0.20  199O :  0.20  295O :  0.20  157O :  0.19  150H :  0.19  241O :  0.19  480H :  0.19  196O :  0.19   69H :  0.18  126H :  0.17
  436O :  0.17  141H :  0.17    3H :  0.17  218H :  0.17  137H :  0.16  482H :  0.16  312H :  0.16  406O :  0.16   75H :  0.16  172O :  0.15  429H :  0.15  181O :  0.15
  381H :  0.15  508O :  0.14   77H :  0.14   89H :  0.13   63H :  0.13  306H :  0.13  409O :  0.13  496O :  0.13  486H :  0.13   54H :  0.12  423H :  0.12  444H :  0.12
   83H :  0.11  184O :  0.11   12H :  0.11  325O :  0.11  530H :  0.11  123H :  0.10   53H :  0.10  439O :  0.10   56H :  0.10  521H :  0.10  294H :  0.10  231H :  0.10
  398H :  0.10  335H :  0.09  280O :  0.09  479H :  0.09  483H :  0.09  204H :  0.09  275H :  0.08  286O :  0.08   11H :  0.08   32H :  0.08  503H :  0.08  258H :  0.08
  450H :  0.08  130O :  0.08   16O :  0.08  104H :  0.08  454O :  0.07  290H :  0.07  466O :  0.07
   12 LP   *******   0.01   1.43935 -57.81883  50.03012   61O :  4.76  175O :  4.57  145O :  2.84  217O :  2.77  505O :  2.61   73O :  2.55   67O :  2.32  460O :  2.18   10O :  2.02  148O :  2.00   55O :  1.97   82O :  1.89
  259O :  1.87  343O :  1.84  202O :  1.79  481O :  1.68    1O :  1.67   37O :  1.67  352O :  1.66  367O :  1.66  136O :  1.50  154O :  1.44  298O :  1.43   13O :  1.41
  478O :  1.36    4O :  1.26  310O :  1.25  304O :  1.24  313O :  1.23   31O :  1.22   64O :  1.21  238O :  1.20   76O :  1.17  520O :  1.15  235O :  1.14  523O :  1.12
  118O :  0.98   25O :  0.95  517O :  0.94  379O :  0.94  292O :  0.93   58O :  0.92  421O :  0.91   34O :  0.91  214O :  0.86  139O :  0.85  373O :  0.84  121O :  0.82
  277O :  0.81  328O :  0.78  178O :  0.78   52O :  0.78  418O :  0.76  160O :  0.74  493O :  0.74  316O :  0.72  337O :  0.71  397O :  0.71  490O :  0.71  163O :  0.70
  253O :  0.69  208O :  0.68  274O :  0.65  400O :  0.63  205O :  0.63  442O :  0.62  223O :  0.61  451O :  0.60  319O :  0.60  247O :  0.60   28O :  0.59  385O :  0.58
   88O :  0.57  475O :  0.57  382O :  0.57  109O :  0.57  334O :  0.57  133O :  0.56  256O :  0.56  511O :  0.56  412O :  0.55   79O :  0.55  403O :  0.55  502O :  0.53
  529O :  0.53  472O :  0.53   97O :  0.52  283O :  0.52  229O :  0.50    7O :  0.50  445O :  0.50  388O :  0.48  268O :  0.48  427O :  0.48  124O :  0.47   43O :  0.47
   66H :  0.46  394O :  0.45  169O :  0.44  151O :  0.44  424O :  0.44  340O :  0.44  142O :  0.44  526O :  0.42  430O :  0.42  232O :  0.41  211O :  0.40  487O :  0.40
  262O :  0.40  370O :  0.39  514O :  0.39  364O :  0.38   49O :  0.37   70O :  0.37  190O :  0.36  499O :  0.36  112O :  0.36  448O :  0.35   19O :  0.35  250O :  0.35
  103O :  0.34  155H :  0.33  349O :  0.33   94O :  0.33  331O :  0.33   91O :  0.32  346O :  0.32  484O :  0.32  299H :  0.32  457O :  0.31   78H :  0.30  433O :  0.30
  236H :  0.30  187O :  0.29  115O :  0.28  193O :  0.28  376O :  0.28  220O :  0.27  361O :  0.27  127O :  0.27  289O :  0.26  301O :  0.26  469O :  0.26  322O :  0.26
  506H :  0.26  265O :  0.23  100O :  0.23  358O :  0.22  415O :  0.22  355O :  0.21  226O :  0.21  492H :  0.21  307O :  0.20  463O :  0.20   98H :  0.20   85O :  0.20
   26H :  0.19  271O :  0.19    8H :  0.19  199O :  0.19  295O :  0.19  157O :  0.18  150H :  0.18  241O :  0.17  480H :  0.17  196O :  0.17   69H :  0.17  126H :  0.16
  436O :  0.16    3H :  0.16  141H :  0.16  218H :  0.15  137H :  0.15  482H :  0.15  312H :  0.15  406O :  0.14   75H :  0.14  172O :  0.14  429H :  0.14  181O :  0.14
  381H :  0.13  508O :  0.13   77H :  0.13   89H :  0.12   63H :  0.12  409O :  0.12  306H :  0.12  496O :  0.12  486H :  0.12   54H :  0.11  423H :  0.11  444H :  0.11
   56H :  0.11   83H :  0.10  184O :  0.10   12H :  0.10  325O :  0.10  530H :  0.10   53H :  0.09  439O :  0.09  521H :  0.09  123H :  0.09  294H :  0.09  398H :  0.09
  231H :  0.09  335H :  0.09  280O :  0.09  479H :  0.08  483H :  0.08  204H :  0.08  286O :  0.08  275H :  0.08   11H :  0.08   32H :  0.08  503H :  0.07  258H :  0.07
  450H :  0.07  130O :  0.07   16O :  0.07
   13 LP   *******   0.01  -9.47944  10.47711  -6.13539   61O :  6.34  145O :  2.72  217O :  2.65  505O :  2.51   73O :  2.44  175O :  2.42   67O :  2.22  460O :  2.09   10O :  1.94  148O :  1.92   55O :  1.89   82O :  1.81
  259O :  1.79  343O :  1.77  202O :  1.72  481O :  1.61    1O :  1.60   37O :  1.60  352O :  1.59  367O :  1.59  136O :  1.43  154O :  1.38  298O :  1.37   13O :  1.35
  478O :  1.31    4O :  1.21  310O :  1.20  304O :  1.19  313O :  1.18   31O :  1.17   64O :  1.16  238O :  1.15   76O :  1.13  520O :  1.11  235O :  1.10  523O :  1.07
  118O :  0.94   25O :  0.91  517O :  0.90  379O :  0.90  292O :  0.89   58O :  0.88  421O :  0.87   34O :  0.87  214O :  0.82  139O :  0.81  373O :  0.81  121O :  0.79
  277O :  0.77  328O :  0.75  178O :  0.74   52O :  0.74  418O :  0.73  160O :  0.71  493O :  0.69  316O :  0.69  490O :  0.68  337O :  0.68  397O :  0.68  163O :  0.67
  253O :  0.66  208O :  0.65  274O :  0.62  400O :  0.60  205O :  0.60  442O :  0.59  223O :  0.59  451O :  0.58  319O :  0.57  247O :  0.57   28O :  0.56  385O :  0.56
   88O :  0.55  475O :  0.55  382O :  0.55  109O :  0.54  334O :  0.54  133O :  0.54  511O :  0.54  256O :  0.54  412O :  0.53   79O :  0.52  403O :  0.52  502O :  0.51
  529O :  0.51  472O :  0.51   97O :  0.50  283O :  0.49  229O :  0.48    7O :  0.48  445O :  0.47  388O :  0.46  268O :  0.46  427O :  0.46  124O :  0.45  340O :  0.45
   43O :  0.45   66H :  0.44  394O :  0.43  169O :  0.42  151O :  0.42  424O :  0.42  142O :  0.42  526O :  0.40  430O :  0.40  232O :  0.40  211O :  0.39  487O :  0.38
  262O :  0.38  370O :  0.38  514O :  0.37  364O :  0.36   49O :  0.36  190O :  0.35   70O :  0.35  499O :  0.34  112O :  0.34  448O :  0.34   19O :  0.34  250O :  0.34
  103O :  0.33  155H :  0.32  349O :  0.32   94O :  0.31  331O :  0.31   91O :  0.31  346O :  0.31  484O :  0.30  299H :  0.30  457O :  0.29   78H :  0.29  433O :  0.28
  236H :  0.28  187O :  0.28  115O :  0.27  376O :  0.27  193O :  0.27  220O :  0.26  361O :  0.26  127O :  0.26  289O :  0.25  301O :  0.25  469O :  0.25  322O :  0.25
  506H :  0.24  265O :  0.22  100O :  0.22  358O :  0.22  415O :  0.21  355O :  0.21  492H :  0.21  226O :  0.20  307O :  0.19  463O :  0.19   98H :  0.19   85O :  0.19
   26H :  0.19  271O :  0.18    8H :  0.18  199O :  0.18  295O :  0.18  150H :  0.17  241O :  0.17  157O :  0.17  480H :  0.17  196O :  0.17   69H :  0.16  126H :  0.15
  436O :  0.15    3H :  0.15  141H :  0.15  218H :  0.15  137H :  0.14  482H :  0.14  312H :  0.14  406O :  0.14   75H :  0.14   63H :  0.14  172O :  0.14  429H :  0.14
  181O :  0.13  381H :  0.13  508O :  0.12   77H :  0.12   89H :  0.12  409O :  0.12  306H :  0.12  496O :  0.11  486H :  0.11  444H :  0.11   54H :  0.11  423H :  0.11
   56H :  0.10   83H :  0.10  184O :  0.10   12H :  0.10  325O :  0.10  530H :  0.09   53H :  0.09  439O :  0.09  521H :  0.09  123H :  0.09  294H :  0.09  398H :  0.09
  231H :  0.08  335H :  0.08  280O :  0.08  479H :  0.08  483H :  0.08  204H :  0.08  275H :  0.08  286O :  0.08   11H :  0.08   32H :  0.07  503H :  0.07  258H :  0.07
  450H :  0.07
   14 LP   *******   0.01  33.18322 -18.95006  55.25836   61O :  4.46  154O :  3.22  145O :  2.66  217O :  2.59  505O :  2.45   73O :  2.39  175O :  2.37   67O :  2.17  460O :  2.04   10O :  1.89  148O :  1.88   55O :  1.85
   82O :  1.77  259O :  1.75  343O :  1.73  202O :  1.68  481O :  1.57    1O :  1.57   37O :  1.56  352O :  1.55  367O :  1.55  136O :  1.40  298O :  1.34   13O :  1.32
  478O :  1.28  155H :  1.19    4O :  1.18  310O :  1.17  304O :  1.16  313O :  1.16   31O :  1.15   64O :  1.14  238O :  1.13   76O :  1.10  520O :  1.08  235O :  1.06
  523O :  1.04  118O :  0.92   25O :  0.89  517O :  0.88  379O :  0.88  292O :  0.87   58O :  0.86  421O :  0.85   34O :  0.85  214O :  0.80  139O :  0.79  373O :  0.79
  121O :  0.77  277O :  0.76  328O :  0.73  178O :  0.73   52O :  0.73  418O :  0.71  160O :  0.70  493O :  0.69  316O :  0.68  337O :  0.67  397O :  0.66  490O :  0.66
  163O :  0.66  253O :  0.65  208O :  0.64  274O :  0.61  400O :  0.59  205O :  0.59  442O :  0.58  223O :  0.58  451O :  0.57  319O :  0.56  247O :  0.56   28O :  0.55
  385O :  0.55   88O :  0.54  475O :  0.54  382O :  0.53  334O :  0.53  133O :  0.53  511O :  0.53  256O :  0.53  412O :  0.52   79O :  0.51  403O :  0.51  109O :  0.50
  502O :  0.50  529O :  0.50  472O :  0.50   97O :  0.49  283O :  0.48  229O :  0.47    7O :  0.47  445O :  0.46  388O :  0.45  268O :  0.45  427O :  0.45  124O :  0.45
  340O :  0.44   43O :  0.44   66H :  0.43  394O :  0.42  169O :  0.42  151O :  0.41  424O :  0.41  142O :  0.41  526O :  0.39  430O :  0.39  232O :  0.39  211O :  0.38
  487O :  0.38  262O :  0.38  370O :  0.37  514O :  0.37  364O :  0.35   49O :  0.35   70O :  0.34  190O :  0.34  499O :  0.34  112O :  0.34   19O :  0.33  448O :  0.33
  250O :  0.33  103O :  0.32  349O :  0.31   94O :  0.31  331O :  0.31   91O :  0.30  346O :  0.30  484O :  0.30  299H :  0.30  457O :  0.29   78H :  0.29  433O :  0.28
  187O :  0.27  115O :  0.27  236H :  0.26  376O :  0.26  193O :  0.26  220O :  0.26  361O :  0.25  127O :  0.25  289O :  0.25  301O :  0.25  469O :  0.24  322O :  0.24
  506H :  0.24  265O :  0.22  100O :  0.21  358O :  0.21  415O :  0.21  355O :  0.20  226O :  0.20  492H :  0.20  307O :  0.19  463O :  0.19   98H :  0.19   85O :  0.18
   26H :  0.18  271O :  0.18    8H :  0.18  199O :  0.17  295O :  0.17  157O :  0.16  150H :  0.16  241O :  0.16  480H :  0.16  196O :  0.16   69H :  0.16  126H :  0.15
  436O :  0.15    3H :  0.15  141H :  0.15  218H :  0.14  137H :  0.14  482H :  0.14  312H :  0.14  406O :  0.14   75H :  0.13  172O :  0.13  429H :  0.13  181O :  0.13
  381H :  0.13  508O :  0.12   77H :  0.12   89H :  0.12   63H :  0.12  409O :  0.11  306H :  0.11  496O :  0.11  486H :  0.11   54H :  0.11  423H :  0.11  444H :  0.10
   56H :  0.10   83H :  0.10  184O :  0.10   12H :  0.09  325O :  0.09  530H :  0.09   53H :  0.09  439O :  0.09  521H :  0.08  123H :  0.08  294H :  0.08  398H :  0.08
  231H :  0.08  335H :  0.08  280O :  0.08  479H :  0.08  483H :  0.08  204H :  0.07  275H :  0.07  286O :  0.07   11H :  0.07   32H :  0.07
   15 LP   *******   0.01   7.52589 -43.25251   7.56465   61O :  4.51  343O :  3.61  145O :  2.69  217O :  2.62  505O :  2.48   73O :  2.41  175O :  2.39   67O :  2.20  460O :  2.07   10O :  1.92  148O :  1.90   55O :  1.87
   82O :  1.79  259O :  1.77  202O :  1.70  481O :  1.59   37O :  1.58  352O :  1.57  367O :  1.57    1O :  1.57  136O :  1.42  154O :  1.36  298O :  1.36   13O :  1.34
  478O :  1.29  310O :  1.20    4O :  1.18  304O :  1.17  313O :  1.17   64O :  1.15  238O :  1.14   31O :  1.12   76O :  1.11  520O :  1.09  235O :  1.08  523O :  1.06
  118O :  0.93   25O :  0.90  517O :  0.89  379O :  0.89  292O :  0.88   58O :  0.87  421O :  0.86   34O :  0.86  139O :  0.81  214O :  0.81  373O :  0.80  121O :  0.78
  277O :  0.77  328O :  0.74  178O :  0.74   52O :  0.73  418O :  0.72  160O :  0.71  493O :  0.70  316O :  0.68  337O :  0.68  397O :  0.67  490O :  0.67  163O :  0.66
  253O :  0.65  208O :  0.65  274O :  0.61  400O :  0.60  205O :  0.60  442O :  0.59  223O :  0.58  451O :  0.57  319O :  0.57  247O :  0.57   28O :  0.56  385O :  0.55
   88O :  0.54  475O :  0.54  382O :  0.54  109O :  0.54  334O :  0.54  511O :  0.53  133O :  0.53  256O :  0.53  412O :  0.52   79O :  0.52  403O :  0.52  502O :  0.51
  529O :  0.50  472O :  0.50   97O :  0.50  283O :  0.49  229O :  0.48    7O :  0.47  445O :  0.47  388O :  0.46  268O :  0.45  427O :  0.45  124O :  0.45  340O :  0.45
   43O :  0.44   66H :  0.44  394O :  0.42  169O :  0.42  151O :  0.42  424O :  0.42  142O :  0.41  526O :  0.40  430O :  0.39  232O :  0.39  211O :  0.38  487O :  0.38
  262O :  0.38  370O :  0.37  514O :  0.37  364O :  0.36   49O :  0.35   70O :  0.35  190O :  0.35  499O :  0.34  112O :  0.34   19O :  0.34  448O :  0.34  250O :  0.33
  103O :  0.33  155H :  0.31  349O :  0.31   94O :  0.31  331O :  0.31   91O :  0.31  346O :  0.30  484O :  0.30  299H :  0.30  457O :  0.29   78H :  0.29  433O :  0.28
  236H :  0.28  187O :  0.27  115O :  0.27  193O :  0.27  376O :  0.27  220O :  0.26  361O :  0.26  127O :  0.25  289O :  0.25  301O :  0.25  469O :  0.25  322O :  0.25
  506H :  0.24  265O :  0.22  100O :  0.22  358O :  0.21  415O :  0.21  355O :  0.21  226O :  0.20  492H :  0.20   26H :  0.19  307O :  0.19  463O :  0.19   98H :  0.19
   85O :  0.19  271O :  0.18    8H :  0.18  199O :  0.18  295O :  0.18  157O :  0.17  150H :  0.17  241O :  0.17  480H :  0.16  196O :  0.16   69H :  0.16  126H :  0.15
  436O :  0.15  141H :  0.15    3H :  0.15  218H :  0.15  137H :  0.14  482H :  0.14  312H :  0.14  406O :  0.14   75H :  0.14  172O :  0.13  429H :  0.13  181O :  0.13
  381H :  0.13  508O :  0.12   77H :  0.12   89H :  0.12   63H :  0.12  409O :  0.12  306H :  0.12  496O :  0.11   54H :  0.11  486H :  0.11  423H :  0.11  444H :  0.10
   56H :  0.10   83H :  0.10  184O :  0.10   12H :  0.10  325O :  0.09  530H :  0.09  439O :  0.09   53H :  0.09  521H :  0.09  123H :  0.09  294H :  0.08  398H :  0.08
  231H :  0.08  335H :  0.08  280O :  0.08  479H :  0.08  483H :  0.08  204H :  0.08   11H :  0.07  275H :  0.07  286O :  0.07  503H :  0.07
   16 LP   *******   0.01  14.87173  -4.68936   9.46510   61O :  4.47   37O :  3.23  145O :  2.66  217O :  2.59  505O :  2.45   73O :  2.39  175O :  2.37   67O :  2.17  460O :  2.04   10O :  1.89  148O :  1.88   55O :  1.85
   82O :  1.77  259O :  1.75  343O :  1.73  202O :  1.68  481O :  1.57    1O :  1.56  352O :  1.55  367O :  1.55  136O :  1.40  154O :  1.35  298O :  1.34   13O :  1.32
  478O :  1.28    4O :  1.18  310O :  1.17  304O :  1.16  313O :  1.16   31O :  1.15   64O :  1.14  238O :  1.13   76O :  1.10  520O :  1.08  235O :  1.07  523O :  1.05
  118O :  0.92   25O :  0.89  517O :  0.88  379O :  0.88  292O :  0.87   58O :  0.86  421O :  0.85   34O :  0.85  214O :  0.80  139O :  0.79  373O :  0.79  121O :  0.77
  277O :  0.76  328O :  0.73  178O :  0.73   52O :  0.73  418O :  0.71  160O :  0.70  493O :  0.69  490O :  0.68  316O :  0.68  337O :  0.67  397O :  0.66  163O :  0.66
  253O :  0.65  208O :  0.64  274O :  0.61  400O :  0.59  205O :  0.59  442O :  0.58  223O :  0.57  451O :  0.57  319O :  0.56  247O :  0.56   28O :  0.55  385O :  0.55
   88O :  0.54  475O :  0.54  382O :  0.53  109O :  0.53  334O :  0.53  256O :  0.53  511O :  0.53  133O :  0.52  412O :  0.52   79O :  0.51  403O :  0.51  502O :  0.50
  529O :  0.50  472O :  0.50   97O :  0.48  283O :  0.48  229O :  0.47    7O :  0.47  445O :  0.46  388O :  0.45  268O :  0.45  427O :  0.45  124O :  0.44  340O :  0.44
   43O :  0.44   66H :  0.43  394O :  0.42  169O :  0.42  151O :  0.41  424O :  0.41  142O :  0.41  526O :  0.39  430O :  0.39  232O :  0.39  211O :  0.38  487O :  0.38
  262O :  0.38  370O :  0.37  514O :  0.37  364O :  0.35   49O :  0.35   70O :  0.34  190O :  0.34  499O :  0.34  112O :  0.33   19O :  0.33  448O :  0.33  250O :  0.33
  103O :  0.32  155H :  0.31  349O :  0.31   94O :  0.31  331O :  0.30   91O :  0.30  346O :  0.30  484O :  0.30  299H :  0.30  457O :  0.29   78H :  0.29  433O :  0.28
  236H :  0.28  187O :  0.27  115O :  0.27  193O :  0.26  376O :  0.26  220O :  0.26  361O :  0.25  127O :  0.25  289O :  0.25  301O :  0.25  469O :  0.24  322O :  0.24
  506H :  0.24  265O :  0.22  100O :  0.21  358O :  0.21  415O :  0.21  355O :  0.20  226O :  0.20  492H :  0.20  307O :  0.19   98H :  0.19  463O :  0.19   85O :  0.18
   26H :  0.18  271O :  0.18    8H :  0.18  199O :  0.17  295O :  0.17  157O :  0.16  150H :  0.16  241O :  0.16  480H :  0.16  196O :  0.16   69H :  0.16  126H :  0.15
  436O :  0.15    3H :  0.15  141H :  0.15  218H :  0.14  482H :  0.14  312H :  0.14  137H :  0.14  406O :  0.14   75H :  0.13  172O :  0.13  429H :  0.13  181O :  0.13
  381H :  0.13  508O :  0.12   77H :  0.12   89H :  0.12   63H :  0.12  409O :  0.11  306H :  0.11  496O :  0.11  486H :  0.11   54H :  0.11  423H :  0.11  444H :  0.10
   56H :  0.10   83H :  0.10  184O :  0.10  325O :  0.09   12H :  0.09  530H :  0.09   53H :  0.09  439O :  0.09  521H :  0.08  123H :  0.08  294H :  0.08  398H :  0.08
  231H :  0.08  335H :  0.08  280O :  0.08  204H :  0.08   38H :  0.08  479H :  0.08  483H :  0.08  275H :  0.07  286O :  0.07   11H :  0.07   32H :  0.07
   17 LP   *******   0.01  59.46353   3.45229   0.40113   61O :  4.33  460O :  4.19  145O :  2.58  217O :  2.51  505O :  2.38   73O :  2.32  175O :  2.30   67O :  2.11   10O :  1.84  148O :  1.82   55O :  1.79   82O :  1.72
  259O :  1.70  343O :  1.68  202O :  1.63  481O :  1.53    1O :  1.52   37O :  1.51  352O :  1.51  367O :  1.50  136O :  1.36  154O :  1.31  298O :  1.30   13O :  1.28
  478O :  1.24    4O :  1.15  310O :  1.14  304O :  1.13  313O :  1.12   31O :  1.11   64O :  1.10  238O :  1.09   76O :  1.07  520O :  1.05  235O :  1.04  523O :  1.02
  118O :  0.89   25O :  0.87  517O :  0.86  379O :  0.85  292O :  0.84   58O :  0.83  421O :  0.83   34O :  0.83  214O :  0.78  139O :  0.77  373O :  0.76  121O :  0.75
  277O :  0.73  328O :  0.71  178O :  0.71   52O :  0.70  418O :  0.69  160O :  0.68  493O :  0.67  316O :  0.66  337O :  0.65  397O :  0.64  490O :  0.64  163O :  0.64
  253O :  0.63  208O :  0.62  274O :  0.59  400O :  0.57  205O :  0.57  442O :  0.56  223O :  0.56  451O :  0.55  319O :  0.55  247O :  0.54   28O :  0.53  385O :  0.53
   88O :  0.52  475O :  0.52  382O :  0.52  109O :  0.51  334O :  0.51  133O :  0.51  511O :  0.51  256O :  0.51  412O :  0.50   79O :  0.50  403O :  0.50  502O :  0.48
  529O :  0.48  472O :  0.48   97O :  0.47  283O :  0.47  229O :  0.46    7O :  0.45  445O :  0.45  388O :  0.44  268O :  0.43  427O :  0.43  124O :  0.43  340O :  0.43
   43O :  0.42   66H :  0.42  394O :  0.41  169O :  0.40  151O :  0.40  142O :  0.40  424O :  0.39  526O :  0.38  430O :  0.38  232O :  0.38  211O :  0.37  487O :  0.36
  262O :  0.36  370O :  0.36  514O :  0.36  364O :  0.34   49O :  0.34   70O :  0.33  190O :  0.33  499O :  0.33  112O :  0.32  448O :  0.32   19O :  0.32  250O :  0.32
  103O :  0.31  155H :  0.30  349O :  0.30   94O :  0.30  331O :  0.30   91O :  0.29  346O :  0.29  299H :  0.29  484O :  0.29   78H :  0.28  457O :  0.28  433O :  0.27
  236H :  0.27  187O :  0.26  115O :  0.26  193O :  0.26  376O :  0.26  220O :  0.25  361O :  0.24  127O :  0.24  289O :  0.24  301O :  0.24  469O :  0.24  322O :  0.24
  506H :  0.23  265O :  0.21  100O :  0.21  358O :  0.20  415O :  0.20  355O :  0.20  226O :  0.19  492H :  0.19  307O :  0.18  463O :  0.18   98H :  0.18   85O :  0.18
   26H :  0.18  271O :  0.17    8H :  0.17  199O :  0.17  295O :  0.17  157O :  0.16  150H :  0.16  241O :  0.16  196O :  0.16  480H :  0.16   69H :  0.15  126H :  0.15
  436O :  0.14    3H :  0.14  141H :  0.14  218H :  0.14  137H :  0.14  482H :  0.13  312H :  0.13  406O :  0.13   75H :  0.13  172O :  0.13  429H :  0.13  181O :  0.12
  381H :  0.12  508O :  0.12   77H :  0.11   89H :  0.11   63H :  0.11  409O :  0.11  306H :  0.11  486H :  0.11  496O :  0.11   54H :  0.10  423H :  0.10  444H :  0.10
   56H :  0.10   83H :  0.09  184O :  0.09   12H :  0.09  325O :  0.09  530H :  0.09   53H :  0.09  439O :  0.09  521H :  0.08  123H :  0.08  294H :  0.08  398H :  0.08
  231H :  0.08  335H :  0.08  280O :  0.08  479H :  0.07  483H :  0.07  204H :  0.07  275H :  0.07  286O :  0.07   11H :  0.07
   18 LP   *******   0.01 -17.25362  -0.72995  52.11579   61O :  4.24  481O :  3.69  145O :  2.53  217O :  2.47  505O :  2.33   73O :  2.27  175O :  2.25   67O :  2.06  460O :  1.94   10O :  1.80  148O :  1.79   55O :  1.76
   82O :  1.68  259O :  1.66  343O :  1.64  202O :  1.60    1O :  1.49   37O :  1.49  352O :  1.48  367O :  1.48  136O :  1.33  154O :  1.28  298O :  1.28   13O :  1.26
  478O :  1.22    4O :  1.12  310O :  1.12  304O :  1.10  313O :  1.10   31O :  1.09   64O :  1.08  238O :  1.07   76O :  1.05  520O :  1.03  235O :  1.02  523O :  1.00
  118O :  0.87   25O :  0.85  517O :  0.84  379O :  0.84  292O :  0.83   58O :  0.82  421O :  0.81   34O :  0.81  214O :  0.76  139O :  0.75  373O :  0.75  121O :  0.73
  277O :  0.72  328O :  0.70  178O :  0.69   52O :  0.69  418O :  0.68  160O :  0.66  493O :  0.66  316O :  0.64  337O :  0.63  397O :  0.63  490O :  0.63  163O :  0.62
  253O :  0.62  208O :  0.61  274O :  0.58  400O :  0.56  205O :  0.56  442O :  0.55  223O :  0.55  451O :  0.54  319O :  0.53  247O :  0.53   28O :  0.52  385O :  0.52
   88O :  0.51  475O :  0.51  382O :  0.51  109O :  0.50  334O :  0.50  511O :  0.50  133O :  0.50  256O :  0.50  412O :  0.49   79O :  0.49  403O :  0.49  502O :  0.48
  529O :  0.47  472O :  0.47   97O :  0.46  283O :  0.46  229O :  0.45    7O :  0.44  445O :  0.44  388O :  0.43  268O :  0.43  427O :  0.42  124O :  0.42  340O :  0.42
   43O :  0.41   66H :  0.41  394O :  0.40  169O :  0.40  151O :  0.39  424O :  0.39  142O :  0.39  526O :  0.37  430O :  0.37  232O :  0.37  211O :  0.36  487O :  0.36
  262O :  0.36  370O :  0.35  514O :  0.35  364O :  0.34   49O :  0.33   70O :  0.33  190O :  0.32  499O :  0.32  112O :  0.32  448O :  0.32   19O :  0.32  250O :  0.31
  103O :  0.31  155H :  0.29  349O :  0.29   94O :  0.29  331O :  0.29   91O :  0.29  346O :  0.28  484O :  0.28  299H :  0.28  457O :  0.27   78H :  0.27  433O :  0.26
  236H :  0.26  187O :  0.26  115O :  0.25  193O :  0.25  376O :  0.25  220O :  0.24  361O :  0.24  127O :  0.24  289O :  0.24  301O :  0.24  469O :  0.23  322O :  0.23
  506H :  0.23  265O :  0.21  100O :  0.20  358O :  0.20  415O :  0.20  355O :  0.19  226O :  0.19  492H :  0.19  307O :  0.18  463O :  0.18   98H :  0.18   85O :  0.17
   26H :  0.17  271O :  0.17    8H :  0.17  199O :  0.17  295O :  0.17  157O :  0.16  150H :  0.16  241O :  0.16  480H :  0.15  196O :  0.15   69H :  0.15  126H :  0.14
  436O :  0.14    3H :  0.14  141H :  0.14  218H :  0.14  137H :  0.13  312H :  0.13  406O :  0.13   75H :  0.13  172O :  0.13  429H :  0.13  181O :  0.12  381H :  0.12
  508O :  0.12   77H :  0.11   89H :  0.11   63H :  0.11  482H :  0.11  306H :  0.11  409O :  0.11  496O :  0.11  486H :  0.10   54H :  0.10  423H :  0.10  444H :  0.10
   56H :  0.10   83H :  0.09   12H :  0.09  325O :  0.09  530H :  0.09  184O :  0.09   53H :  0.08  439O :  0.08  521H :  0.08  123H :  0.08  294H :  0.08  398H :  0.08
  231H :  0.08  335H :  0.08  280O :  0.08  479H :  0.07  204H :  0.07
   19 LP   *******   0.01  23.07513 -40.05610  10.89193   61O :  4.16    1O :  3.34  145O :  2.48  217O :  2.41  505O :  2.28   73O :  2.23  175O :  2.21   67O :  2.02  460O :  1.90   10O :  1.77  148O :  1.75   55O :  1.72
   82O :  1.65  259O :  1.63  343O :  1.60  202O :  1.57  481O :  1.47   37O :  1.46  352O :  1.45  367O :  1.45  136O :  1.31  154O :  1.26  298O :  1.25   13O :  1.23
  478O :  1.19    4O :  1.12  310O :  1.09  304O :  1.08  313O :  1.08   31O :  1.07   64O :  1.06  238O :  1.05   76O :  1.03  520O :  1.01  235O :  1.00  523O :  0.98
  118O :  0.86   25O :  0.85  517O :  0.82  379O :  0.82  292O :  0.81   58O :  0.80  421O :  0.79   34O :  0.79  214O :  0.75  139O :  0.74  373O :  0.73  277O :  0.70
  121O :  0.70  328O :  0.68  178O :  0.68  418O :  0.66  160O :  0.65  493O :  0.65   52O :  0.65  316O :  0.63  337O :  0.62  397O :  0.62  490O :  0.62  163O :  0.61
  253O :  0.60  208O :  0.60  274O :  0.57  205O :  0.55  400O :  0.55  442O :  0.54  247O :  0.54  223O :  0.54  451O :  0.53  319O :  0.52   28O :  0.51  385O :  0.51
   88O :  0.50  475O :  0.50  382O :  0.50  109O :  0.49  334O :  0.49  256O :  0.49  511O :  0.49  133O :  0.49  412O :  0.48  403O :  0.48   79O :  0.48  502O :  0.47
  529O :  0.46  472O :  0.46   97O :  0.45  283O :  0.45  229O :  0.44    7O :  0.44  445O :  0.43  388O :  0.42  268O :  0.42  427O :  0.42  124O :  0.41  340O :  0.41
   43O :  0.41   66H :  0.40  394O :  0.39  169O :  0.39  151O :  0.39  424O :  0.39  142O :  0.38  526O :  0.36  430O :  0.36  232O :  0.36  211O :  0.35  487O :  0.35
  262O :  0.35  370O :  0.34  514O :  0.34  364O :  0.33   49O :  0.32   70O :  0.32  190O :  0.32  499O :  0.31  112O :  0.31   19O :  0.31  448O :  0.31  250O :  0.31
  103O :  0.30  155H :  0.29  349O :  0.29   94O :  0.29  331O :  0.28   91O :  0.28  346O :  0.28  484O :  0.28  299H :  0.28  457O :  0.27   78H :  0.27  433O :  0.26
  236H :  0.26  187O :  0.25  115O :  0.25  193O :  0.25  376O :  0.25  220O :  0.24  361O :  0.24  127O :  0.23  289O :  0.23  301O :  0.23  469O :  0.23  322O :  0.23
  506H :  0.22  265O :  0.20  100O :  0.20  358O :  0.20  415O :  0.19  355O :  0.19  226O :  0.19   26H :  0.18  492H :  0.18  307O :  0.18  463O :  0.17   98H :  0.17
   85O :  0.17  271O :  0.17    8H :  0.16  199O :  0.16  295O :  0.16  157O :  0.15  150H :  0.15  241O :  0.15  480H :  0.15  196O :  0.15   69H :  0.15  126H :  0.14
  436O :  0.14  141H :  0.14  218H :  0.13  137H :  0.13  482H :  0.13  312H :  0.13  406O :  0.13   75H :  0.13  429H :  0.12  172O :  0.12  181O :  0.12  381H :  0.12
  508O :  0.11   77H :  0.11   89H :  0.11   63H :  0.11  409O :  0.11  306H :  0.11    3H :  0.10  496O :  0.10  486H :  0.10  423H :  0.10  444H :  0.10   56H :  0.09
   83H :  0.09  184O :  0.09   12H :  0.09  325O :  0.09  530H :  0.09   53H :  0.08  439O :  0.08  123H :  0.08  521H :  0.08  294H :  0.08  398H :  0.08  231H :  0.08
  335H :  0.08   32H :  0.07  280O :  0.07  479H :  0.07  483H :  0.07
   20 LP   *******   0.01   1.92460 -57.19360  52.96458   61O :  3.90  175O :  3.81  145O :  2.33  217O :  2.27  505O :  2.14   73O :  2.09   67O :  1.90  460O :  1.79   10O :  1.66  148O :  1.64   55O :  1.62   82O :  1.55
  259O :  1.53  343O :  1.51  202O :  1.47  481O :  1.38    1O :  1.37   37O :  1.37  352O :  1.36  367O :  1.36  136O :  1.23  154O :  1.18  298O :  1.17   13O :  1.16
  478O :  1.12    4O :  1.03  310O :  1.03  313O :  1.02  304O :  1.02   31O :  1.00   64O :  1.00  238O :  0.99   76O :  0.96  520O :  0.95  235O :  0.94  523O :  0.92
  118O :  0.80   25O :  0.78  517O :  0.77  379O :  0.77  292O :  0.76   58O :  0.75  421O :  0.75   34O :  0.74  214O :  0.70  139O :  0.69  373O :  0.69  121O :  0.67
  277O :  0.66  328O :  0.64  178O :  0.64   52O :  0.64  418O :  0.62  160O :  0.61  493O :  0.61  316O :  0.59  337O :  0.58  397O :  0.58  490O :  0.58  163O :  0.57
  253O :  0.57  208O :  0.56  274O :  0.53  400O :  0.52  205O :  0.51  442O :  0.51  223O :  0.50  451O :  0.50  319O :  0.49  247O :  0.49   28O :  0.48  385O :  0.48
   88O :  0.47  475O :  0.47  511O :  0.47  382O :  0.47  109O :  0.46  334O :  0.46  133O :  0.46  256O :  0.46  412O :  0.45   79O :  0.45  403O :  0.45  502O :  0.44
  529O :  0.44  472O :  0.44   97O :  0.43  283O :  0.42  229O :  0.41    7O :  0.41  445O :  0.41  388O :  0.39  268O :  0.39  427O :  0.39  124O :  0.39   43O :  0.38
   66H :  0.38  340O :  0.37  394O :  0.37  169O :  0.36  151O :  0.36  424O :  0.36  142O :  0.36  526O :  0.34  430O :  0.34  232O :  0.34  211O :  0.33  487O :  0.33
  262O :  0.33  370O :  0.32  514O :  0.32  364O :  0.31   49O :  0.30   70O :  0.30  190O :  0.30  499O :  0.29  112O :  0.29   19O :  0.29  448O :  0.29  250O :  0.29
  103O :  0.28  155H :  0.27  349O :  0.27   94O :  0.27  331O :  0.27   91O :  0.26  346O :  0.26  484O :  0.26  299H :  0.26  457O :  0.25   78H :  0.25  433O :  0.24
  236H :  0.24  187O :  0.24  115O :  0.23  376O :  0.23  193O :  0.23  220O :  0.22  361O :  0.22  127O :  0.22  289O :  0.22  301O :  0.22  469O :  0.21  322O :  0.21
  506H :  0.21  265O :  0.19  100O :  0.19  358O :  0.18  415O :  0.18  355O :  0.18  226O :  0.17  492H :  0.17  307O :  0.17  463O :  0.16   98H :  0.16   85O :  0.16
   26H :  0.16  271O :  0.16    8H :  0.15  199O :  0.15  295O :  0.15  157O :  0.14  150H :  0.14  241O :  0.14  480H :  0.14  196O :  0.14   69H :  0.14  126H :  0.13
  436O :  0.13  141H :  0.13    3H :  0.13  218H :  0.13  137H :  0.12  482H :  0.12  312H :  0.12  406O :  0.12   75H :  0.12  172O :  0.12  429H :  0.12  181O :  0.11
  381H :  0.11  508O :  0.11   77H :  0.10   89H :  0.10   63H :  0.10  409O :  0.10  306H :  0.10  496O :  0.10  486H :  0.10   54H :  0.09  423H :  0.09  444H :  0.09
   56H :  0.09   83H :  0.08  184O :  0.08   12H :  0.08  325O :  0.08  530H :  0.08   53H :  0.08  439O :  0.08  521H :  0.07  123H :  0.07  294H :  0.07  398H :  0.07
  231H :  0.07  335H :  0.07
   21 LP   *******   0.01  32.45708 -25.59693  -5.42349   61O :  3.82  145O :  2.28   64O :  2.26  217O :  2.26  505O :  2.10   73O :  2.05  175O :  2.03   67O :  1.86  460O :  1.75   10O :  1.64  148O :  1.61   55O :  1.58
   82O :  1.52  259O :  1.50  343O :  1.48  202O :  1.44  481O :  1.35    1O :  1.34   37O :  1.34  352O :  1.33  367O :  1.33  136O :  1.20  154O :  1.16  298O :  1.15
   66H :  1.14   13O :  1.13  478O :  1.10    4O :  1.01  310O :  1.01  304O :  0.99  313O :  0.99   31O :  0.98  238O :  0.96   76O :  0.95  520O :  0.93  235O :  0.92
  523O :  0.90  118O :  0.79   25O :  0.76  517O :  0.76  379O :  0.75  292O :  0.74   58O :  0.74  421O :  0.73   34O :  0.73  214O :  0.69  139O :  0.68  373O :  0.68
  121O :  0.66  277O :  0.65   52O :  0.64  328O :  0.63  178O :  0.62  418O :  0.61  160O :  0.60  493O :  0.60  316O :  0.58  337O :  0.57  397O :  0.57  490O :  0.57
  163O :  0.56  253O :  0.55  208O :  0.55  274O :  0.52  205O :  0.50  400O :  0.50  442O :  0.50  223O :  0.49  451O :  0.49  319O :  0.48  247O :  0.48   28O :  0.47
  385O :  0.47   88O :  0.46  475O :  0.46  382O :  0.46  109O :  0.45  334O :  0.45  511O :  0.45  133O :  0.45  256O :  0.45  412O :  0.44   79O :  0.44  403O :  0.44
[...]
   144   1 h    0.889 --   142 o    0.823
   145   8 o    1.842 --   147 h    0.863   146 h    0.857
   146   1 h    0.889 --   145 o    0.857
   147   1 h    0.899 --   145 o    0.863
   148   8 o    1.853 --   150 h    0.849   149 h    0.807
   149   1 h    0.885 --   148 o    0.807
   150   1 h    0.897 --   148 o    0.849
   151   8 o    1.861 --   152 h    0.843   153 h    0.841
   152   1 h    0.893 --   151 o    0.843
   153   1 h    0.880 --   151 o    0.841
   154   8 o    1.828 --   156 h    0.857   155 h    0.817
   155   1 h    0.883 --   154 o    0.817
   156   1 h    0.899 --   154 o    0.857
   157   8 o    1.848 --   159 h    0.814   158 h    0.803
   158   1 h    0.887 --   157 o    0.803
   159   1 h    0.883 --   157 o    0.814
   160   8 o    1.853 --   161 h    0.828   162 h    0.805
   161   1 h    0.889 --   160 o    0.828
   162   1 h    0.872 --   160 o    0.805
   163   8 o    1.834 --   165 h    0.859   164 h    0.855
   164   1 h    0.895 --   163 o    0.855
   165   1 h    0.899 --   163 o    0.859
   166   8 o    1.865 --   168 h    0.828   167 h    0.800
   167   1 h    0.875 --   166 o    0.800
   168   1 h    0.894 --   166 o    0.828
   169   8 o    1.875 --   170 h    0.900   171 h    0.805
   170   1 h    0.910 --   169 o    0.900
   171   1 h    0.882 --   169 o    0.805
   172   8 o    1.873 --   173 h    0.858   174 h    0.814
   173   1 h    0.895 --   172 o    0.858
   174   1 h    0.873 --   172 o    0.814
   175   8 o    1.855 --   176 h    0.884   177 h    0.845
   176   1 h    0.902 --   175 o    0.884
   177   1 h    0.887 --   175 o    0.845
   178   8 o    1.828 --   179 h    0.891   180 h    0.823
   179   1 h    0.908 --   178 o    0.891
   180   1 h    0.881 --   178 o    0.823
   181   8 o    1.876 --   182 h    0.821   183 h    0.799
   182   1 h    0.888 --   181 o    0.821
   183   1 h    0.876 --   181 o    0.799
   184   8 o    1.861 --   186 h    0.918   185 h    0.788
   185   1 h    0.872 --   184 o    0.788
   186   1 h    0.920 --   184 o    0.918
   187   8 o    1.850 --   189 h    0.853   188 h    0.833
   188   1 h    0.891 --   187 o    0.833
   189   1 h    0.897 --   187 o    0.853
   190   8 o    1.879 --   191 h    0.842   192 h    0.807
   191   1 h    0.880 --   190 o    0.842
   192   1 h    0.876 --   190 o    0.807
   193   8 o    1.869 --   195 h    0.836   194 h    0.820
   194   1 h    0.879 --   193 o    0.820
   195   1 h    0.886 --   193 o    0.836
   196   8 o    1.834 --   198 h    0.886   197 h    0.819
   197   1 h    0.887 --   196 o    0.819
   198   1 h    0.901 --   196 o    0.886
   199   8 o    1.854 --   201 h    0.806   200 h    0.802
   200   1 h    0.875 --   199 o    0.802
   201   1 h    0.875 --   199 o    0.806
   202   8 o    1.874 --   203 h    0.838   204 h    0.836
   203   1 h    0.895 --   202 o    0.838
   204   1 h    0.883 --   202 o    0.836
   205   8 o    1.821 --   206 h    0.917   207 h    0.799
   206   1 h    0.921 --   205 o    0.917
   207   1 h    0.876 --   205 o    0.799
   208   8 o    1.812 --   209 h    0.824   210 h    0.820
   209   1 h    0.881 --   208 o    0.824
   210   1 h    0.890 --   208 o    0.820
   211   8 o    1.848 --   212 h    0.890   213 h    0.817
   212   1 h    0.905 --   211 o    0.890
   213   1 h    0.866 --   211 o    0.817
   214   8 o    1.873 --   215 h    0.824   216 h    0.806
   215   1 h    0.887 --   214 o    0.824
   216   1 h    0.873 --   214 o    0.806
   217   8 o    1.846 --   219 h    0.833   218 h    0.814
   218   1 h    0.879 --   217 o    0.814
   219   1 h    0.884 --   217 o    0.833
   220   8 o    1.847 --   221 h    0.898   222 h    0.804
   221   1 h    0.910 --   220 o    0.898
   222   1 h    0.876 --   220 o    0.804
   223   8 o    1.877 --   225 h    0.861   224 h    0.795
   224   1 h    0.877 --   223 o    0.795
   225   1 h    0.894 --   223 o    0.861
   226   8 o    1.829 --   227 h    0.837   228 h    0.830
   227   1 h    0.893 --   226 o    0.837
   228   1 h    0.889 --   226 o    0.830
   229   8 o    1.871 --   230 h    0.804   231 h    0.798
   230   1 h    0.877 --   229 o    0.804
   231   1 h    0.879 --   229 o    0.798
   232   8 o    1.863 --   233 h    0.862   234 h    0.853
   233   1 h    0.901 --   232 o    0.862
   234   1 h    0.893 --   232 o    0.853
   235   8 o    1.830 --   236 h    0.822   237 h    0.790
   236   1 h    0.882 --   235 o    0.822
   237   1 h    0.878 --   235 o    0.790
   238   8 o    1.831 --   239 h    0.846   240 h    0.803
   239   1 h    0.887 --   238 o    0.846
   240   1 h    0.877 --   238 o    0.803
   241   8 o    1.823 --   243 h    0.857   242 h    0.841
   242   1 h    0.895 --   241 o    0.841
   243   1 h    0.898 --   241 o    0.857
   244   8 o    1.863 --   245 h    0.844   246 h    0.787
   245   1 h    0.894 --   244 o    0.844
   246   1 h    0.873 --   244 o    0.787
   247   8 o    1.877 --   248 h    0.836   249 h    0.827
   248   1 h    0.880 --   247 o    0.836
   249   1 h    0.874 --   247 o    0.827
   250   8 o    1.884 --   251 h    0.823   252 h    0.818
   251   1 h    0.877 --   250 o    0.823
   252   1 h    0.886 --   250 o    0.818
   253   8 o    1.873 --   254 h    0.909   255 h    0.788
   254   1 h    0.913 --   253 o    0.909
   255   1 h    0.885 --   253 o    0.788
   256   8 o    1.832 --   257 h    0.849   258 h    0.793
   257   1 h    0.900 --   256 o    0.849
   258   1 h    0.879 --   256 o    0.793
   259   8 o    1.824 --   261 h    0.835   260 h    0.832
   260   1 h    0.891 --   259 o    0.832
   261   1 h    0.891 --   259 o    0.835
   262   8 o    1.841 --   263 h    0.877   264 h    0.838
   263   1 h    0.902 --   262 o    0.877
   264   1 h    0.889 --   262 o    0.838
   265   8 o    1.870 --   267 h    0.861   266 h    0.805
   266   1 h    0.877 --   265 o    0.805
   267   1 h    0.896 --   265 o    0.861
   268   8 o    1.840 --   269 h    0.842   270 h    0.808
   269   1 h    0.895 --   268 o    0.842
   270   1 h    0.882 --   268 o    0.808
   271   8 o    1.852 --   273 h    0.863   272 h    0.829
   272   1 h    0.892 --   271 o    0.829
   273   1 h    0.896 --   271 o    0.863
   274   8 o    1.874 --   275 h    0.859   276 h    0.812
   275   1 h    0.890 --   274 o    0.859
   276   1 h    0.877 --   274 o    0.812
   277   8 o    1.857 --   279 h    0.826   278 h    0.813
   278   1 h    0.881 --   277 o    0.813
   279   1 h    0.889 --   277 o    0.826
   280   8 o    1.880 --   282 h    0.846   281 h    0.797
   281   1 h    0.882 --   280 o    0.797
   282   1 h    0.893 --   280 o    0.846
   283   8 o    1.854 --   285 h    0.856   284 h    0.856
   284   1 h    0.892 --   283 o    0.856
   285   1 h    0.898 --   283 o    0.856
   286   8 o    1.852 --   287 h    0.877   288 h    0.804
   287   1 h    0.901 --   286 o    0.877
   288   1 h    0.881 --   286 o    0.804
   289   8 o    1.828 --   291 h    0.881   290 h    0.871
   290   1 h    0.893 --   289 o    0.871
   291   1 h    0.900 --   289 o    0.881
   292   8 o    1.845 --   294 h    0.854   293 h    0.787
   293   1 h    0.876 --   292 o    0.787
   294   1 h    0.895 --   292 o    0.854
   295   8 o    1.865 --   296 h    0.855   297 h    0.807
   296   1 h    0.894 --   295 o    0.855
   297   1 h    0.877 --   295 o    0.807
   298   8 o    1.857 --   300 h    0.868   299 h    0.857
   299   1 h    0.894 --   298 o    0.857
   300   1 h    0.898 --   298 o    0.868
   301   8 o    1.836 --   303 h    0.841   302 h    0.822
   302   1 h    0.891 --   301 o    0.822
   303   1 h    0.894 --   301 o    0.841
   304   8 o    1.844 --   306 h    0.874   305 h    0.864
   305   1 h    0.896 --   304 o    0.864
   306   1 h    0.895 --   304 o    0.874
   307   8 o    1.851 --   308 h    0.903   309 h    0.823
   308   1 h    0.912 --   307 o    0.903
   309   1 h    0.888 --   307 o    0.823
   310   8 o    1.896 --   312 h    0.825   311 h    0.803
   311   1 h    0.864 --   310 o    0.803
   312   1 h    0.889 --   310 o    0.825
   313   8 o    1.836 --   314 h    0.881   315 h    0.801
   314   1 h    0.906 --   313 o    0.881
   315   1 h    0.884 --   313 o    0.801
   316   8 o    1.851 --   317 h    0.875   318 h    0.838
   317   1 h    0.901 --   316 o    0.875
   318   1 h    0.888 --   316 o    0.838
   319   8 o    1.879 --   320 h    0.830   321 h    0.819
   320   1 h    0.886 --   319 o    0.830
   321   1 h    0.888 --   319 o    0.819
   322   8 o    1.818 --   323 h    0.851   324 h    0.847
   323   1 h    0.892 --   322 o    0.851
   324   1 h    0.890 --   322 o    0.847
   325   8 o    1.908 --   326 h    0.837   327 h    0.776
   326   1 h    0.884 --   325 o    0.837
   327   1 h    0.873 --   325 o    0.776
   328   8 o    1.858 --   330 h    0.910   329 h    0.794
   329   1 h    0.881 --   328 o    0.794
   330   1 h    0.919 --   328 o    0.910
   331   8 o    1.878 --   333 h    0.910   332 h    0.832
   332   1 h    0.882 --   331 o    0.832
   333   1 h    0.916 --   331 o    0.910
   334   8 o    1.886 --   335 h    0.865   336 h    0.847
   335   1 h    0.897 --   334 o    0.865
   336   1 h    0.895 --   334 o    0.847
   337   8 o    1.856 --   339 h    0.856   338 h    0.810
   338   1 h    0.877 --   337 o    0.810
   339   1 h    0.897 --   337 o    0.856
   340   8 o    1.819 --   341 h    0.868   342 h    0.817
   341   1 h    0.900 --   340 o    0.868
   342   1 h    0.890 --   340 o    0.817
   343   8 o    1.860 --   345 h    0.834   344 h    0.827
   344   1 h    0.889 --   343 o    0.827
   345   1 h    0.885 --   343 o    0.834
   346   8 o    1.854 --   347 h    0.911   348 h    0.812
   347   1 h    0.919 --   346 o    0.911
   348   1 h    0.879 --   346 o    0.812
   349   8 o    1.880 --   351 h    0.823   350 h    0.817
   350   1 h    0.886 --   349 o    0.817
   351   1 h    0.884 --   349 o    0.823
   352   8 o    1.857 --   354 h    0.861   353 h    0.825
   353   1 h    0.888 --   352 o    0.825
   354   1 h    0.898 --   352 o    0.861
   355   8 o    1.859 --   356 h    0.824   357 h    0.807
   356   1 h    0.890 --   355 o    0.824
   357   1 h    0.884 --   355 o    0.807
   358   8 o    1.835 --   360 h    0.839   359 h    0.803
   359   1 h    0.885 --   358 o    0.803
   360   1 h    0.895 --   358 o    0.839
   361   8 o    1.848 --   363 h    0.823   362 h    0.822
   362   1 h    0.893 --   361 o    0.822
   363   1 h    0.889 --   361 o    0.823
   364   8 o    1.855 --   365 h    0.827   366 h    0.811
   365   1 h    0.895 --   364 o    0.827
   366   1 h    0.883 --   364 o    0.811
   367   8 o    1.851 --   369 h    0.867   368 h    0.815
   368   1 h    0.891 --   367 o    0.815
   369   1 h    0.904 --   367 o    0.867
   370   8 o    1.826 --   372 h    0.865   371 h    0.853
   371   1 h    0.893 --   370 o    0.853
   372   1 h    0.895 --   370 o    0.865
   373   8 o    1.828 --   374 h    0.886   375 h    0.845
   374   1 h    0.902 --   373 o    0.886
   375   1 h    0.889 --   373 o    0.845
   376   8 o    1.848 --   377 h    0.841   378 h    0.819
   377   1 h    0.896 --   376 o    0.841
   378   1 h    0.883 --   376 o    0.819
   379   8 o    1.833 --   381 h    0.891   380 h    0.818
   380   1 h    0.886 --   379 o    0.818
   381   1 h    0.907 --   379 o    0.891
   382   8 o    1.855 --   383 h    0.858   384 h    0.857
   383   1 h    0.896 --   382 o    0.858
   384   1 h    0.891 --   382 o    0.857
   385   8 o    1.880 --   387 h    0.838   386 h    0.772
   386   1 h    0.868 --   385 o    0.772
   387   1 h    0.887 --   385 o    0.838
   388   8 o    1.853 --   390 h    0.890   389 h    0.803
   389   1 h    0.878 --   388 o    0.803
   390   1 h    0.908 --   388 o    0.890
   391   8 o    1.861 --   392 h    0.885   393 h    0.871
   392   1 h    0.899 --   391 o    0.885
   393   1 h    0.895 --   391 o    0.871
   394   8 o    1.849 --   395 h    0.828   396 h    0.826
   395   1 h    0.892 --   394 o    0.828
   396   1 h    0.888 --   394 o    0.826
   397   8 o    1.840 --   399 h    0.850   398 h    0.815
   398   1 h    0.892 --   397 o    0.815
   399   1 h    0.888 --   397 o    0.850
   400   8 o    1.866 --   402 h    0.842   401 h    0.811
   401   1 h    0.872 --   400 o    0.811
   402   1 h    0.893 --   400 o    0.842
   403   8 o    1.859 --   405 h    0.824   404 h    0.822
   404   1 h    0.892 --   403 o    0.822
   405   1 h    0.884 --   403 o    0.824
   406   8 o    1.814 --   407 h    0.851   408 h    0.794
   407   1 h    0.898 --   406 o    0.851
   408   1 h    0.886 --   406 o    0.794
   409   8 o    1.861 --   411 h    0.856   410 h    0.842
   410   1 h    0.888 --   409 o    0.842
   411   1 h    0.891 --   409 o    0.856
   412   8 o    1.888 --   413 h    0.831   414 h    0.820
   413   1 h    0.891 --   412 o    0.831
   414   1 h    0.878 --   412 o    0.820
   415   8 o    1.824 --   417 h    0.848   416 h    0.832
   416   1 h    0.893 --   415 o    0.832
   417   1 h    0.891 --   415 o    0.848
   418   8 o    1.874 --   419 h    0.827   420 h    0.797
   419   1 h    0.890 --   418 o    0.827
   420   1 h    0.885 --   418 o    0.797
   421   8 o    1.853 --   422 h    0.861   423 h    0.844
   422   1 h    0.896 --   421 o    0.861
   423   1 h    0.888 --   421 o    0.844
   424   8 o    1.866 --   425 h    0.913   426 h    0.820
   425   1 h    0.917 --   424 o    0.913
   426   1 h    0.880 --   424 o    0.820
   427   8 o    1.841 --   429 h    0.829   428 h    0.819
   428   1 h    0.896 --   427 o    0.819
   429   1 h    0.888 --   427 o    0.829
   430   8 o    1.837 --   431 h    0.891   432 h    0.852
   431   1 h    0.906 --   430 o    0.891
   432   1 h    0.895 --   430 o    0.852
   433   8 o    1.875 --   435 h    0.897   434 h    0.802
   434   1 h    0.877 --   433 o    0.802
   435   1 h    0.906 --   433 o    0.897
   436   8 o    1.858 --   438 h    0.884   437 h    0.845
   437   1 h    0.893 --   436 o    0.845
   438   1 h    0.902 --   436 o    0.884
   439   8 o    1.843 --   440 h    0.917   441 h    0.774
   440   1 h    0.922 --   439 o    0.917
   441   1 h    0.872 --   439 o    0.774
   442   8 o    1.864 --   443 h    0.871   444 h    0.852
   443   1 h    0.898 --   442 o    0.871
   444   1 h    0.894 --   442 o    0.852
   445   8 o    1.858 --   447 h    0.865   446 h    0.826
   446   1 h    0.879 --   445 o    0.826
   447   1 h    0.895 --   445 o    0.865
   448   8 o    1.854 --   450 h    0.868   449 h    0.812
   449   1 h    0.879 --   448 o    0.812
   450   1 h    0.900 --   448 o    0.868
   451   8 o    1.832 --   452 h    0.826   453 h    0.814
   452   1 h    0.878 --   451 o    0.826
   453   1 h    0.881 --   451 o    0.814
   454   8 o    1.810 --   456 h    0.855   455 h    0.845
   455   1 h    0.890 --   454 o    0.845
   456   1 h    0.897 --   454 o    0.855
   457   8 o    1.845 --   459 h    0.885   458 h    0.799
   458   1 h    0.878 --   457 o    0.799
   459   1 h    0.906 --   457 o    0.885
   460   8 o    1.857 --   462 h    0.878   461 h    0.837
   461   1 h    0.891 --   460 o    0.837
   462   1 h    0.901 --   460 o    0.878
   463   8 o    1.843 --   465 h    0.892   464 h    0.791
   464   1 h    0.877 --   463 o    0.791
   465   1 h    0.906 --   463 o    0.892
   466   8 o    1.863 --   468 h    0.883   467 h    0.799
   467   1 h    0.884 --   466 o    0.799
   468   1 h    0.899 --   466 o    0.883
   469   8 o    1.839 --   471 h    0.858   470 h    0.849
   470   1 h    0.891 --   469 o    0.849
   471   1 h    0.898 --   469 o    0.858
   472   8 o    1.863 --   473 h    0.832   474 h    0.798
   473   1 h    0.889 --   472 o    0.832
   474   1 h    0.876 --   472 o    0.798
   475   8 o    1.839 --   477 h    0.893   476 h    0.776
   476   1 h    0.872 --   475 o    0.776
   477   1 h    0.909 --   475 o    0.893
   478   8 o    1.834 --   479 h    0.882   480 h    0.854
   479   1 h    0.903 --   478 o    0.882
   480   1 h    0.894 --   478 o    0.854
   481   8 o    1.840 --   483 h    0.860   482 h    0.853
   482   1 h    0.899 --   481 o    0.853
   483   1 h    0.894 --   481 o    0.860
   484   8 o    1.881 --   485 h    0.851   486 h    0.839
   485   1 h    0.893 --   484 o    0.851
   486   1 h    0.880 --   484 o    0.839
   487   8 o    1.809 --   489 h    0.844   488 h    0.838
   488   1 h    0.896 --   487 o    0.838
   489   1 h    0.891 --   487 o    0.844
   490   8 o    1.851 --   491 h    0.804   492 h    0.799
   491   1 h    0.879 --   490 o    0.804
   492   1 h    0.878 --   490 o    0.799
   493   8 o    1.874 --   495 h    0.848   494 h    0.806
   494   1 h    0.883 --   493 o    0.806
   495   1 h    0.893 --   493 o    0.848
   496   8 o    1.846 --   498 h    0.865   497 h    0.859
   497   1 h    0.886 --   496 o    0.859
   498   1 h    0.897 --   496 o    0.865
   499   8 o    1.875 --   501 h    0.821   500 h    0.804
   500   1 h    0.875 --   499 o    0.804
   501   1 h    0.879 --   499 o    0.821
   502   8 o    1.863 --   503 h    0.861   504 h    0.847
   503   1 h    0.892 --   502 o    0.861
   504   1 h    0.884 --   502 o    0.847
   505   8 o    1.814 --   507 h    0.903   506 h    0.804
   506   1 h    0.883 --   505 o    0.804
   507   1 h    0.915 --   505 o    0.903
   508   8 o    1.869 --   510 h    0.866   509 h    0.859
   509   1 h    0.891 --   508 o    0.859
   510   1 h    0.893 --   508 o    0.866
   511   8 o    1.858 --   513 h    0.859   512 h    0.830
   512   1 h    0.889 --   511 o    0.830
   513   1 h    0.888 --   511 o    0.859
   514   8 o    1.845 --   516 h    0.906   515 h    0.834
   515   1 h    0.878 --   514 o    0.834
   516   1 h    0.914 --   514 o    0.906
   517   8 o    1.859 --   519 h    0.878   518 h    0.863
   518   1 h    0.895 --   517 o    0.863
   519   1 h    0.898 --   517 o    0.878
   520   8 o    1.878 --   522 h    0.816   521 h    0.795
   521   1 h    0.871 --   520 o    0.795
   522   1 h    0.885 --   520 o    0.816
   523   8 o    1.839 --   525 h    0.867   524 h    0.819
   524   1 h    0.880 --   523 o    0.819
   525   1 h    0.900 --   523 o    0.867
   526   8 o    1.852 --   528 h    0.896   527 h    0.749
   527   1 h    0.857 --   526 o    0.749
   528   1 h    0.903 --   526 o    0.896
   529   8 o    1.820 --   531 h    0.911   530 h    0.890
   530   1 h    0.903 --   529 o    0.890
   531   1 h    0.916 --   529 o    0.911
 ---------------------------------------------------------------------------

Topologies differ in total number of bonds
Writing topology from bond orders to xtbtopo.mol

molecular dipole:
                 x           y           z       tot (Debye)
 q only:       -1.561       0.585       2.673
   full:       -0.809       1.255       4.041      10.950
molecular quadrupole (traceless):
                xx          xy          yy          xz          yz          zz
 q only:      180.809      24.497    -101.391     -40.429      31.711     -79.418
  q+dip:      236.701      23.755    -137.434     -50.465      44.666     -99.266
   full:      237.509      23.605    -136.862     -50.403      44.342    -100.648


           -------------------------------------------------
          | TOTAL ENERGY             -901.160633162037 Eh   |
          | GRADIENT NORM               0.099307651354 Eh/α |
          | HOMO-LUMO GAP               6.341390094620 eV   |
           -------------------------------------------------

------------------------------------------------------------------------
 * finished run on 2022/11/17 at 06:55:17.052     
------------------------------------------------------------------------
 total:
 * wall-time:     0 d,  0 h,  0 min, 17.311 sec
 *  cpu-time:     0 d,  0 h,  0 min, 23.739 sec
 * ratio c/w:     1.371 speedup
 SCF:
 * wall-time:     0 d,  0 h,  0 min, 16.738 sec
 *  cpu-time:     0 d,  0 h,  0 min, 22.686 sec
 * ratio c/w:     1.355 speedup

