531
 energy: -901.139804174568 gnorm: 0.009580214188 xtb: 6.5.1 (579679a)
o            0.59777429744000       -2.86459112093150       -0.87669959106257
h            0.60922131617841       -3.72591702392018       -1.31873998365109
h            1.51383535805094       -2.72768266003377       -0.59584147601979
o           -0.71357762869625       -5.35739222845662       -0.34210071776081
h            0.03961758022424       -5.24663874023248        0.26816596222047
h           -0.46898134138935       -6.01313162251929       -1.02373829662040
o            3.13883941248755        4.31080587505621        0.14325941510883
h            3.67257398626955        3.52363139628788        0.34936773338655
h            2.23861596570756        4.14636398531231        0.53547250112036
o            2.76246445640662       -0.80672080655508       -1.06881370523873
h            2.68662578434255       -1.33996206778249       -1.87665458928939
h            2.93937671999305        0.10834791684754       -1.33880736138955
o           -5.92029778303197        1.12970838318901        5.92302239947926
h           -6.00473513709832        2.09846503821049        5.78957016036093
h           -5.04145184696885        0.98185001650685        6.28668484573984
o            1.77059660992941       -5.05920519512174       -2.05617916173352
h            2.27530342860377       -5.35819540358249       -2.83278593608225
h            1.87106695950779       -5.77136200694986       -1.39999184531271
o           -3.45500130375526       -3.86581616474097        2.73473017217984
h           -3.78777087078197       -4.77892175072559        2.74352844166365
h           -2.60868857967350       -3.84399299546543        2.26747314883031
o            5.19025253496350       -3.02060211525757        5.31481829530683
h            4.73705676980996       -3.06123902668749        4.45521453575820
h            4.92836423406096       -2.19196050533618        5.74005046995511
o           -1.15117325379779       -3.09703011846677        1.33232314289072
h           -0.64027917519689       -3.09173378065803        0.50749842811568
h           -0.52035691672279       -2.85249636625397        2.02824570852554
o            0.72703332004787        1.64357411981423        3.44466231571438
h           -0.11532962590004        1.98346284168022        3.09786554358919
h            1.42972336685437        2.26998475639722        3.20972494161093
o           -1.70468441954414       -0.87150258724437       -1.19053066704620
h           -1.81217591257190       -1.83093984993087       -1.33423267751374
h           -2.43245121562431       -0.43565992208070       -1.67715544049833
o            2.96171974332056        2.97107283185266        2.90327422464298
h            3.57474285624581        2.57984546354949        2.24629169769540
h            3.06692955365904        3.92952407643012        2.85191116230796
o           -0.88529813926451        3.47209026316968       -1.31981521775117
h           -1.22160508536319        3.71766318998637       -0.42910492848897
h           -1.64955395415942        3.61445218426183       -1.91354849666658
o           -4.20526881984772        2.42677671665099        3.42645004230417
h           -4.05842358367164        3.27812307856528        3.88098273853364
h           -5.04352824407628        2.47446309292634        2.92695336064582
o            0.29944271241879       -0.02042499380525       -5.93626617825065
h           -0.18145499106537        0.28663405880669       -5.16225254646113
h            0.90890871727404        0.69356255685318       -6.19522621482489
o           -1.92678619593849        6.15193880194096       -4.10880163559761
h           -2.15543883612453        5.33391653583481       -3.63999026319255
h           -1.10949038846469        6.47858280923592       -3.70851289583489
o           -3.58596350710508       -0.09199378816489       -2.84992720389190
h           -4.34306249036349       -0.65127933667647       -2.62789267749179
h           -3.91581830360168        0.82740488103590       -2.77183645233728
o            0.29571127516493       -1.12964946579429       -2.97763487684396
h           -0.46131381970078       -1.44219257179735       -3.49369503256514
h            0.37882601585338       -1.73732288081608       -2.22103754923853
o            2.90433914904382       -1.17008614114287        1.59949165820370
h            3.58857937286234       -0.59582214802113        1.97029553190193
h            2.93876524604984       -1.05391007752143        0.63324951204892
o            3.68403166520615       -3.37719564727394        2.97158863710470
h            3.49463248677817       -2.62001355152268        2.38453368727020
h            4.01068167380090       -4.08587133042511        2.41102811911177
o           -4.78090029584188        5.77352670384890       -4.19357446713222
h           -3.93605020432470        6.23740257671226       -4.21000247580847
h           -4.63836853956577        4.94192587380288       -4.67073111336322
o            2.42549157787011        0.05007835035408       -3.92202428422618
h            2.02084354721192        0.93211933912053       -3.87523770376667
h            1.70508019370753       -0.55791880883785       -3.64303656400990
o            4.61276927324102        2.18750817464954        0.99100569045747
h            5.52000642176981        2.51187188085597        1.08285873683575
h            4.73539309596430        1.22061295875522        0.78766260172276
o            8.55940394328348       -1.28791101991133        0.37085579769331
h            9.38767187513914       -1.66508136431886       -0.00612254903198
h            8.66416918666379       -1.25276474687225        1.33528670031580
o           -5.72567426738900        1.10121216323290       -0.19675741814528
h           -6.09118318117815        0.26427403318156       -0.51385921362549
h           -5.04659359529174        0.82579404968508        0.46282896725983
o            3.06112791559776        1.82039735680902       -1.62197735031770
h            3.04287254709142        2.34105510280362       -2.44334963741341
h            3.94447826654308        1.99914064462584       -1.26826594903395
o           -4.09517131196213       -2.45207400060403        4.93306196882492
h           -3.65605845790151       -2.89719544180650        4.18203716130311
h           -4.55205318387381       -1.68077979976223        4.54651170138777
o           -1.83592627556802       -1.38906452582658       -6.92280373742286
h           -1.92120763915576       -1.50114813272784       -5.94980180719484
h           -0.98394415341242       -0.95035994082831       -7.03634094718869
o           -6.70502796432735        2.26846365443882       -4.43890560117161
h           -7.27788458697918        2.97794968531448       -4.08703874251634
h           -7.25860694816773        1.50797246679455       -4.66340603754263
o            7.81280088755106       -2.74902413835360        5.18587713316942
h            6.83084652665407       -2.90762091313926        5.18268735286556
h            8.19352141762920       -3.46206781649963        5.69660642708541
o            5.97641482542578       -4.56316146224310       -3.71164643114451
h            5.79526752113227       -3.68568052585341       -4.09793468160547
h            6.59640504450492       -4.99742247785394       -4.29794113124955
o           -8.83658373756780       -2.41796776936804        0.01690015793184
h           -7.87379429919273       -2.29225731773119       -0.13457012761523
h           -8.94774760105420       -2.87998189500350        0.86087477013038
o           -2.67914327593682        1.64666967922667       -0.50045154986940
h           -3.00133489624492        1.12554337377550        0.24280992957282
h           -3.35063767003791        2.31326062178244       -0.66131662614497
o           -0.22761211008256       -7.24205642870328       -2.20688631105137
h            0.54544263979524       -7.57999512095016       -1.72752905232482
h            0.09778028332815       -6.92384072322650       -3.06326056049984
o            0.94341710417275       -2.51813210707492        2.92554891907600
h            1.58070853394641       -2.05258658406708        2.35756840977146
h            1.04513960123491       -2.10456956964428        3.79098660388362
o            6.12749801330854       -5.93088148525021       -1.29439114591026
h            6.96133752114754       -5.81926755240565       -0.80991921965804
h            6.13960530128531       -5.30866738997745       -2.03842860798080
o            2.07024654422862       -0.48675122784089        4.45607772827840
h            1.59448327296856        0.22009287498025        3.98608558688257
h            2.94813537888089       -0.51763915657486        4.05149289071441
o           -6.33419979523128       -1.58392557204827       -0.14420463932134
h           -5.93696733728568       -1.99271943342126        0.65034457036299
h           -5.74674807753384       -1.81493291591599       -0.88955806766954
o            5.69303691171695        2.46456348354524       -1.63461265464562
h            6.27818836042813        2.31948145440514       -0.88525836626829
h            5.98414983760800        3.29033344333263       -2.05147266957039
o           -1.62425204880654        2.07656952934181       -4.26966247587311
h           -2.22458413030955        1.52162590242782       -4.81749193074712
h           -2.19519858563590        2.70303266372050       -3.80947307356822
o            3.23290713426057       -3.35873300498655       -0.09170969709159
h            3.87381964119819       -4.04554606826612        0.16782758252956
h            3.73857971814567       -2.63193765061642       -0.47024550727185
o            0.34907854901328       -2.32398639678757        6.12539179680439
h            0.57953884283204       -1.44344935558102        5.79039645358388
h           -0.49778859131661       -2.18336371593408        6.59152735565736
o            4.75487933695617       -0.33827181881628        6.13386955951734
h            4.06492560496822        0.14173781174973        6.60371952302639
h            4.59361210381824       -0.19329591046659        5.17920539358835
o           -1.94342401979474       -1.12726645761531        3.66155719919138
h           -1.76539711501161       -2.07361872841551        3.79699758602596
h           -1.71083571487343       -0.90702473704875        2.74307513040556
o            1.00620609264738        2.27910557445146       -3.76997033593316
h            0.04226032947925        2.21126255234541       -3.85639701261458
h            1.19942957382052        3.07489654581989       -3.23353895020175
o           -0.61052656025737        6.16102543119812       -0.31666823462061
h           -0.22771741757311        6.49030584814848       -1.15157267236071
h           -0.33259120984330        6.75137552742705        0.40936411762015
o           -4.31060522907473       -4.69773572155810       -0.13976667503290
h           -3.74709861075517       -5.37555108557191        0.29965440919897
h           -5.21171921377187       -4.84492067110250        0.20692782700167
o           -5.39308383134566       -0.36290433993060        3.72448560085323
h           -6.19827832464168       -0.41473209812211        3.18225519025983
h           -5.60737575226428        0.21498930615388        4.48118565244891
o            7.88471585827905        1.83177772475325       -3.33697795690504
h            7.15129674812393        2.20615411461932       -3.84229096192358
h            8.25992813226791        1.14054724528344       -3.89832456102476
o           -3.23545661482404        0.81164497509821       -5.93886938200908
h           -4.04919006322829        0.33651864897869       -5.64910486269283
h           -2.79420645406147        0.19124116655718       -6.54158040629137
o           -7.47103078415964       -0.12921187371215        1.97547920872069
h           -8.39362832926379       -0.32289636524264        2.20006402888464
h           -7.25457743234171       -0.57695525847164        1.14820686727280
o            2.29284892267617        1.16952130189548        6.61948193076417
h            2.11251202480721        0.51926204092463        5.90842633833334
h            1.56995618504395        1.08064430624103        7.26060659648225
o           -7.63191963203280        3.44908149900459       -0.14389523734960
h           -7.73470860589641        4.38533094314209        0.13790527390541
h           -7.23845390033777        2.99273631224256        0.62626896219668
o           -3.94160751500913        0.21016425630183        1.52399133400849
h           -4.34958216045879        0.09176013618684        2.40033186170407
h           -3.82395152402490       -0.69381849212956        1.16615659520748
o            7.38408772282581       -0.02349682872004        5.28538616663730
h            6.52737948930908       -0.01356418644165        5.73918651863500
h            7.68841488469140       -0.94036797395545        5.35559703392351
o            9.20505066608256        1.13686178042520       -0.53192054924991
h            8.75256909216256        0.29889660436930       -0.28702695937060
h           10.11039138498733        1.04462693198280       -0.17616264215634
o           -8.71956358182464        2.69085794335004        3.63107679981945
h           -8.89905894137158        3.59372536098480        3.89441234448784
h           -9.36381861275222        2.44322502692465        2.92485401844045
o            1.88306216769519        2.14801753711337       -6.37294683543676
h            1.16307805869301        2.68632239207077       -6.73945645933324
h            1.81060875091687        2.30373000096689       -5.41023118485463
o           -3.07180507830675       -5.39276788807472        5.62734385811167
h           -3.99052118137100       -5.13782494182754        5.74344151734050
h           -2.57509938558975       -4.60175105606303        5.35775224862364
o            2.97527948456250        6.82025435243675        1.22286201314656
h            3.36351924124278        6.76542011712405        2.10023545874626
h            3.09517290003905        5.93823832606744        0.82078097535035
o           -4.87597673732098        2.18375607599745       -2.49420332619506
h           -5.56503684079208        2.18269526939596       -3.18665669655148
h           -5.28274506468238        1.84661851787592       -1.66751009439313
o           -7.15808036059454        5.31064657939399        3.44880390243005
h           -6.30316795381046        5.34324891176920        2.94739706884918
h           -7.22164623849662        6.14882969182947        3.90814934091329
o           -6.11862620663160        6.96614686040130        0.00832874062751
h           -5.96356208351807        6.34765045478339       -0.73214120287398
h           -5.57544069692703        6.62936786854669        0.74013957563185
o           -4.63886915671959        3.65545029225781        0.15414137019908
h           -5.22948264832392        2.90974761024242        0.32192819003240
h           -5.02021013963940        4.15311949908580       -0.60148764699557
o            5.35992928412175       -0.24147823369625        0.56420974725433
h            5.87374774315111       -0.18994734097731       -0.26270331242720
h            6.03448703203828       -0.23838262448347        1.26497090993973
o            3.78681695286999        5.51474850765805        3.71847947441029
h            4.61614052192780        5.29375187716119        3.24534224550650
h            3.89442991538637        5.14871696191703        4.60355587249572
o            5.13395305778695       -2.27914345584764       -2.06639438238614
h            4.32940500483067       -2.59998895738072       -2.51560631380953
h            5.15939489742637       -1.31932036199730       -2.26182159735475
o            0.73753255007412        4.14269034415312        1.10117506843642
h            0.75579008508012        4.44874836035807        2.02694613554615
h            0.18800585805753        4.78083600994806        0.61513983072890
o           -0.18524331401372        0.86981652470098        7.90021078824139
h           -0.40285967252366        0.14168450145482        8.48186296517776
h           -0.36986588698475        0.55766397876183        6.98587791307090
o           -3.54451646005019       -2.17467718493992        0.50766659000001
h           -2.63981938678546       -2.35253538283857        0.80871386156973
h           -3.89468102246312       -3.05605898486796        0.29286128472937
o            5.56855972346554       -2.09681393976382       -4.90088541291039
h            5.78491329989298       -1.76668896999165       -5.77472013973869
h            5.35144707930849       -1.30772796287259       -4.37137189823694
o           -5.86512080395150       -2.81108435039600        2.15139868349948
h           -6.32874102273796       -2.63601729443812        2.99007721098946
h           -4.95135116782827       -3.09030963509009        2.35923143621749
o            2.72390944938378       -2.71746177258170       -3.04537148995964
h            2.20519845690814       -2.63091826791122       -3.86553495546726
h            2.38490111543609       -3.50437260047464       -2.59011139329732
o            3.63478393567566       -0.22183357651903       -6.30824757193922
h            3.18261308752663        0.45157004180455       -6.82089022907800
h            3.17751942449918       -0.23907916411895       -5.44183652492263
o           -9.90035166877463        1.34115368347149       -3.73841140476107
h           -9.15945535061254        1.44995192857766       -3.09386630236025
h           -9.51498896852712        0.84591453751854       -4.47433413718418
o            7.00916868911012       -0.05877201984722       -1.51258649816683
h            7.42972201039239       -0.86010710370185       -1.85811044160977
h            7.27580712557202        0.67450836802133       -2.08792358778841
o            6.48034664227266       -2.86662729824252        0.15726512280963
h            5.93220467922759       -2.69039384269303       -0.62790392564495
h            7.21737154619346       -2.21256257842485        0.12218706126391
o          -10.31930093090542       -2.59476691106489       -2.28369560092566
h          -10.81944089750393       -1.76523578022663       -2.27219163419272
h           -9.91733367719897       -2.68763462214934       -1.40511660033717
o           -0.39537855381772        0.19785215484392        5.36763705120621
h           -0.04973173348592        0.92453795472395        4.82724426074240
h           -0.98112976177349       -0.31219334193546        4.76939513720977
o            4.98837608269314        0.11517644931417       -3.27271731216670
h            5.23880711695905        0.90239724157833       -2.77053536265769
h            4.03090541472456        0.17169109377115       -3.45539104621921
o            0.78299287765638        3.45749713182344        5.59557040245917
h           -0.13967271114168        3.22991340703825        5.80107229689374
h            1.32883659791462        2.74526813320210        5.95336959666399
o            5.77885195375516        3.03092518049959       -4.95586110110958
h            5.44576581295768        3.43685410723868       -5.77880902195888
h            4.95724123118188        3.02947824643366       -4.40284788961688
o            1.34937525180913       -4.74198230555280        1.32617264986182
h            1.13040766422386       -4.17639085342655        2.08204606373384
h            1.97234249711165       -4.23799215551173        0.77903723002331
o           -8.02467269889431        1.44423699400789       -1.88156766983373
h           -7.74628949012184        2.26034009569240       -1.43268356757982
h           -8.51815212641099        0.93676961458929       -1.20261098392523
o           -7.97953400628237        4.37406874258682       -3.35172941283657
h           -7.87540721084289        5.13538971525368       -3.92395003664744
h           -8.95371863000014        4.26848487678242       -3.19177154077682
o            0.51193173960449        6.67147808213967       -2.77132858378453
h            1.20581461482821        7.28384207072633       -2.46460819374102
h            0.90614965723032        5.78077635747675       -2.62910619827934
o            7.24025000047089        0.18086887441938        2.50352464153039
h            7.37051289548561        1.06485986710544        2.12472881827384
h            7.33826188027766        0.24327136023022        3.46856833769630
o           10.22204775302817       -0.26202333319039       -2.67923941102784
h            9.55982683506718       -0.51986538546866       -3.32669676855882
h            9.80733431970438        0.39396256364955       -2.09010463438628
o            5.91095298489910        4.63826582887533        2.36199860106052
h            5.94686966546710        4.74775427301724        1.38681928413483
h            6.82029324813335        4.80615412839901        2.64788530923709
o            7.38427528450863        2.43642910475547        0.97797493566651
h            7.81487019145920        3.14662363256545        1.48199443000477
h            8.07685434145313        2.03477868461935        0.40974673048483
o            2.04100206814185       -7.36540101305982       -0.66704876221319
h            2.82649673866567       -7.64458978765750       -1.18285956575796
h            2.26846473533831       -7.46274321172840        0.26552281186555
o            6.17012757335348       -2.27025695527213        2.73708592506117
h            7.04665123023244       -1.88408523240008        2.85451618516649
h            6.08322175431635       -2.44345550930320        1.77842146740339
o            2.82719181840124       -6.87071910875490        1.97091964604399
h            2.16574396276869       -6.14910715820365        1.89746301325871
h            3.25557484395718       -6.77032373096908        2.84603136915369
o           -9.58878962028030        0.11429300509638       -0.17550780921686
h           -9.33325345418798       -0.82906568248173       -0.05482188021389
h          -10.36474355208961        0.09532445495623       -0.76190619411275
o           -7.55318325953761       -2.42378185762869        4.23695995030718
h           -7.77653738411573       -1.52606406331618        4.52109274234647
h           -8.30073435408246       -2.75196288908084        3.71447686438153
o           -6.76981242541670       -4.95810909810113        0.89072557836130
h           -6.51772429640452       -5.64372262199218        1.52246128415030
h           -6.59753724520010       -4.11895180215566        1.37829452992568
o            0.53923013307162       -6.07942599686846       -4.62991694475004
h            0.22224260888088       -5.52281724100906       -5.35016839192701
h            1.49983484394982       -6.07176836317940       -4.68192630652448
o            7.98775952771930       -4.97919604874484        0.55354584614377
h            7.40315589595711       -4.19353283123643        0.40254659975280
h            7.71963566849512       -5.29934855814221        1.43089755184557
o           -5.35829379727329       -0.62003955947444       -5.25445550790720
h           -5.02943724388367       -1.53141315112012       -5.27750966306831
h           -5.60867992324328       -0.45827712518233       -4.31849507374256
o           -2.91442072380843       -7.87027956591871       -1.58536051241486
h           -2.92805487084345       -7.61631886218054       -0.64790954068909
h           -1.98705288444705       -7.82426705838751       -1.85735272838014
o            9.15064620983012       -1.76245253428507        2.99227265018562
h            9.66020910785399       -2.49979383387623        2.59165341785423
h            8.79540157258840       -2.11246198131214        3.82473565935207
o            4.15240156805213       -6.15768585800824        4.19203076577572
h            5.04523034511838       -5.81813116121064        4.03253231687348
h            3.71157279335108       -5.53945976206502        4.78586560428142
o           -5.18583063477377       -5.96389892808708        2.97214396285340
h           -4.70019389622981       -6.74022128006211        3.25498877441167
h           -5.47827225904194       -5.49592986300384        3.78554943838798
o           -4.76582198164081       -2.66356591088192       -2.09101361630203
h           -3.89518435881626       -2.94271354728344       -1.74182924189828
h           -5.39079434825781       -3.40411515657596       -1.96864523715479
o           -5.83273500785616       -4.45117400823333        5.11304695212631
h           -6.70130256887280       -4.04396881811269        5.03323132923159
h           -5.21773964381344       -3.68109520907861        5.13411733337163
o            9.43752309121413       -4.22711283972086       -1.78645498355804
h            9.00933299984069       -4.64016874229869       -1.02781569014246
h            8.78360167258306       -3.63007003931262       -2.19393316915314
o            5.86415377984087        2.28092653378211        3.77029287880330
h            5.81638743917279        3.04125419324154        3.16447033860957
h            5.29429239141121        2.52455392607922        4.52961231725590
o           -8.29933066671240        0.27073224008202        4.93656164320040
h           -7.58035793101670        0.39217343521504        5.57285296266687
h           -8.40305135138959        1.15097350391600        4.53668709139952
o           -2.05283941584349        4.10243469268814        0.97105362220865
h           -2.95750680591112        4.01711561260378        0.63035123751769
h           -1.88365536623989        3.30357091210447        1.53184721717991
o          -11.45509293212999       -0.04949990610771       -2.13287416341802
h          -10.93721050047785        0.45407912217192       -2.81274594304167
h          -12.37810788469532        0.15642578038729       -2.27537054769756
o           -9.61961264572040       -3.13817131714953        2.55019524680062
h           -9.97856325791837       -2.23650443060361        2.65976648413459
h          -10.33694650026838       -3.75585340244294        2.68813226600299
o          -10.52535858288830        3.92586740386949       -2.94406760645829
h          -10.56048985262895        3.03316203799229       -3.31741756051987
h          -10.62178502444189        3.83941479679035       -1.97877111801535
o            7.72620329798560       -2.36447584123094       -2.79485971290089
h            6.77405803192257       -2.54602037748796       -2.67286853511935
h            7.82038393904794       -1.91606838153294       -3.64703655363883
o           -2.23850827191779       -6.70344850097384        3.46173848003024
h           -1.28933660827935       -6.53853790047368        3.52742010143659
h           -2.60722976850870       -6.34038807195755        4.29424104409305
o           -2.17836030309832       -3.45399351154866       -1.65997447169232
h           -2.02792294645538       -3.81699677587025       -2.55201329563174
h           -1.76741730502447       -4.08510128859627       -1.04696719716535
o           -3.23588988918339        5.94498557314144       -0.86658866410069
h           -3.57568364865844        6.82262302011705       -1.03544703143426
h           -2.29808281859058        6.02771381986629       -0.59315971036816
o            3.51785396732409        3.50950391619847       -3.70619556934988
h            3.78726480502855        4.23607611578945       -3.10543984198647
h            2.88465689377020        3.94642475186234       -4.30647397155795
o            3.50461049155269       -3.72868360466375       -5.98067863733006
h            2.65382739698552       -3.25255606723728       -5.92659955474738
h            4.16120413053581       -3.10203564680221       -5.64493248227999
o           -2.74416077520470       -6.54769438362410        0.84899743863267
h           -2.61385171979464       -6.68786541701933        1.80582510366068
h           -1.92279901870850       -6.12420744081394        0.51436971857826
o            6.18119665402685        0.53906424268734       -6.02877730256774
h            5.25960025482969        0.23216947056025       -6.17687550162778
h            6.08188583474044        1.43986620071335       -5.67413566757017
o           10.77630674610600       -2.12971578491108       -0.82035142209000
h           10.46996377092737       -2.96385306892233       -1.24079259168307
h           10.74506193300492       -1.47382950156251       -1.54994972670037
o           -4.22792161594567       -5.80622631481523       -2.58853482524326
h           -3.87271538050093       -6.69335518991014       -2.35460298414709
h           -4.15543310787124       -5.31144494841971       -1.74119456155684
o           -8.31055965777070        5.77168805021982        0.90944116892451
h           -7.63086520433080        6.38741215459484        0.54690925835911
h           -8.06066356935532        5.62430226679369        1.83401632854555
o           -8.06832596974464       -0.17617362955538       -5.14749880753000
h           -7.22337557893618       -0.29574072766193       -5.60814907349266
h           -8.17712328435037       -0.99651014644687       -4.64411472323256
o           -2.21100427846930       -1.64206507465428        6.81134333586371
h           -2.37311661612909       -0.70522581997096        6.67053514702712
h           -2.85858372238887       -2.08538806132372        6.23552364308651
o          -10.35084234997903        1.89441616524143        1.69199696192125
h          -10.57990803942699        2.65623285956276        1.13029947113422
h           -9.97889993318719        1.24763838854773        1.05673356155940
o            1.71582681361050        4.97685282826209       -5.13717836018744
h            0.92866675044114        4.54368553595014       -5.53150849960310
h            1.39113408323443        5.74066740799751       -4.65338814197229
o            8.60244815829021        4.34742892515819        2.60700653042965
h            9.42504118217256        4.25916793834694        2.10494872380883