      -----------------------------------------------------------      
     |                   =====================                   |     
     |                           x T B                           |     
     |                   =====================                   |     
     |                         S. Grimme                         |     
     |          Mulliken Center for Theoretical Chemistry        |     
     |                    University of Bonn                     |     
      -----------------------------------------------------------      

   * xtb version 6.5.1 (579679a) compiled by 'ehlert@majestix' on 2022-07-11

   xtb is free software: you can redistribute it and/or modify it under
   the terms of the GNU Lesser General Public License as published by
   the Free Software Foundation, either version 3 of the License, or
   (at your option) any later version.
   
   xtb is distributed in the hope that it will be useful,
   but WITHOUT ANY WARRANTY; without even the implied warranty of
   MERCHANTABILITY or FITNESS FOR A PARTICULAR PURPOSE.  See the
   GNU Lesser General Public License for more details.
   
   Cite this work as:
   * C. Bannwarth, E. Caldeweyher, S. Ehlert, A. Hansen, P. Pracht,
     J. Seibert, S. Spicher, S. Grimme, WIREs Comput. Mol. Sci., 2020, 11,
     e01493. DOI: 10.1002/wcms.1493
   
   for GFN2-xTB:
   * C. Bannwarth, S. Ehlert and S. Grimme., J. Chem. Theory Comput., 2019,
     15, 1652-1671. DOI: 10.1021/acs.jctc.8b01176
   for GFN1-xTB:
   * S. Grimme, C. Bannwarth, P. Shushkov, J. Chem. Theory Comput., 2017,
     13, 1989-2009. DOI: 10.1021/acs.jctc.7b00118
   for GFN0-xTB:
   * P. Pracht, E. Caldeweyher, S. Ehlert, S. Grimme, ChemRxiv, 2019, preprint.
     DOI: 10.26434/chemrxiv.8326202.v1
   for GFN-FF:
   * S. Spicher and S. Grimme, Angew. Chem. Int. Ed., 2020, 59, 15665-15673.
     DOI: 10.1002/anie.202004239
   
   for ALPB and GBSA implicit solvation:
   * S. Ehlert, M. Stahn, S. Spicher, S. Grimme, J. Chem. Theory Comput.,
     2021, 17, 4250-4261. DOI: 10.1021/acs.jctc.1c00471
   
   for DFT-D4:
   * E. Caldeweyher, C. Bannwarth and S. Grimme, J. Chem. Phys., 2017,
     147, 034112. DOI: 10.1063/1.4993215
   * E. Caldeweyher, S. Ehlert, A. Hansen, H. Neugebauer, S. Spicher,
     C. Bannwarth and S. Grimme, J. Chem. Phys., 2019, 150, 154122.
     DOI: 10.1063/1.5090222
   * E. Caldeweyher, J.-M. Mewes, S. Ehlert and S. Grimme, Phys. Chem. Chem. Phys.
     2020, 22, 8499-8512. DOI: 10.1039/D0CP00502A
   
   for sTDA-xTB:
   * S. Grimme and C. Bannwarth, J. Chem. Phys., 2016, 145, 054103.
     DOI: 10.1063/1.4959605
   
   in the mass-spec context:
   * V. Asgeirsson, C. Bauer and S. Grimme, Chem. Sci., 2017, 8, 4879.
     DOI: 10.1039/c7sc00601b
   * J. Koopman and S. Grimme, ACS Omega 2019, 4, 12, 15120-15133.
     DOI: 10.1021/acsomega.9b02011
   
   for metadynamics refer to:
   * S. Grimme, J. Chem. Theory Comput., 2019, 155, 2847-2862
     DOI: 10.1021/acs.jctc.9b00143
   
   for SPH calculations refer to:
   * S. Spicher and S. Grimme, J. Chem. Theory Comput., 2021, 17, 1701-1714
     DOI: 10.1021/acs.jctc.0c01306
   
   with help from (in alphabetical order)
   P. Atkinson, C. Bannwarth, F. Bohle, G. Brandenburg, E. Caldeweyher
   M. Checinski, S. Dohm, S. Ehlert, S. Ehrlich, I. Gerasimov, C. Hölzer
   A. Katbashev, J. Koopman, C. Lavigne, S. Lehtola, F. März, M. Müller,
   F. Musil, H. Neugebauer, J. Pisarek, C. Plett, P. Pracht, F. Pultar,
   J. Seibert, P. Shushkov, S. Spicher, M. Stahn, M. Steiner, T. Strunk,
   J. Stückrath, T. Rose, and J. Unsleber
   
 * started run on 2022/11/24 at 09:07:52.369     

           -------------------------------------------------
          |                Calculation Setup                |
           -------------------------------------------------

          program call               : xtb solvent_cluster.coord --gfn2 --input xcontrol --opt 1
          hostname                   : cn0341
          coordinate file            : solvent_cluster.coord
          omp threads                :                     2

   ID    Z sym.   atoms
    1    8 o      1, 4, 7, 10, 13, 16, 19, 22, 25, 28, 31, 34, 37, 40, 43,
                  46, 49, 52, 55, 58, 61, 64, 67, 70, 73, 76, 79, 82, 85, 88,
                  91, 94, 97, 100, 103, 106, 109, 112, 115, 118, 121, 124,
                  127, 130, 133, 136, 139, 142, 145, 148, 151, 154, 157, 160,
                  163, 166, 169, 172, 175, 178, 181, 184, 187, 190, 193, 196,
                  199, 202, 205, 208, 211, 214, 217, 220, 223, 226, 229, 232,
                  235, 238, 241, 244, 247, 250, 253, 256, 259, 262, 265, 268,
                  271, 274, 277, 280, 283, 286, 289, 292, 295, 298, 301, 304,
                  307, 310, 313, 316, 319, 322, 325, 328, 331, 334, 337, 340,
                  343, 346, 349, 352, 355, 358, 361, 364, 367, 370, 373, 376,
                  379, 382, 385, 388, 391, 394, 397, 400, 403, 406, 409, 412,
                  415, 418, 421, 424, 427, 430, 433, 436, 439, 442, 445, 448,
                  451, 454, 457, 460, 463, 466, 469, 472, 475, 478, 481, 484,
                  487, 490, 493, 496, 499, 502, 505, 508, 511, 514, 517, 520,
                  523, 526, 529, 532, 535, 538, 541, 544, 547, 550, 553, 556,
                  559, 562, 565, 568, 571, 574, 577, 580, 583, 586, 589, 592,
                  595, 598, 601, 604, 607, 610, 613, 616, 619, 622, 625, 628,
                  631, 634, 637, 640, 643, 646, 649, 652, 655, 658, 661, 664,
                  667, 670, 673, 676, 679, 682, 685, 688, 691, 694, 697, 700,
                  703, 706, 709, 712, 715, 718, 721, 724, 727, 730, 733, 736,
                  739, 742, 745, 748, 751, 754
    2    1 h      2, 3, 5, 6, 8, 9, 11, 12, 14, 15, 17, 18, 20, 21, 23, 24,
                  26, 27, 29, 30, 32, 33, 35, 36, 38, 39, 41, 42, 44, 45, 47,
                  48, 50, 51, 53, 54, 56, 57, 59, 60, 62, 63, 65, 66, 68, 69,
                  71, 72, 74, 75, 77, 78, 80, 81, 83, 84, 86, 87, 89, 90, 92,
                  93, 95, 96, 98, 99, 101, 102, 104, 105, 107, 108, 110, 111,
                  113, 114, 116, 117, 119, 120, 122, 123, 125, 126, 128, 129,
                  131, 132, 134, 135, 137, 138, 140, 141, 143, 144, 146, 147,
                  149, 150, 152, 153, 155, 156, 158, 159, 161, 162, 164, 165,
                  167, 168, 170, 171, 173, 174, 176, 177, 179, 180, 182, 183,
                  185, 186, 188, 189, 191, 192, 194, 195, 197, 198, 200, 201,
                  203, 204, 206, 207, 209, 210, 212, 213, 215, 216, 218, 219,
                  221, 222, 224, 225, 227, 228, 230, 231, 233, 234, 236, 237,
                  239, 240, 242, 243, 245, 246, 248, 249, 251, 252, 254, 255,
                  257, 258, 260, 261, 263, 264, 266, 267, 269, 270, 272, 273,
                  275, 276, 278, 279, 281, 282, 284, 285, 287, 288, 290, 291,
                  293, 294, 296, 297, 299, 300, 302, 303, 305, 306, 308, 309,
                  311, 312, 314, 315, 317, 318, 320, 321, 323, 324, 326, 327,
                  329, 330, 332, 333, 335, 336, 338, 339, 341, 342, 344, 345,
                  347, 348, 350, 351, 353, 354, 356, 357, 359, 360, 362, 363,
                  365, 366, 368, 369, 371, 372, 374, 375, 377, 378, 380, 381,
                  383, 384, 386, 387, 389, 390, 392, 393, 395, 396, 398, 399,
                  401, 402, 404, 405, 407, 408, 410, 411, 413, 414, 416, 417,
                  419, 420, 422, 423, 425, 426, 428, 429, 431, 432, 434, 435,
                  437, 438, 440, 441, 443, 444, 446, 447, 449, 450, 452, 453,
                  455, 456, 458, 459, 461, 462, 464, 465, 467, 468, 470, 471,
                  473, 474, 476, 477, 479, 480, 482, 483, 485, 486, 488, 489,
                  491, 492, 494, 495, 497, 498, 500, 501, 503, 504, 506, 507,
                  509, 510, 512, 513, 515, 516, 518, 519, 521, 522, 524, 525,
                  527, 528, 530, 531, 533, 534, 536, 537, 539, 540, 542, 543,
                  545, 546, 548, 549, 551, 552, 554, 555, 557, 558, 560, 561,
                  563, 564, 566, 567, 569, 570, 572, 573, 575, 576, 578, 579,
                  581, 582, 584, 585, 587, 588, 590, 591, 593, 594, 596, 597,
                  599, 600, 602, 603, 605, 606, 608, 609, 611, 612, 614, 615,
                  617, 618, 620, 621, 623, 624, 626, 627, 629, 630, 632, 633,
                  635, 636, 638, 639, 641, 642, 644, 645, 647, 648, 650, 651,
                  653, 654, 656, 657, 659, 660, 662, 663, 665, 666, 668, 669,
                  671, 672, 674, 675, 677, 678, 680, 681, 683, 684, 686, 687,
                  689, 690, 692, 693, 695, 696, 698, 699, 701, 702, 704, 705,
                  707, 708, 710, 711, 713, 714, 716, 717, 719, 720, 722, 723,
                  725, 726, 728, 729, 731, 732, 734, 735, 737, 738, 740, 741,
                  743, 744, 746, 747, 749, 750, 752, 753, 755, 756

molecular fragmentation (1/2 indicates fragments):
111222222222222222222222222222222222222222222222222222222222222222222222
222222222222222222222222222222222222222222222222222222222222222222222222
222222222222222222222222222222222222222222222222222222222222222222222222
222222222222222222222222222222222222222222222222222222222222222222222222
222222222222222222222222222222222222222222222222222222222222222222222222
222222222222222222222222222222222222222222222222222222222222222222222222
222222222222222222222222222222222222222222222222222222222222222222222222
222222222222222222222222222222222222222222222222222222222222222222222222
222222222222222222222222222222222222222222222222222222222222222222222222
222222222222222222222222222222222222222222222222222222222222222222222222
222222222222222222222222222222222222
# atoms in fragment 1/2:     3   753
 fragment masses (1/2) :       18.02     4521.84
CMA distance (Bohr)    :  19.228
constraining FC (au)   :  0.0500

           -------------------------------------------------
          |                 G F N 2 - x T B                 |
           -------------------------------------------------

        Reference                      10.1021/acs.jctc.8b01176
      * Hamiltonian:
        H0-scaling (s, p, d)           1.850000    2.230000    2.230000
        zeta-weighting                 0.500000
      * Dispersion:
        s8                             2.700000
        a1                             0.520000
        a2                             5.000000
        s9                             5.000000
      * Repulsion:
        kExp                           1.500000    1.000000
        rExp                           1.000000
      * Coulomb:
        alpha                          2.000000
        third order                    shell-resolved
        anisotropic                    true
        a3                             3.000000
        a5                             4.000000
        cn-shift                       1.200000
        cn-exp                         4.000000
        max-rad                        5.000000


          ...................................................
          :                      SETUP                      :
          :.................................................:
          :  # basis functions                1512          :
          :  # atomic orbitals                1512          :
          :  # shells                         1008          :
          :  # electrons                      2016          :
          :  max. iterations                   250          :
          :  Hamiltonian                  GFN2-xTB          :
          :  restarted?                      false          :
          :  GBSA solvation                  false          :
          :  PC potential                    false          :
          :  electronic temp.          300.0000000     K    :
          :  accuracy                    1.0000000          :
          :  -> integral cutoff          0.2500000E+02      :
          :  -> integral neglect         0.1000000E-07      :
          :  -> SCF convergence          0.1000000E-05 Eh   :
          :  -> wf. convergence          0.1000000E-03 e    :
          :  Broyden damping             0.4000000          :
          ...................................................

 iter      E             dE          RMSdq      gap      omega  full diag
   1  -1290.9942259 -0.129099E+04  0.407E+00    8.52       0.0  T
   2  -1291.0651333 -0.709074E-01  0.242E+00    8.24       1.0  T
   3  -1291.0960473 -0.309140E-01  0.207E-01    7.37       1.0  T
   4  -1291.1010337 -0.498638E-02  0.451E-02    7.61       1.0  T
   5  -1291.1010988 -0.650929E-04  0.303E-02    7.58       1.0  T
   6  -1291.1011353 -0.365520E-04  0.396E-03    7.60       1.0  T
   7  -1291.1011373 -0.198589E-05  0.776E-04    7.60       4.7  T
   8  -1291.1011374 -0.358791E-07  0.392E-04    7.60       9.3  T
   9  -1291.1011374 -0.150208E-07  0.622E-05    7.60      58.5  T

   *** convergence criteria satisfied after 9 iterations ***

         #    Occupation            Energy/Eh            Energy/eV
      -------------------------------------------------------------
         1        2.0000           -0.7008019             -19.0698
       ...           ...                  ...                  ...
      1002        2.0000           -0.4011693             -10.9164
      1003        2.0000           -0.4004888             -10.8979
      1004        2.0000           -0.3989189             -10.8551
      1005        2.0000           -0.3984887             -10.8434
      1006        2.0000           -0.3981596             -10.8345
      1007        2.0000           -0.3930759             -10.6961
      1008        2.0000           -0.3883866             -10.5685 (HOMO)
      1009                         -0.1090376              -2.9671 (LUMO)
      1010                         -0.0893901              -2.4324
      1011                         -0.0818964              -2.2285
      1012                         -0.0803370              -2.1861
      1013                         -0.0726999              -1.9783
       ...                                ...                  ...
      1512                          0.4488803              12.2147
      -------------------------------------------------------------
                  HL-Gap            0.2793490 Eh            7.6015 eV
             Fermi-level           -0.2487121 Eh           -6.7678 eV

 SCC (total)                   0 d,  0 h,  0 min, 21.628 sec
 SCC setup                      ...        0 min,  0.042 sec (  0.196%)
 Dispersion                     ...        0 min,  0.110 sec (  0.506%)
 classical contributions        ...        0 min,  0.023 sec (  0.107%)
 integral evaluation            ...        0 min,  0.612 sec (  2.829%)
 iterations                     ...        0 min,  8.479 sec ( 39.205%)
 molecular gradient             ...        0 min, 12.291 sec ( 56.831%)
 printout                       ...        0 min,  0.071 sec (  0.326%)

         :::::::::::::::::::::::::::::::::::::::::::::::::::::
         ::                     SUMMARY                     ::
         :::::::::::::::::::::::::::::::::::::::::::::::::::::
         :: total energy           -1283.315784018112 Eh    ::
         :: gradient norm              0.058817142027 Eh/a0 ::
         :: HOMO-LUMO gap              7.601474090171 eV    ::
         ::.................................................::
         :: SCC energy             -1291.101137366821 Eh    ::
         :: -> isotropic ES            7.173049741543 Eh    ::
         :: -> anisotropic ES         -1.630854801635 Eh    ::
         :: -> anisotropic XC         -0.126865610057 Eh    ::
         :: -> dispersion             -0.786931730383 Eh    ::
         :: repulsion energy           7.632444131187 Eh    ::
         :: add. restraining           0.000000000000 Eh    ::
         :: total charge              -0.000000000000 e     ::
         :::::::::::::::::::::::::::::::::::::::::::::::::::::

      ----------------------------------------------------------- 
     |                       L-ANC optimizer                     |
      ----------------------------------------------------------- 
          low memory version by Sebastian Ehlert

          ...................................................
          :                      SETUP                      :
          :.................................................:
          :   energy convergence        0.1000000E-05 Eh    :
          :   grad. convergence         0.8000000E-03 Eh/a0 :
          :   optimization log               true           :
          :   writing optlog all                1     steps :
          :   Hessian reset                    20     steps :
          :   maximium step len.        1.0000000     a0    :
          :   LBFGS images                     20           :
          ...................................................
 * calculating model hessian...
Using Lindh-Hessian (1995)
 Shifting diagonal of input Hessian by   1.000012163792462E-002
 Lowest  eigenvalues of input Hessian
    0.010000    0.010000   -0.000000   -0.000000   -0.000000   -0.000000
   -0.000000   -0.000000   -0.000000   -0.000000   -0.000000   -0.000000
   -0.000000   -0.000000   -0.000000   -0.000000   -0.000000   -0.000000
 Highest eigenvalues
    0.308918    0.368619    1.206381    1.307145    1.425592    1.495856
 

........................................................................
.............................. CYCLE    1 ..............................
........................................................................
   1  -1291.1050237 -0.129111E+04  0.144E-02    7.60       0.0  T
   2  -1291.1050488 -0.250910E-04  0.813E-03    7.60       1.0  T
   3  -1291.1050533 -0.450267E-05  0.276E-03    7.61       1.3  T
   4  -1291.1050537 -0.332536E-06  0.476E-04    7.61       7.6  T
   5  -1291.1050537 -0.101122E-07  0.881E-05    7.61      41.3  T
     SCC iter.                  ...        0 min,  3.836 sec
     gradient                   ...        0 min, 12.503 sec
 * total energy  : -1283.3217276 Eh     change       -0.5943582E-02 Eh
   gradient norm :     0.0176544 Eh/a0  converged?    E=F G=F D=F
   step length   :     0.4759384 a0

........................................................................
.............................. CYCLE    2 ..............................
........................................................................
   1  -1291.1060237 -0.129111E+04  0.293E-02    7.59       0.0  T
   2  -1291.1061116 -0.878805E-04  0.167E-02    7.60       1.0  T
   3  -1291.1061249 -0.132989E-04  0.518E-03    7.60       1.0  T
   4  -1291.1061259 -0.100712E-05  0.667E-04    7.60       5.4  T
   5  -1291.1061259 -0.207076E-07  0.133E-04    7.60      27.4  T
   6  -1291.1061259 -0.692353E-09  0.527E-05    7.60      69.0  T
     SCC iter.                  ...        0 min,  3.925 sec
     gradient                   ...        0 min, 12.369 sec
 * total energy  : -1283.3284268 Eh     change       -0.6699151E-02 Eh
   gradient norm :     0.0253144 Eh/a0  converged?    E=F G=F D=F
   step length   :     1.6141355 a0

........................................................................
.............................. CYCLE    3 ..............................
........................................................................
   1  -1291.1076968 -0.129111E+04  0.233E-02    7.57       0.0  T
   2  -1291.1077583 -0.614830E-04  0.133E-02    7.58       1.0  T
   3  -1291.1077678 -0.948496E-05  0.444E-03    7.58       1.0  T
   4  -1291.1077685 -0.684571E-06  0.579E-04    7.58       6.3  T
   5  -1291.1077685 -0.129630E-07  0.116E-04    7.58      31.4  T
     SCC iter.                  ...        0 min,  3.241 sec
     gradient                   ...        0 min, 12.386 sec
 * total energy  : -1283.3307991 Eh     change       -0.2372316E-02 Eh
   gradient norm :     0.0217481 Eh/a0  converged?    E=F G=F D=F
   step length   :     0.8256755 a0

........................................................................
.............................. CYCLE    4 ..............................
........................................................................
   1  -1291.1107769 -0.129111E+04  0.829E-03    7.57       0.0  T
   2  -1291.1107799 -0.306738E-05  0.493E-03    7.56       1.0  T
   3  -1291.1107805 -0.515611E-06  0.967E-04    7.56       3.8  T
   4  -1291.1107805 -0.805105E-07  0.164E-04    7.56      22.2  T
     SCC iter.                  ...        0 min,  2.589 sec
     gradient                   ...        0 min, 12.458 sec
 * total energy  : -1283.3317152 Eh     change       -0.9161141E-03 Eh
   gradient norm :     0.0150311 Eh/a0  converged?    E=F G=F D=F
   step length   :     0.1551164 a0

........................................................................
.............................. CYCLE    5 ..............................
........................................................................
   1  -1291.1090581 -0.129111E+04  0.222E-02    7.51       0.0  T
   2  -1291.1090667 -0.854226E-05  0.136E-02    7.51       1.0  T
   3  -1291.1090695 -0.285358E-05  0.153E-03    7.50       2.4  T
   4  -1291.1090698 -0.271335E-06  0.452E-04    7.50       8.1  T
   5  -1291.1090698 -0.660634E-08  0.634E-05    7.50      57.3  T
     SCC iter.                  ...        0 min,  3.215 sec
     gradient                   ...        0 min, 12.494 sec
 * total energy  : -1283.3325698 Eh     change       -0.8546315E-03 Eh
   gradient norm :     0.0294243 Eh/a0  converged?    E=F G=F D=F
   step length   :     0.3919384 a0

........................................................................
.............................. CYCLE    6 ..............................
........................................................................
   1  -1291.1168561 -0.129112E+04  0.104E-02    7.50       0.0  T
   2  -1291.1168576 -0.147999E-05  0.612E-03    7.50       1.0  T
   3  -1291.1168580 -0.463143E-06  0.586E-04    7.50       6.2  T
   4  -1291.1168581 -0.407497E-07  0.187E-04    7.50      19.4  T
     SCC iter.                  ...        0 min,  2.550 sec
     gradient                   ...        0 min, 12.421 sec
 * total energy  : -1283.3330122 Eh     change       -0.4424127E-03 Eh
   gradient norm :     0.0100781 Eh/a0  converged?    E=F G=F D=F
   step length   :     0.1420005 a0

........................................................................
.............................. CYCLE    7 ..............................
........................................................................
   1  -1291.1133776 -0.129111E+04  0.933E-03    7.49       0.0  T
   2  -1291.1133817 -0.408540E-05  0.566E-03    7.49       1.0  T
   3  -1291.1133824 -0.753098E-06  0.109E-03    7.49       3.3  T
   4  -1291.1133826 -0.116448E-06  0.213E-04    7.49      17.1  T
   5  -1291.1133826 -0.154796E-08  0.325E-05    7.49     111.9  T
     SCC iter.                  ...        0 min,  3.173 sec
     gradient                   ...        0 min, 12.465 sec
 * total energy  : -1283.3334050 Eh     change       -0.3928073E-03 Eh
   gradient norm :     0.0098994 Eh/a0  converged?    E=F G=F D=F
   step length   :     0.1680011 a0

........................................................................
.............................. CYCLE    8 ..............................
........................................................................
   1  -1291.1117073 -0.129111E+04  0.122E-02    7.47       0.0  T
   2  -1291.1117126 -0.537987E-05  0.723E-03    7.47       1.0  T
   3  -1291.1117135 -0.868282E-06  0.127E-03    7.47       2.9  T
   4  -1291.1117137 -0.152741E-06  0.223E-04    7.47      16.3  T
   5  -1291.1117137 -0.990894E-09  0.305E-05    7.47     119.3  T
     SCC iter.                  ...        0 min,  3.174 sec
     gradient                   ...        0 min, 12.450 sec
 * total energy  : -1283.3334760 Eh     change       -0.7097092E-04 Eh
   gradient norm :     0.0224578 Eh/a0  converged?    E=F G=F D=F
   step length   :     0.1679485 a0

........................................................................
.............................. CYCLE    9 ..............................
........................................................................
   1  -1291.1130593 -0.129111E+04  0.484E-03    7.47       0.0  T
   2  -1291.1130600 -0.682113E-06  0.296E-03    7.47       1.2  T
   3  -1291.1130602 -0.243806E-06  0.446E-04    7.47       8.1  T
   4  -1291.1130602 -0.191410E-07  0.145E-04    7.47      25.1  T
     SCC iter.                  ...        0 min,  2.511 sec
     gradient                   ...        0 min, 12.505 sec
 * total energy  : -1283.3337428 Eh     change       -0.2667722E-03 Eh
   gradient norm :     0.0125225 Eh/a0  converged?    E=F G=F D=F
   step length   :     0.0732268 a0

........................................................................
.............................. CYCLE   10 ..............................
........................................................................
   1  -1291.1146234 -0.129111E+04  0.357E-03    7.46       0.0  T
   2  -1291.1146238 -0.468933E-06  0.216E-03    7.46       1.7  T
   3  -1291.1146239 -0.113444E-06  0.373E-04    7.47       9.7  T
   4  -1291.1146239 -0.139037E-07  0.921E-05    7.47      39.5  T
     SCC iter.                  ...        0 min,  2.517 sec
     gradient                   ...        0 min, 12.537 sec
 * total energy  : -1283.3338961 Eh     change       -0.1532780E-03 Eh
   gradient norm :     0.0059671 Eh/a0  converged?    E=F G=F D=F
   step length   :     0.0716870 a0

........................................................................
.............................. CYCLE   11 ..............................
........................................................................
   1  -1291.1153218 -0.129112E+04  0.123E-02    7.43       0.0  T
   2  -1291.1153247 -0.290094E-05  0.758E-03    7.43       1.0  T
   3  -1291.1153256 -0.887791E-06  0.845E-04    7.43       4.3  T
   4  -1291.1153257 -0.946882E-07  0.218E-04    7.43      16.7  T
     SCC iter.                  ...        0 min,  2.510 sec
     gradient                   ...        0 min, 12.494 sec
 * total energy  : -1283.3341324 Eh     change       -0.2363349E-03 Eh
   gradient norm :     0.0086762 Eh/a0  converged?    E=F G=F D=F
   step length   :     0.1953748 a0

........................................................................
.............................. CYCLE   12 ..............................
........................................................................
   1  -1291.1172862 -0.129112E+04  0.112E-02    7.40       0.0  T
   2  -1291.1172880 -0.178755E-05  0.690E-03    7.41       1.0  T
   3  -1291.1172887 -0.647561E-06  0.676E-04    7.41       5.4  T
   4  -1291.1172887 -0.476850E-07  0.183E-04    7.41      19.8  T
     SCC iter.                  ...        0 min,  2.495 sec
     gradient                   ...        0 min, 12.535 sec
 * total energy  : -1283.3343317 Eh     change       -0.1992794E-03 Eh
   gradient norm :     0.0120795 Eh/a0  converged?    E=F G=F D=F
   step length   :     0.1890474 a0

........................................................................
.............................. CYCLE   13 ..............................
........................................................................
   1  -1291.1161762 -0.129112E+04  0.753E-03    7.39       0.0  T
   2  -1291.1161773 -0.106935E-05  0.459E-03    7.39       1.0  T
   3  -1291.1161776 -0.281421E-06  0.543E-04    7.39       6.7  T
   4  -1291.1161776 -0.353532E-07  0.119E-04    7.39      30.6  T
     SCC iter.                  ...        0 min,  2.471 sec
     gradient                   ...        0 min, 12.517 sec
 * total energy  : -1283.3344433 Eh     change       -0.1116360E-03 Eh
   gradient norm :     0.0119219 Eh/a0  converged?    E=F G=F D=F
   step length   :     0.1268172 a0

........................................................................
.............................. CYCLE   14 ..............................
........................................................................
   1  -1291.1176040 -0.129112E+04  0.106E-02    7.36       0.0  T
   2  -1291.1176065 -0.248522E-05  0.653E-03    7.36       1.0  T
   3  -1291.1176073 -0.844833E-06  0.856E-04    7.36       4.2  T
   4  -1291.1176074 -0.758662E-07  0.231E-04    7.36      15.7  T
     SCC iter.                  ...        0 min,  2.405 sec
     gradient                   ...        0 min, 12.465 sec
 * total energy  : -1283.3345998 Eh     change       -0.1564768E-03 Eh
   gradient norm :     0.0082297 Eh/a0  converged?    E=F G=F D=F
   step length   :     0.1948995 a0

........................................................................
.............................. CYCLE   15 ..............................
........................................................................
   1  -1291.1154359 -0.129112E+04  0.107E-02    7.32       0.0  T
   2  -1291.1154392 -0.337313E-05  0.642E-03    7.32       1.0  T
   3  -1291.1154400 -0.791906E-06  0.107E-03    7.32       3.4  T
   4  -1291.1154401 -0.102099E-06  0.183E-04    7.32      19.9  T
   5  -1291.1154401 -0.666205E-09  0.277E-05    7.32     131.2  T
     SCC iter.                  ...        0 min,  2.986 sec
     gradient                   ...        0 min, 12.484 sec
 * total energy  : -1283.3346671 Eh     change       -0.6732533E-04 Eh
   gradient norm :     0.0083617 Eh/a0  converged?    E=F G=F D=F
   step length   :     0.1724103 a0

........................................................................
.............................. CYCLE   16 ..............................
........................................................................
   1  -1291.1165408 -0.129112E+04  0.559E-03    7.33       0.0  T
   2  -1291.1165416 -0.788502E-06  0.330E-03    7.33       1.1  T
   3  -1291.1165417 -0.155908E-06  0.500E-04    7.33       7.3  T
   4  -1291.1165417 -0.240414E-07  0.871E-05    7.33      41.7  T
     SCC iter.                  ...        0 min,  2.402 sec
     gradient                   ...        0 min, 12.381 sec
 * total energy  : -1283.3348026 Eh     change       -0.1354776E-03 Eh
   gradient norm :     0.0054026 Eh/a0  converged?    E=F G=F D=F
   step length   :     0.1035087 a0

........................................................................
.............................. CYCLE   17 ..............................
........................................................................
   1  -1291.1165546 -0.129112E+04  0.735E-03    7.31       0.0  T
   2  -1291.1165555 -0.901889E-06  0.448E-03    7.31       1.0  T
   3  -1291.1165558 -0.303493E-06  0.473E-04    7.31       7.7  T
   4  -1291.1165558 -0.268030E-07  0.120E-04    7.31      30.2  T
     SCC iter.                  ...        0 min,  2.382 sec
     gradient                   ...        0 min, 12.360 sec
 * total energy  : -1283.3349471 Eh     change       -0.1444984E-03 Eh
   gradient norm :     0.0063293 Eh/a0  converged?    E=F G=F D=F
   step length   :     0.1320210 a0

........................................................................
.............................. CYCLE   18 ..............................
........................................................................
   1  -1291.1152924 -0.129112E+04  0.105E-02    7.28       0.0  T
   2  -1291.1152940 -0.159632E-05  0.640E-03    7.28       1.0  T
   3  -1291.1152945 -0.539011E-06  0.653E-04    7.28       5.6  T
   4  -1291.1152946 -0.457007E-07  0.154E-04    7.28      23.5  T
     SCC iter.                  ...        0 min,  2.387 sec
     gradient                   ...        0 min, 12.238 sec
 * total energy  : -1283.3350540 Eh     change       -0.1069088E-03 Eh
   gradient norm :     0.0054803 Eh/a0  converged?    E=F G=F D=F
   step length   :     0.1789050 a0

........................................................................
.............................. CYCLE   19 ..............................
........................................................................
   1  -1291.1156226 -0.129112E+04  0.173E-03    7.28       0.0  T
   2  -1291.1156227 -0.138214E-06  0.105E-03    7.28       3.5  T
   3  -1291.1156227 -0.321802E-07  0.208E-04    7.28      17.5  T
   4  -1291.1156227 -0.408636E-08  0.470E-05    7.28      77.5  T
     SCC iter.                  ...        0 min,  2.393 sec
     gradient                   ...        0 min, 12.201 sec
 * total energy  : -1283.3350888 Eh     change       -0.3480705E-04 Eh
   gradient norm :     0.0044285 Eh/a0  converged?    E=F G=F D=F
   step length   :     0.0402211 a0

........................................................................
.............................. CYCLE   20 ..............................
........................................................................
   1  -1291.1159776 -0.129112E+04  0.283E-03    7.28       0.0  T
   2  -1291.1159781 -0.436778E-06  0.171E-03    7.28       2.1  T
   3  -1291.1159781 -0.709092E-07  0.371E-04    7.28       9.8  T
   4  -1291.1159782 -0.114844E-07  0.572E-05    7.28      63.6  T
     SCC iter.                  ...        0 min,  2.388 sec
     gradient                   ...        0 min, 12.101 sec
 * total energy  : -1283.3351239 Eh     change       -0.3514504E-04 Eh
   gradient norm :     0.0027774 Eh/a0  converged?    E=F G=F D=F
   step length   :     0.0587690 a0
 * RMSD in coord.:     0.1035050 a0     energy gain  -0.1933992E-01 Eh
 * calculating model hessian...
Using Lindh-Hessian (1995)
 Shifting diagonal of input Hessian by   1.000003293986595E-002
 Lowest  eigenvalues of input Hessian
    0.010000    0.010000   -0.000000   -0.000000   -0.000000   -0.000000
   -0.000000   -0.000000   -0.000000   -0.000000   -0.000000   -0.000000
   -0.000000   -0.000000   -0.000000   -0.000000   -0.000000   -0.000000
 Highest eigenvalues
    0.292551    0.338432    1.192959    1.215217    1.381595    1.464517
 

........................................................................
.............................. CYCLE   21 ..............................
........................................................................
   1  -1291.1159607 -0.129112E+04  0.446E-03    7.28       0.0  T
   2  -1291.1159609 -0.242933E-06  0.271E-03    7.28       1.3  T
   3  -1291.1159610 -0.842188E-07  0.258E-04    7.28      14.1  T
   4  -1291.1159610 -0.776276E-08  0.769E-05    7.28      47.3  T
     SCC iter.                  ...        0 min,  2.306 sec
     gradient                   ...        0 min, 12.134 sec
 * total energy  : -1283.3352218 Eh     change       -0.9790554E-04 Eh
   gradient norm :     0.0014333 Eh/a0  converged?    E=F G=F D=F
   step length   :     0.0821457 a0

........................................................................
.............................. CYCLE   22 ..............................
........................................................................
   1  -1291.1155263 -0.129112E+04  0.702E-03    7.28       0.0  T
   2  -1291.1155269 -0.616529E-06  0.426E-03    7.28       1.0  T
   3  -1291.1155272 -0.240807E-06  0.420E-04    7.29       8.7  T
   4  -1291.1155272 -0.174339E-07  0.119E-04    7.28      30.6  T
     SCC iter.                  ...        0 min,  2.313 sec
     gradient                   ...        0 min, 12.042 sec
 * total energy  : -1283.3352567 Eh     change       -0.3484018E-04 Eh
   gradient norm :     0.0039397 Eh/a0  converged?    E=F G=F D=F
   step length   :     0.1395138 a0

........................................................................
.............................. CYCLE   23 ..............................
........................................................................
   1  -1291.1159765 -0.129112E+04  0.149E-03    7.29       0.0  T
   2  -1291.1159765 -0.253585E-07  0.905E-04    7.29       4.0  T
   3  -1291.1159765 -0.128175E-07  0.855E-05    7.29      42.5  T
     SCC iter.                  ...        0 min,  1.738 sec
     gradient                   ...        0 min, 12.085 sec
 * total energy  : -1283.3352712 Eh     change       -0.1452550E-04 Eh
   gradient norm :     0.0013165 Eh/a0  converged?    E=F G=F D=F
   step length   :     0.0229018 a0

........................................................................
.............................. CYCLE   24 ..............................
........................................................................
   1  -1291.1162648 -0.129112E+04  0.129E-03    7.29       0.0  T
   2  -1291.1162648 -0.432417E-07  0.782E-04    7.29       4.7  T
   3  -1291.1162648 -0.103116E-07  0.109E-04    7.29      33.5  T
     SCC iter.                  ...        0 min,  1.750 sec
     gradient                   ...        0 min, 12.127 sec
 * total energy  : -1283.3352748 Eh     change       -0.3536030E-05 Eh
   gradient norm :     0.0005365 Eh/a0  converged?    E=F G=T D=F
   step length   :     0.0218058 a0

........................................................................
.............................. CYCLE   25 ..............................
........................................................................
   1  -1291.1161978 -0.129112E+04  0.444E-04    7.29       0.0  T
   2  -1291.1161978 -0.531918E-08  0.261E-04    7.29      13.9  T
   3  -1291.1161978 -0.928594E-09  0.407E-05    7.29      89.3  T
     SCC iter.                  ...        0 min,  1.735 sec
     gradient                   ...        0 min, 12.150 sec
 * total energy  : -1283.3352756 Eh     change       -0.8920069E-06 Eh
   gradient norm :     0.0001545 Eh/a0  converged?    E=T G=T D=F
   step length   :     0.0108131 a0

   *** GEOMETRY OPTIMIZATION CONVERGED AFTER 25 CYCLES ***

------------------------------------------------------------------------
 total energy gain   :        -0.0194916 Eh      -12.2312 kcal/mol
 total RMSD          :         0.1011943 a0        0.0535 Å
 total power (kW/mol):        -2.0470101 (step)   -0.1231 (real)
------------------------------------------------------------------------

 L-ANCopt (total)              0 d,  0 h,  6 min, 55.634 sec
 setup                          ...        0 min,  0.031 sec (  0.007%)
 model hessian                  ...        0 min, 14.985 sec (  3.605%)
 ANC generation                 ...        0 min,  5.252 sec (  1.264%)
 coordinate transformation      ...        0 min,  0.002 sec (  0.000%)
 Rational function              ...        0 min,  0.000 sec (  0.000%)
 singlepoint calculation        ...        6 min, 35.186 sec ( 95.080%)
 optimization log               ...        0 min,  0.171 sec (  0.041%)
 hessian update                 ...        0 min,  0.001 sec (  0.000%)

================
 final structure:
================
$coord
      -12.34250022761700      -12.35434665106400       -7.95530222406000      o
      -11.14626125449900      -11.48414657538400       -9.04571297016800      h
      -13.94559666150400      -11.51600453617400       -8.26339842173100      h
        6.08287184524900       -6.35875833950200       10.07308678305600      o
        4.69413596873000       -5.84634734209900        8.91092996116300      h
        5.39269990910000       -7.73271751624400       11.05418891639400      h
        3.55646405969900        0.81969421399600       -4.15343564857600      o
        2.59177808169600       -0.25804642229000       -3.01381145951000      h
        3.87124678108800       -0.21452214065300       -5.63918347455100      h
       10.02753163750800       -3.38684947214100       -1.35744133600900      o
        8.25435062421200       -3.90568805734400       -1.20688244181200      h
       10.24710186393900       -3.19850525701000       -3.17158453898800      h
        5.11336558112900       -3.90314613745900       -1.42371148412500      o
        4.93837100124100       -4.79593107591200        0.20050481817800      h
        4.18097785229800       -4.90325508223800       -2.63593893339300      h
       -0.21832795574000      -10.28381248015100       -2.89792293304500      o
        0.69951915280700       -8.86219822881300       -3.59079838540300      h
       -1.86025105519500       -9.61192577001500       -2.39157185741500      h
        7.61837341593200       -0.04991102149800        5.22245683043900      o
        8.35872507068800       -1.72401863129900        5.44457906864700      h
        6.54165922398100        0.21674735853200        6.70231428255300      h
        1.57741810825400       -5.82482716472000       -4.80867812365900      o
        0.55054368209200       -4.59721025880800       -3.90584992975700      h
        2.55135749540700       -4.87457785695500       -6.05128144225200      h
        6.65361333043700      -10.37181500637400        3.73688184919400      o
        5.79760782143200      -11.98367453091200        3.88681589379000      h
        7.64623258679000      -10.14808668819200        5.25974766130400      h
        1.06613105389300        3.48167193049800        4.00597563073700      o
        1.92754285492200        1.97786656252000        3.41351447849400      h
        2.08194586932900        4.22909615069200        5.32122463255500      h
       -0.18232139396900        7.84969894643600        7.09803801886700      o
        1.22656591233700        8.71176054012600        7.85863307221500      h
        0.18901499338800        7.87676182986400        5.27780617406000      h
       -0.33761130079600       -0.95823107648300        6.26487732050300      o
       -2.10220221707900       -1.11121465499100        5.77326520002000      h
        0.26830995043100       -2.66573336125600        6.58441179331900      h
        6.50452629445900       -7.23387178957800       -5.98207173925000      o
        8.30894895426900       -7.20779578699200       -5.58651309770900      h
        6.40511578010700       -8.23267536647400       -7.51415933197900      h
       -3.84421916089100        3.82443202604700        3.40918414162400      o
       -4.53375732963300        2.19842570748400        3.91539733056600      h
       -2.02975408164700        3.74317762275000        3.78573255018600      h
       11.41319449743600        3.81083589835300       -5.06461961782000      o
       10.00469308885300        3.16892610786000       -4.04459432459400      h
       10.93730120772800        5.49272887935500       -5.61627920330500      h
        3.65867457210800       -2.56778882391900       -8.01953049078500      o
        1.98256547475200       -2.11553419018800       -8.57115756278000      h
        4.69817637042800       -2.67063764210100       -9.55027267498200      h
       -5.49284926737000       -2.60858234460000      -14.94314991464300      o
       -6.16346724328300       -2.01763807008600      -16.51416676691700      h
       -4.91218098260700       -1.10310202974300      -14.00956580277100      h
      -11.71056317121400       -2.58866714057200        2.98776299401100      o
      -11.90766442080300       -4.38404639401900        2.59790910422000      h
      -11.73504674388300       -2.49700787615100        4.84012788380200      h
       -9.84463652614200       -4.90854678147000       -1.42823851482200      o
       -9.84024064998600       -6.13776843661000       -2.77993343327000      h
      -10.48658809299600       -3.32866665226700       -2.12791654860600      h
      -14.25509237188300        3.86226815490900        1.39003590932800      o
      -12.47106123437700        3.49116278673800        1.65164816001400      h
      -14.94930014264000        2.22394293322400        0.86990869146600      h
       -6.56779482644400        8.36100830334200       -5.48261164907200      o
       -6.81671679391500        8.85335897294600       -3.72632829063700      h
       -6.77330336624800        9.86165893542000       -6.52471947963100      h
        7.26233355908000        1.96449444634100       -8.02557084595800      o
        8.61322020545600        2.76771936080500       -8.96607188336100      h
        7.90984719505900        0.34587038263900       -7.38896927978300      h
       -4.12222843646000       -8.46766868326900       -0.26148482703100      o
       -5.91673889596100       -8.93932422568600       -0.40935626145400      h
       -4.07053693879400       -6.71666506739200        0.22976639831400      h
       -9.20420513761300       -1.14163852014400       -8.31967263200200      o
       -7.69650638181200       -0.20329948078300       -7.86953580299400      h
      -10.24031222222200       -1.12564079964400       -6.81248174401900      h
       -5.42025985470400       -0.80285908109500        5.17916289959200      o
       -6.13862641603300       -2.35449649310300        4.46881556588400      h
       -6.10768035591700       -0.59674984238700        6.85289750564900      h
      -15.07499989247500       -0.74427753339200       -0.17867480360000      o
      -16.68366327211400       -1.63098571015700       -0.07764111821400      h
      -13.95244368758400       -1.52359888159200        1.08068383985400      h
       10.90514130747000       -1.14094773876000      -12.65598877718200      o
       11.44332098416300       -0.51925002540700      -10.99409878704900      h
       12.46936800118700       -1.75031570271900      -13.44072145277000      h
       10.10397040908400       -9.45578042318000       -0.33607049724700      o
        8.28603179603700       -9.10476927202000       -0.24057111524400      h
       10.15551839359100      -11.21128526327800       -0.90602011053900      h
      -15.38687893693700       -6.22520283864800       -1.85395274902800      o
      -14.80368561510000       -7.72517026638700       -2.74900154931100      h
      -14.38966447556700       -6.30085625901600       -0.30111808375900      h
        8.69484914298800       12.69427655753800        8.84776802068200      o
       10.36866302815100       12.12951159220300        9.40081087157800      h
        8.95420868576200       13.27917265473600        7.12949071526600      h
      -24.16586322586900       -2.02118173124100        1.01489300957500      o
      -22.81307490159300       -2.86068198489900        0.10009801271500      h
      -25.03416749672900       -0.97482897658900       -0.19315952314400      h
       -6.75579607143400       -4.44310700369100        9.02961068395100      o
       -6.72814898244100       -6.19898050740100        9.60703158918800      h
       -6.21686811598800       -3.45853068799700       10.49654083435100      h
        8.14674452394300        1.50389517871600       -2.05759579124800      o
        6.43797838762000        1.26397778903000       -2.71982407634100      h
        8.83177510443300       -0.16748556410000       -1.73768957796900      h
       12.66762127420200       -1.59719579503500        7.96165277604700      o
       11.27433782585400       -0.50944012314500        8.41689973299300      h
       12.68428072173800       -1.65992710004200        6.13190602615800      h
        9.04005723091700       -4.79858544488500        5.90468300829900      o
        8.46839545240500       -5.48513979039800        7.50353287629900      h
       10.72328070881200       -5.51491528831000        5.56436827841000      h
      -12.26466723683500      -13.13810422598300        3.58710679744600      o
      -13.24291979307700      -12.45593888728300        4.97546902828000      h
      -13.38811193115100      -13.02872520089000        2.14125257366500      h
        1.04071035724400        8.49164362901800        2.27275754252900      o
       -0.40355651903900        9.23876791871200        1.44434729489300      h
        2.35633535915700        9.78632313074100        2.22401491987800      h
       -0.32751001091800       -5.34684077789000        2.06466031835900      o
        0.41542474368600       -7.02194352569100        1.94030272653800      h
       -1.15467910714800       -5.29005421680400        3.70359154888900      h
       -9.51572714197900        1.69642576364700        1.83412058503800      o
      -10.10273793605600       -0.02702190226400        2.15004540066600      h
       -8.84780729202200        2.34989611930800        3.42311774905100      h
       11.40662265362600       -7.31116759628000       -4.68822796939500      o
       12.38994740949400       -8.58369954710400       -5.59811618624700      h
       11.01138035882300       -8.03730200500300       -3.01964478764600      h
        3.52236209375300       -7.20946488649200      -12.80450658575200      o
        4.50255016627100       -5.65739202965800      -12.67710863293700      h
        2.03008736410900       -6.75182529725500      -13.74930180824500      h
        2.64010284946900        7.62017754145400       -8.76651663093000      o
        1.09726286103100        8.31323486973000       -8.02161619246500      h
        3.76689060202600        7.21297707048100       -7.34285152067900      h
       -5.36878004829600        1.56445723102300       -6.29765466906100      o
       -4.92057328219300        3.05477123128800       -7.30661437473700      h
       -6.38466944838100        2.22087273232400       -4.90725716180600      h
      -14.56802159601500       -2.49582758677100      -12.93440225813900      o
      -14.13475819539200       -0.72410354216700      -12.92185793565700      h
      -12.97073672969200       -3.38961573726700      -12.77029340357500      h
       17.47885720372800        0.61541257555200      -10.48794705105100      o
       15.88997610611600        0.59024502451200       -9.51500536965600      h
       18.78268312720000        0.05038785510200       -9.32166031227400      h
       16.79904064944100        3.01831967193800       -5.26322041899500      o
       15.31911977359000        4.05635769723000       -5.02535195730100      h
       17.80928862457200        3.85067183385800       -6.53107976862000      h
        5.20489728205600       -5.77592796258900        3.04840194399100      o
        6.73212295762700       -5.17189187759100        3.91390344966800      h
        5.44284077872100       -7.61578448439000        3.09025784082300      h
      -18.97081168983000        1.50636586972800       -2.88227319291800      o
      -18.56639156546500       -0.13397655900800       -3.64701158681700      h
      -20.08776655727800        2.38974557788100       -4.05827834344200      h
       -5.44840977388200       15.76583629614000        0.00643751679700      o
       -5.22458082080100       14.48554106860100        1.30020680404900      h
       -7.23819834265000       15.74196433081800       -0.39868385387500      h
       -8.02498606969600        3.65598904930300      -11.67579938110000      o
       -6.40501777079400        2.81262454191600      -11.88021084409400      h
       -8.42726065723200        3.70361838375300       -9.85222811218300      h
       10.69177241913200       -5.45645315125600       -9.92146424281300      o
       12.41684145516800       -6.14191354311000       -9.95242161331700      h
       10.61421709013000       -4.19409610137100      -11.25366689585300      h
       -3.44553022270800        5.58814994998100       -8.46268163299400      o
       -4.41748379985200        6.79566102972800       -7.46349250835200      h
       -1.87804574916900        5.39375414563400       -7.51724501370300      h
       13.29837815366400       10.79144734904100        9.99875833572300      o
       14.42569615066200       10.81435478954600        8.55072539454900      h
       13.51407501580900        9.14337892920800       10.73920286540700      h
        9.63866247824000        6.29994062443300        7.77354298576600      o
        9.46098948016000        4.63281483920900        8.54470590988700      h
        8.70861606449200        7.44965480659500        8.84225560146000      h
        2.74854406120900        6.71767813492200       14.08806100662800      o
        1.08874865522400        7.21251480723100       13.45219964024900      h
        3.95079152947700        7.79324568671000       13.21234169397200      h
       14.31706306559700       -3.17159194085600       -4.97285152275800      o
       15.90698534457100       -3.72177081683400       -5.72335819589100      h
       13.26462240705500       -4.69096942582200       -4.88134455248500      h
       -8.69126683164700        4.14506961901600        6.11576954005900      o
      -10.37240572091100        3.52156313633000        6.59098642447300      h
       -7.53668026230000        3.38877724658800        7.37289643530800      h
       -6.04505512784100        2.02436634711000        9.67220183214200      o
       -6.59923927343400        3.16163583843300       11.00368643335100      h
       -4.24989356704400        2.41876451456000        9.44195150411400      h
      -18.18493653506600       -3.01314497508800       -5.00298947861100      o
      -17.25771149330900       -4.10904145862200       -3.87104794223400      h
      -19.97642354718700       -3.36071504848900       -4.72755341319800      h
      -20.30852996366500        1.36356468076500        1.94223986590100      o
      -19.74865089856700        1.56487810322800        0.18245551330000      h
      -21.73656156842400        0.20345114810900        1.88714312950600      h
       12.20830278553500      -11.58418615966200        3.95271688205200      o
       13.99634059502100      -11.20857804434000        3.82825172740800      h
       11.37380154714100      -10.50811538538100        2.70646040969300      h
      -14.68663725005900        0.12115203570900       -7.84429747170200      o
      -14.16520208143500       -1.59787648055800       -7.42016702097100      h
      -13.66039626135900        0.68911001731300       -9.25986815967900      h
      -12.96209074346800        2.55875349481200      -12.04882355356700      o
      -11.12277682151300        2.65736790295900      -12.16802997581600      h
      -13.50328020520000        4.23481389903300      -11.59755553555000      h
        0.39653290260400       -2.88535630839500       13.90304505091500      o
        2.22584083034900       -2.93511602955100       13.71631556333300      h
        0.00152811479500       -1.09289109910000       13.85647404066500      h
      -13.03038753271400        2.33984415033300        7.46223913363200      o
      -14.28916969107900        1.58599033412700        6.33009992549600      h
      -12.62289517486100        1.06635852852000        8.73334700304400      h
      -16.77430059655200        0.07224844752400        5.23488048484900      o
      -16.42869992353800       -1.70827177078600        4.86291760099400      h
      -18.04434115555200        0.61789748051500        4.00949688597700      h
        9.56581742250200        8.39863429241100       -6.95265770925200      o
        9.03708838168900        8.79020389160300       -8.67792373410000      h
        8.05317421746400        7.80469749720500       -6.07551794459200      h
       -3.45602660628300      -14.67447703251600       -0.54224110858400      o
       -3.99180835964100      -13.50915486693400       -1.87626160523200      h
       -5.03217463369500      -15.23222566404300        0.19502308413600      h
      -14.90372744475100        3.77986358616400       -4.43937828469800      o
      -14.46089893923300        2.47139668964600       -5.67343274728000      h
      -16.28906407561800        3.03084061454200       -3.44724413101200      h
       -0.60506810799100       -4.36698706705600      -14.36855957245800      o
        0.23881225243900       -2.72627841831300      -14.33548563046700      h
       -2.35232746565900       -4.05870138769800      -14.83874986370400      h
       -1.46179210478500       -5.30882739122200       -9.50852116018700      o
       -1.68823131062000       -3.57898895315300       -8.96487380107800      h
       -1.09503315505300       -5.19014442268400      -11.31935873680600      h
       -1.17227064745800       -0.31919460031200       -8.27373631890400      o
       -2.52910855466500        0.25036156995900       -7.17215911734400      h
        0.08845931531500        1.03534721938000       -8.39336095678000      h
        3.76287023841500        5.03088013381400       -0.46324283700300      o
        3.89759606563600        3.30515893691300        0.16441885144500      h
        2.34289160724700        5.81253839762500        0.40099165258900      h
        2.41384263072800       -5.16511315395500        7.06746618930700      o
        3.24783182538900       -5.10651007736000        5.40740072031800      h
        1.62555170095600       -6.84295829227400        7.11496393647000      h
      -11.30278468674200       -0.52482431123400       -3.54136885927400      o
      -12.85762581483600       -0.36226279867000       -2.56127176383200      h
      -10.32473897971400        0.99405399600900       -3.27454962936200      h
       -3.83203080041600       -7.03400262116300       -5.28186240296900      o
       -2.88225497974000       -6.57553452315800       -6.77034468790300      h
       -3.91208538968600       -5.52315049837900       -4.17134820645900      h
       -7.25992030534300        9.87780528702200       -0.60408829340100      o
       -8.43339938624700        8.87485069520900        0.42417639185800      h
       -6.01543020782900       10.48859400780000        0.60824129007400      h
       -1.23094185112900        3.23358626956100        8.99124200839600      o
       -0.77001798149800        4.91641719336200        8.37288596528100      h
       -0.71361383367100        1.96775382298200        7.75872474225400      h
       -8.75945260629700      -10.12125033849700       -0.11083579744100      o
       -9.84807074249600      -10.11110998363800       -1.61050496538700      h
       -8.48293089956300      -11.89413717040700        0.31595437566600      h
      -24.57338410044300        1.53569299916600       -2.93398692377700      o
      -24.10500054272900        2.82147742459700       -1.69243838558000      h
      -24.09986041463700        2.29075669370200       -4.52872086888200      h
       -3.40941469178000        8.26926914905600      -12.84727862436900      o
       -3.31606159890500        7.32315752041200      -11.25265570916600      h
       -5.18250160485000        8.56465523065000      -13.13131536037700      h
      -21.52029635476000       -3.83599052328900        5.14559621911900      o
      -23.03873933698500       -3.77345610013600        4.14642143050500      h
      -21.67600181931500       -2.37907460498200        6.28942784805200      h
      -12.57548746822600       -7.51746677757800        2.21283267425400      o
      -11.14229020272000       -8.44764244536900        1.52042323303900      h
      -13.18475322635700       -8.39299739958600        3.69521693543700      h
       10.92002368809300       13.04335553099900       -5.43989590558000      o
       10.51286216626200       11.27645721076500       -5.84983534647700      h
       12.74469511293800       13.19829720290700       -5.65799210740800      h
        6.36464016953400        7.07938149590900        3.52101803410800      o
        5.38602608093900        6.67425380485900        2.02030718156700      h
        7.92132947681800        6.11112506081600        3.30693243243300      h
        2.54685793414500        2.63227587425100       -9.67300868332900      o
        4.29384646006900        2.25651648466500       -9.18370539486100      h
        2.33012476065200        4.44383606544200       -9.41249357786100      h
       -0.56281648988500        4.66444598658700      -15.08934661837100      o
        1.09792316529200        5.43533993580900      -14.81156038318800      h
       -1.73454988485300        6.02402436472800      -14.69003487243600      h
       18.56099335655500       -5.09140083835000       -7.09867617610800      o
       19.76755554575400       -3.77888550539800       -7.49567487404900      h
       18.96025403850500       -5.64116049091000       -5.35668047376000      h
       23.25776219409000        2.69279539336200       -2.51360638588300      o
       23.07407476749900        3.99106310180400       -3.78334239438000      h
       23.75473178136900        3.56013371096100       -0.96247571730500      h
       -0.05096011419700       13.26085683821700        5.17223472943600      o
        1.53629139638400       12.39646019086300        5.58179172835200      h
        0.30346555462300       14.34302737139500        3.74540832480200      h
       12.41359944321900       -1.33316207956500        2.74520792597900      o
       12.75990593303300       -0.09139818045100        1.41578533060900      h
       11.30019916426500       -2.53446032960700        1.95169273675900      h
       13.56319023799300       -6.57846601798400        4.96112424351000      o
       14.91220657440900       -6.39512291420100        6.18263848185800      h
       14.23683260690400       -6.38024784700700        3.26592869561300      h
        9.77902149083300        3.51252068673500        2.33380350867700      o
        9.15345891431500        2.19180644043500        3.45215315903800      h
        9.09627887260300        3.10833704947900        0.67322089142700      h
      -13.20325069164900       -4.64073130580100       -6.43233983259200      o
      -11.46245371276900       -5.24177160125900       -6.52942398866500      h
      -13.64411702989700       -4.66907131969400       -4.65738588200100      h
      -18.79798470856400       -8.67183050836300        2.34141813822500      o
      -19.59362177486600       -9.07860115247600        3.92604424158400      h
      -20.11102990064200       -8.38468368878900        1.09738376248400      h
       -6.97312290384500       -5.15161165239800        2.99223421807700      o
       -7.67516206157500       -6.52127388637200        3.98345648167100      h
       -8.10124275767300       -4.95883757231000        1.56031887179000      h
        3.59198272843400       12.44989456595300      -10.42672045261400      o
        4.27156034955100       13.32485786520800       -8.96459614553400      h
        3.22625197329900       10.74218487260800       -9.83884387397900      h
       -7.17584539025700        5.75558454571500       13.03754356300200      o
       -8.89735814706000        5.43369650710200       13.59184909627400      h
       -7.18231285524200        7.54338460424400       12.49081841668700      h
       13.95415491077600        3.95012080451100        6.14905764828200      o
       14.36951902279400        4.90476245351100        4.60362833127000      h
       12.23209393937300        3.42671892118000        5.90128593299700      h
        4.16830101051600        0.29533000170900        1.58230916574200      o
        5.48997502557100        0.09510417700100        2.85988223020000      h
        4.25911843812000       -1.17335509768500        0.49637792863600      h
       19.24043333475800       -0.26129354953800       -2.23556608668300      o
       20.75188930340700        0.78810567275700       -1.96688735188700      h
       17.92950281026800        0.89904697548800       -2.82100190114000      h
       22.15663967419900        6.51725483101800       -5.97754961900700      o
       23.10714285152800        7.98383079764200       -6.43702350872000      h
       21.02256257818000        6.14981748441000       -7.39821139045200      h
       12.97057615873400        0.28991361061100       -8.27016234106500      o
       12.41043724705800        1.69319493679700       -7.19345389784900      h
       13.34410328535300       -1.08357396668900       -7.07538969682900      h
      -19.27016248090500       -3.59384007317300        0.35324630767400      o
      -19.55539320945100       -3.74356338403500        2.16067671010700      h
      -18.28456540744000       -5.04422410687100       -0.16551433937300      h
      -23.12929886802000        5.72347800735100       -0.17402052669500      o
      -21.28478848146300        5.88134055420300       -0.36115612583200      h
      -23.83075920987200        6.98887638217900       -1.25899997951500      h
       -9.88314681738200       13.87073068710500       -2.03305473273700      o
      -11.38590871554100       13.79930282964200       -1.00029965762300      h
       -8.90866041692700       12.36103930580800       -1.52064874272900      h
       -7.92332326317300        3.51677496761700       -2.38612987357000      o
       -9.14129703041300        4.89287318808800       -2.67560598579000      h
       -8.34193233208800        2.83592574121600       -0.70595924530100      h
       10.94250187564700        4.34189949583200      -10.97031750419500      o
       12.28654092373500        3.22789076424000      -11.46319142776500      h
       11.76930005401200        5.83641524240900      -10.27306897012200      h
       -9.73104149316600       12.98288277599100        4.58400344432800      o
       -7.95434378189300       12.79333673162800        4.19943061309900      h
      -10.08674513867100       11.67724626262300        5.82465260487600      h
       -1.47010679294900       10.09732141381100       -7.24310870161000      o
       -1.53562080426500       11.20078726927900       -8.72111103338000      h
       -2.50320106669000       10.89775070852400       -5.98503869157200      h
       15.44547880326500       -3.03306626686900      -13.62676431560900      o
       16.46671900961900       -1.82095331118300      -12.68827532781700      h
       15.62905729509200       -4.64212627050500      -12.78992144144700      h
      -19.21789251904000        0.86182375864000       -9.87901765790200      o
      -18.78797734127900        0.78309931553000      -11.63472751928200      h
      -17.63329484263900        0.48092450231100       -8.96268511500300      h
       -4.71355696199000        1.86735798208700       15.58373595872200      o
       -5.58815717667100        3.33375562831300       14.93539209885900      h
       -2.94609893913400        2.06937642558600       15.09075827937100      h
       -8.83469344468800       -7.06205851778300       -6.02271626713500      o
       -7.00879956614200       -6.94071277307000       -5.81504890837500      h
       -9.07901177745200       -8.05845261094600       -7.56093843545000      h
       -5.15513286474200      -12.00778754476300       -4.65331783040000      o
       -4.96336245287600      -10.18304647350100       -4.67040673006200      h
       -4.07973359210500      -12.60203047689500       -6.02447257068500      h
      -18.20342646318600        6.56680498742500       -0.85437937809300      o
      -16.81475909698000        5.66261205819800       -0.08509398325200      h
      -17.52930585584900        8.14131540780900       -1.50978295401400      h
      -12.51309065907300      -10.09251356076800       -3.38692772909400      o
      -12.33092700752100      -10.94388796071800       -5.01474161871600      h
      -13.50319810038700      -11.19709194401100       -2.29681297510800      h
       22.05481128799800       -0.60637806129500        8.44112803732300      o
       22.68848319993900        0.91945184511500        9.18639544450600      h
       20.46660671756800       -0.14217274189000        7.62317845498500      h
       -3.55003997186100        1.31743220183000      -12.50918598278400      o
       -2.63592915103700        0.68666620122700      -11.03382917701300      h
       -2.41569319702100        2.45240208148800      -13.41918167458700      h
       14.27279260904000        7.81242015312600       -9.15405545809000      o
       14.22153135095000        7.78020108800600       -7.29546853978600      h
       13.96876031577800        9.53224713019600       -9.62588328153000      h
      -22.30600594458700        0.21371204499600        8.07959355963300      o
      -20.89443841785600        0.20963587229700        9.24013913749800      h
      -22.30924823810500        1.83213974538500        7.23106225879800      h
        4.34385692499300        5.28792403040900        7.79299409558900      o
        5.30684756559600        5.85587713444100        6.30563000874200      h
        4.79670348816600        6.43738757614000        9.13618262413600      h
        0.03121688713500        2.21037791911200       13.68719325089700      o
        0.95306934617700        3.65790575808200       14.29692866809900      h
       -0.40824338823600        2.62327502489400       11.92383829531900      h
       -5.45000531296500       -2.66412994031500       13.57760640999600      o
       -5.39759059242300       -0.93085011551700       14.26168968258400      h
       -3.85235808829000       -3.39127667428500       14.04248617089100      h
        2.91731790459000       -9.68752431179700       12.61690817610000      o
        1.39202321203300       -8.79745462569600       11.97948094443800      h
        2.47221851615500      -10.29878850066200       14.25611673959700      h
        0.16879324822100        4.63756262674600       -4.94996225140100      o
        1.45525600098500        3.37514529895000       -4.54490110232600      h
       -1.00757009966800        4.74561381114500       -3.53474167956500      h
        6.18675490893200        2.85984147561400       14.02219714996800      o
        4.94777437923200        4.22100986331100       14.08101273115900      h
        5.31978868139600        1.34148489770700       14.50540253241400      h
        0.59812404335000      -15.15227268344800       -3.62546125489200      o
        0.34082485460500      -13.30967515119600       -3.47267105657600      h
       -0.77337763191100      -15.83304352061500       -2.62575313988400      h
       -2.21053474841300       10.22247563491300       -1.11969149165600      o
       -3.10180522023900       11.40542901938000       -2.18492566933100      h
       -2.92420558188800        8.52551021580200       -1.38942770235400      h
        0.28150597703300       15.59796920808700        0.37629644384200      o
       -1.44770313713000       16.15552208951700        0.38820767203800      h
        0.65778944828400       15.24078338419200       -1.40921711885400      h
       24.21822501877700        4.94296543770600        2.05425321280800      o
       24.10085594740000        3.24243539905700        2.73427136022400      h
       22.96931134134500        5.92988913601500        2.94803047564800      h
       17.36322239583800       -2.21162113636600        2.35087539891600      o
       15.51268683597600       -2.20249633270300        2.33630863503100      h
       17.91625567111500       -1.28689566006700        0.86134106235000      h
      -10.33872332911700        8.92181926071400        7.75631563287500      o
      -11.85724458964800        8.20489061831600        8.51147305838500      h
       -9.25175886072700        7.51082789971000        7.28722523299700      h
        1.83810322971900       -9.55300821259800       -8.52757472344900      o
        1.38919269433500       -8.16252068805800       -7.42134743318300      h
        2.37870794882600       -8.79538274131400      -10.11782674448300      h
       -5.14615367391300        7.83245952481000        6.29599485095000      o
       -3.52309082253500        8.01345510273800        7.13101134410000      h
       -4.94719108829400        6.33609344853600        5.23062848241100      h
        1.49507383234900      -10.15595784199000        1.78682164328100      o
        3.14358026382300       -9.82689082406900        1.05481494424000      h
        0.46342100206600      -10.59200864791500        0.32463682471900      h
      -17.66743374516900        7.24773122941800       -6.72166909345300      o
      -17.72047625837100        8.69143139635300       -5.61409242604300      h
      -16.64365111135000        5.96622891089500       -5.80903640719600      h
      -14.28752986494500        6.44145114417800        9.91382601040000      o
      -15.98117506315400        6.91024306505500        9.41615415598200      h
      -13.90930717204300        4.86961184140800        8.96975100158300      h
       16.00177155703900       10.10848274168100        5.59914166115200      o
       16.50502831187400       11.35052439932900        4.37229553212500      h
       14.35750131761100        9.48413901421200        4.94855869864900      h
      -22.84749858714600       -2.90506743241400       -9.36004951252100      o
      -22.00876022148000       -1.27915700780500       -9.50366648068000      h
      -21.51405080634000       -4.07886047182000       -9.84671896691100      h
       11.83519343518300       13.76985066629700       -0.35321861147200      o
       11.27554796232200       13.46761805543200       -2.07788903873200      h
       13.26682667184100       12.66322880030800       -0.06983053523500      h
       15.95260359978400       12.56752932750700       -5.15530551086000      o
       16.42321854249700       13.34910832959800       -3.59015037796600      h
       15.57807889137200       10.79469768126500       -4.72463803490000      h
       14.89928556945200      -11.56485869876600       -1.56823359813300      o
       13.69803522849800      -12.87415172450900       -1.18681202438700      h
       16.02170771378200      -11.44138657564400       -0.11318721386500      h
       -1.01956470276100      -14.63527493868500        4.05226116046600      o
       -1.64934466628400      -14.79847882560200        2.33360085522200      h
        0.79113147341200      -14.79986064669500        3.99852511028200      h
       -3.85225888523600      -10.33884207666100        4.36518526797600      o
       -3.82976702456900       -9.76745552841800        2.59589420433500      h
       -2.83696305374100      -11.86482549854800        4.43626533857500      h
      -16.08212677449500       -4.80002765179300        4.71571719162700      o
      -15.88308539354100       -5.29153971355500        6.45438042027700      h
      -16.84121514896500       -6.21228285206400        3.83877759335300      h
       14.45960550855900       -6.25882105364800       -0.08866288075200      o
       14.19284466229700       -8.00091981050000       -0.57105891190400      h
       12.96940166193100       -5.32705768668100       -0.62084620265100      h
       16.53179749541800       -6.38567708011500        9.27751935504600      o
       16.64152894551800       -4.66331710398900        9.93354592599100      h
       14.97700299763400       -7.01684291233500       10.00536021181300      h
       11.61814053007500       -5.84092477405400       10.65289945905800      o
       12.00512555490400       -4.36591950474200        9.58952007669400      h
       11.02478757704000       -5.13566059679100       12.22457410925000      h
      -19.60745311278100       -7.90895926555900        7.65980852748700      o
      -20.43281113175600       -6.47972874174500        6.82543734721300      h
      -18.69356983026800       -7.14710629799200        9.04570494261200      h
       -2.53762974981200       12.29942728453600        9.62510047899600      o
       -1.74425305237000       12.54946852213600        7.98274050438200      h
       -2.06419660304400       13.71387666412600       10.64555925532400      h
       -5.74618884776000       -9.10960515158900       10.98619090264800      o
       -4.22831209564800       -8.34361491969600       11.68002440014100      h
       -5.07458323832700      -10.59855737829700       10.14059270441800      h
       -8.39491517946200      -15.15368217372000        0.84439347885100      o
       -9.79779142758300      -15.07822890065200        2.00872204844900      h
       -9.07603722295200      -15.45031458551300       -0.84163414410500      h
      -18.74066246157300      -11.02369385298200       -4.04325097832100      o
      -17.77905655828800      -10.26849297983800       -5.42668922470300      h
      -19.84438182075300       -9.72061769585500       -3.39653371291900      h
        7.68702929581700       -9.51726886865800      -10.51566024794800      o
        6.37224649241400       -9.15705989936200      -11.71935578184100      h
        8.80986442312400       -8.04859028919700      -10.48834439276500      h
        6.56434356967600        8.71964788509600       11.29901203899000      o
        7.84862655662900        8.13226866853700       12.51985048507200      h
        7.07248116103900       10.40529152556600       10.78796646118200      h
        8.92521382816000       13.29813082349800        3.72613155901700      o
        9.93540836524200       13.78305774401600        2.25212073889900      h
        7.21365813451600       13.01410283881100        3.10712844784800      h
      -14.69067954715200       -9.82589191946800        6.66553422212400      o
      -13.68993596588000       -9.24008332255200        8.08452189007500      h
      -16.44410806824900       -9.47938565576300        7.05116937602300      h
       10.02852542851100        6.61323480170000       14.16744522336400      o
        9.20001538803800        5.02131433312200       14.49199067718800      h
       11.53655036537300        6.27627309382100       13.18121781499100      h
        4.79097490508200      -12.68890053457700       -5.82305551943000      o
        3.85753848776500      -11.49391146456300       -6.87845192686500      h
        3.72064511691200      -14.13384451818700       -5.60631642221400      h
      -15.00191949688100        8.07556236581300        4.12985729772300      o
      -14.98247228216100        6.41725335570900        3.32799223723300      h
      -16.33042513429200        8.03811256232000        5.38189918856300      h
      -10.78606678110100       -8.24397093310500        9.88218378714900      o
       -9.98568566967500       -8.45687867048600        8.21610789133300      h
       -9.69716187728900       -9.19824627668200       10.98281752677700      h
       -2.62823968342900      -12.74754215780200        9.08576424750400      o
       -2.65568676760600      -14.10366709786400        7.88223874510400      h
       -1.30535587961600      -11.61149387258300        8.48815222048700      h
        4.63481596979400      -15.08324932915700        4.48284727163100      o
        6.35455009839200      -15.73142541404700        4.19783195974800      h
        4.57107290305700      -14.70091011488300        6.27384396449700      h
       14.13452842399200      -11.05590948938400       -6.67772585900600      o
       14.83338845191500      -11.43927390587400       -5.02723591637300      h
       12.67325102102800      -12.14762286875300       -6.92454725000800      h
       17.47098725217300        0.51987719842700        6.50089405032300      o
       17.56505275113300       -0.47728641287400        4.92972789193500      h
       16.03136832504900        1.68340939782600        6.25776857985200      h
      -10.57874676436400       -4.16480050408800       13.37419194241300      o
       -8.83072988113700       -3.72980514979000       13.70899131153100      h
      -10.54207755979500       -5.50228198978200       12.11935643360800      h
       -6.57758041738200       12.15816969591600       -8.97749013232400      o
       -7.46498549635300       11.05105818908400      -10.15542708581200      h
       -5.11015698596000       12.75339337351700       -9.88011624460200      h
       19.12117855347800       -5.44292284536200       -2.25297777667200      o
       19.22419308248400       -3.61720354480100       -2.09046012710400      h
       17.55919563815000       -5.89827296320300       -1.39626739138400      h
        4.17497457695000       10.75187926159200        6.68471087155200      o
        4.98146650387100        9.70658484984800        5.40735018677900      h
        5.51632377135800       11.70014043196000        7.47212359276400      h
       -9.79738755743200        4.72152958481200       -7.19292453383200      o
       -8.70910799965200        6.04416144790500       -6.52264155870900      h
      -11.27026095357900        5.57478265713800       -7.87003060505700      h
        9.84151680988700      -14.25801852388700       -2.04896204572400      o
[...]
   385   8 o      387   1 h                                       0.9845791
   388   8 o      389   1 h                                       0.9614688
   388   8 o      390   1 h                                       0.9839325
   391   8 o      392   1 h                                       0.9711524
   391   8 o      393   1 h                                       0.9660408
   394   8 o      395   1 h                                       0.9793036
   394   8 o      396   1 h                                       0.9728339
   397   8 o      398   1 h                                       0.9743411
   397   8 o      399   1 h                                       0.9746684
   400   8 o      401   1 h                                       0.9698124
   400   8 o      402   1 h                                       0.9750587
   403   8 o      404   1 h                                       0.9706249
   403   8 o      405   1 h                                       0.9777190
   406   8 o      407   1 h                                       0.9702422
   406   8 o      408   1 h                                       0.9746681
   409   8 o      410   1 h                                       0.9633075
   409   8 o      411   1 h                                       0.9932866
   412   8 o      413   1 h                                       0.9665097
   412   8 o      414   1 h                                       0.9907081
   415   8 o      416   1 h                                       0.9614564
   415   8 o      417   1 h                                       0.9923573
   418   8 o      419   1 h                                       0.9711077
   418   8 o      420   1 h                                       0.9747095
   421   8 o      422   1 h                                       0.9727418
   421   8 o      423   1 h                                       0.9692029
   424   8 o      425   1 h                                       0.9586809
   424   8 o      426   1 h                                       0.9855598
   427   8 o      428   1 h                                       0.9616962
   427   8 o      429   1 h                                       0.9746401
   430   8 o      431   1 h                                       0.9724561
   430   8 o      432   1 h                                       0.9625495
   433   8 o      434   1 h                                       0.9839538
   433   8 o      435   1 h                                       0.9706478
   436   8 o      437   1 h                                       0.9619027
   436   8 o      438   1 h                                       0.9670637
   439   8 o      440   1 h                                       0.9669294
   439   8 o      441   1 h                                       0.9717443
   442   8 o      443   1 h                                       0.9770360
   442   8 o      444   1 h                                       0.9679039
   445   8 o      446   1 h                                       0.9837822
   445   8 o      447   1 h                                       0.9641526
   448   8 o      449   1 h                                       0.9786333
   448   8 o      450   1 h                                       0.9665726
   451   8 o      452   1 h                                       0.9742200
   451   8 o      453   1 h                                       0.9563541
   454   8 o      455   1 h                                       0.9717423
   454   8 o      456   1 h                                       0.9733222
   457   8 o      458   1 h                                       0.9655732
   457   8 o      459   1 h                                       0.9749805
   460   8 o      461   1 h                                       0.9770332
   460   8 o      462   1 h                                       0.9663025
   463   8 o      464   1 h                                       0.9623590
   463   8 o      465   1 h                                       0.9784088
   466   8 o      467   1 h                                       0.9878541
   466   8 o      468   1 h                                       0.9701085
   469   8 o      470   1 h                                       0.9798150
   469   8 o      471   1 h                                       0.9747870
   472   8 o      473   1 h                                       0.9697360
   472   8 o      474   1 h                                       0.9675833
   475   8 o      476   1 h                                       0.9650733
   475   8 o      477   1 h                                       0.9700451
   478   8 o      479   1 h                                       0.9776418
   478   8 o      480   1 h                                       0.9584458
   481   8 o      482   1 h                                       0.9748006
   481   8 o      483   1 h                                       0.9662288
   484   8 o      485   1 h                                       0.9845753
   484   8 o      486   1 h                                       0.9624264
   487   8 o      488   1 h                                       0.9595929
   487   8 o      489   1 h                                       0.9754342
   490   8 o      491   1 h                                       0.9841632
   490   8 o      492   1 h                                       0.9696970
   493   8 o      494   1 h                                       0.9699244
   493   8 o      495   1 h                                       0.9740442
   496   8 o      497   1 h                                       0.9859961
   496   8 o      498   1 h                                       0.9879358
   499   8 o      500   1 h                                       0.9695467
   499   8 o      501   1 h                                       0.9706925
   502   8 o      503   1 h                                       0.9758578
   502   8 o      504   1 h                                       0.9645490
   505   8 o      506   1 h                                       0.9714799
   505   8 o      507   1 h                                       0.9730370
   508   8 o      509   1 h                                       0.9721204
   508   8 o      510   1 h                                       0.9639797
   511   8 o      512   1 h                                       0.9733103
   511   8 o      513   1 h                                       0.9694015
   514   8 o      515   1 h                                       0.9657495
   514   8 o      516   1 h                                       0.9782033
   517   8 o      518   1 h                                       0.9841300
   517   8 o      519   1 h                                       0.9682513
   520   8 o      521   1 h                                       0.9676752
   520   8 o      522   1 h                                       0.9799710
   523   8 o      524   1 h                                       0.9780402
   523   8 o      525   1 h                                       0.9639330
   526   8 o      527   1 h                                       1.0001968 (max)
   526   8 o      528   1 h                                       0.9714792
   529   8 o      530   1 h                                       0.9658821
   529   8 o      531   1 h                                       0.9794688
   532   8 o      533   1 h                                       0.9731658
   532   8 o      534   1 h                                       0.9760220
   535   8 o      536   1 h                                       0.9559507
   535   8 o      537   1 h                                       0.9846735
   538   8 o      539   1 h                                       0.9727135
   538   8 o      540   1 h                                       0.9653841
   541   8 o      542   1 h                                       0.9771811
   541   8 o      543   1 h                                       0.9669973
   544   8 o      545   1 h                                       0.9763267
   544   8 o      546   1 h                                       0.9750800
   547   8 o      548   1 h                                       0.9781476
   547   8 o      549   1 h                                       0.9726996
   550   8 o      551   1 h                                       0.9771416
   550   8 o      552   1 h                                       0.9568732
   553   8 o      554   1 h                                       0.9589333
   553   8 o      555   1 h                                       0.9921918
   556   8 o      557   1 h                                       0.9900223
   556   8 o      558   1 h                                       0.9614807
   559   8 o      560   1 h                                       0.9731629
   559   8 o      561   1 h                                       0.9797727
   562   8 o      563   1 h                                       0.9766347
   562   8 o      564   1 h                                       0.9727390
   565   8 o      566   1 h                                       0.9775142
   565   8 o      567   1 h                                       0.9733208
   568   8 o      569   1 h                                       0.9899390
   568   8 o      570   1 h                                       0.9555135
   571   8 o      572   1 h                                       0.9617907
   571   8 o      573   1 h                                       0.9835694
   574   8 o      575   1 h                                       0.9668237
   574   8 o      576   1 h                                       0.9781218
   577   8 o      578   1 h                                       0.9816978
   577   8 o      579   1 h                                       0.9684664
   580   8 o      581   1 h                                       0.9682973
   580   8 o      582   1 h                                       0.9799027
   583   8 o      584   1 h                                       0.9694436
   583   8 o      585   1 h                                       0.9646055
   586   8 o      587   1 h                                       0.9930988
   586   8 o      588   1 h                                       0.9825182
   589   8 o      590   1 h                                       0.9748286
   589   8 o      591   1 h                                       0.9710485
   592   8 o      593   1 h                                       0.9633032
   592   8 o      594   1 h                                       0.9876792
   595   8 o      596   1 h                                       0.9728615
   595   8 o      597   1 h                                       0.9766263
   598   8 o      599   1 h                                       0.9677466
   598   8 o      600   1 h                                       0.9598927
   601   8 o      602   1 h                                       0.9748074
   601   8 o      603   1 h                                       0.9706434
   604   8 o      605   1 h                                       0.9598667
   604   8 o      606   1 h                                       0.9887106
   607   8 o      608   1 h                                       0.9736765
   607   8 o      609   1 h                                       0.9774518
   610   8 o      611   1 h                                       0.9769145
   610   8 o      612   1 h                                       0.9817672
   613   8 o      614   1 h                                       0.9694146
   613   8 o      615   1 h                                       0.9681725
   616   8 o      617   1 h                                       0.9698809
   616   8 o      618   1 h                                       0.9651598
   619   8 o      620   1 h                                       0.9725489
   619   8 o      621   1 h                                       0.9739881
   622   8 o      623   1 h                                       0.9797108
   622   8 o      624   1 h                                       0.9833229
   625   8 o      626   1 h                                       0.9560265
   625   8 o      627   1 h                                       0.9941198
   628   8 o      629   1 h                                       0.9794160
   628   8 o      630   1 h                                       0.9655257
   631   8 o      632   1 h                                       0.9797449
   631   8 o      633   1 h                                       0.9705089
   634   8 o      635   1 h                                       0.9561853
   634   8 o      636   1 h                                       0.9884564
   637   8 o      638   1 h                                       0.9740186
   637   8 o      639   1 h                                       0.9653775
   640   8 o      641   1 h                                       0.9635853
   640   8 o      642   1 h                                       0.9732499
   643   8 o      644   1 h                                       0.9836713
   643   8 o      645   1 h                                       0.9702039
   646   8 o      647   1 h                                       0.9578728
   646   8 o      648   1 h                                       0.9752678
   649   8 o      650   1 h                                       0.9911391
   649   8 o      651   1 h                                       0.9715860
   652   8 o      653   1 h                                       0.9639193
   652   8 o      654   1 h                                       0.9762750
   655   8 o      656   1 h                                       0.9782343
   655   8 o      657   1 h                                       0.9589656
   658   8 o      659   1 h                                       0.9756152
   658   8 o      660   1 h                                       0.9755795
   661   8 o      662   1 h                                       0.9805798
   661   8 o      663   1 h                                       0.9749919
   664   8 o      665   1 h                                       0.9776474
   664   8 o      666   1 h                                       0.9780941
   667   8 o      668   1 h                                       0.9847023
   667   8 o      669   1 h                                       0.9756521
   670   8 o      671   1 h                                       0.9834826
   670   8 o      672   1 h                                       0.9728773
   673   8 o      674   1 h                                       0.9689488
   673   8 o      675   1 h                                       0.9771776
   676   8 o      677   1 h                                       0.9662566
   676   8 o      678   1 h                                       0.9701181
   679   8 o      680   1 h                                       0.9690059
   679   8 o      681   1 h                                       0.9674308
   682   8 o      683   1 h                                       0.9822385
   682   8 o      684   1 h                                       0.9630205
   685   8 o      686   1 h                                       0.9806333
   685   8 o      687   1 h                                       0.9735986
   688   8 o      689   1 h                                       0.9705974
   688   8 o      690   1 h                                       0.9710573
   691   8 o      692   1 h                                       0.9754131
   691   8 o      693   1 h                                       0.9640115
   694   8 o      695   1 h                                       0.9817590
   694   8 o      696   1 h                                       0.9669358
   697   8 o      698   1 h                                       0.9902835
   697   8 o      699   1 h                                       0.9806480
   700   8 o      701   1 h                                       0.9676552
   700   8 o      702   1 h                                       0.9763227
   703   8 o      704   1 h                                       0.9730627
   703   8 o      705   1 h                                       0.9751298
   706   8 o      707   1 h                                       0.9559401
   706   8 o      708   1 h                                       0.9733937
   709   8 o      710   1 h                                       0.9758421
   709   8 o      711   1 h                                       0.9614788
   712   8 o      713   1 h                                       0.9677750
   712   8 o      714   1 h                                       0.9786305
   715   8 o      716   1 h                                       0.9790059
   715   8 o      717   1 h                                       0.9799424
   718   8 o      719   1 h                                       0.9778069
   718   8 o      720   1 h                                       0.9734929
   721   8 o      722   1 h                                       0.9814828
   721   8 o      723   1 h                                       0.9647251
   724   8 o      725   1 h                                       0.9799783
   724   8 o      726   1 h                                       0.9711860
   727   8 o      728   1 h                                       0.9830485
   727   8 o      729   1 h                                       0.9681328
   730   8 o      731   1 h                                       0.9573864
   730   8 o      732   1 h                                       0.9844934
   733   8 o      734   1 h                                       0.9862272
   733   8 o      735   1 h                                       0.9621802
   736   8 o      737   1 h                                       0.9726033
   736   8 o      738   1 h                                       0.9799822
   739   8 o      740   1 h                                       0.9788822
   739   8 o      741   1 h                                       0.9750976
   742   8 o      743   1 h                                       0.9627969
   742   8 o      744   1 h                                       0.9657825
   745   8 o      746   1 h                                       0.9719012
   745   8 o      747   1 h                                       0.9722646
   748   8 o      749   1 h                                       0.9717675
   748   8 o      750   1 h                                       0.9663170
   751   8 o      752   1 h                                       0.9924031
   751   8 o      753   1 h                                       0.9592825
   754   8 o      755   1 h                                       0.9590986
   754   8 o      756   1 h                                       0.9697417

 * 1 distinct bonds (by element types)

   Z      Z             #   av. dist./Å        max./Å        min./Å
   1 H    8 O         504     0.9737340     1.0001968     0.9552730


optimized geometry written to: xtbopt.coord


           -------------------------------------------------
          | TOTAL ENERGY            -1283.335275642199 Eh   |
          | GRADIENT NORM               0.000846195743 Eh/α |
          | HOMO-LUMO GAP               7.288055231038 eV   |
           -------------------------------------------------

------------------------------------------------------------------------
 * finished run on 2022/11/24 at 09:15:25.371     
------------------------------------------------------------------------
 total:
 * wall-time:     0 d,  0 h,  7 min, 33.002 sec
 *  cpu-time:     0 d,  0 h, 11 min, 10.896 sec
 * ratio c/w:     1.481 speedup
 SCF:
 * wall-time:     0 d,  0 h,  0 min, 21.636 sec
 *  cpu-time:     0 d,  0 h,  0 min, 35.085 sec
 * ratio c/w:     1.622 speedup
 ANC optimizer:
 * wall-time:     0 d,  0 h,  7 min, 10.365 sec
 *  cpu-time:     0 d,  0 h, 10 min, 34.108 sec
 * ratio c/w:     1.473 speedup

