      -----------------------------------------------------------      
     |                   =====================                   |     
     |                           x T B                           |     
     |                   =====================                   |     
     |                         S. Grimme                         |     
     |          Mulliken Center for Theoretical Chemistry        |     
     |                    University of Bonn                     |     
      -----------------------------------------------------------      

   * xtb version 6.5.1 (579679a) compiled by 'ehlert@majestix' on 2022-07-11

   xtb is free software: you can redistribute it and/or modify it under
   the terms of the GNU Lesser General Public License as published by
   the Free Software Foundation, either version 3 of the License, or
   (at your option) any later version.
   
   xtb is distributed in the hope that it will be useful,
   but WITHOUT ANY WARRANTY; without even the implied warranty of
   MERCHANTABILITY or FITNESS FOR A PARTICULAR PURPOSE.  See the
   GNU Lesser General Public License for more details.
   
   Cite this work as:
   * C. Bannwarth, E. Caldeweyher, S. Ehlert, A. Hansen, P. Pracht,
     J. Seibert, S. Spicher, S. Grimme, WIREs Comput. Mol. Sci., 2020, 11,
     e01493. DOI: 10.1002/wcms.1493
   
   for GFN2-xTB:
   * C. Bannwarth, S. Ehlert and S. Grimme., J. Chem. Theory Comput., 2019,
     15, 1652-1671. DOI: 10.1021/acs.jctc.8b01176
   for GFN1-xTB:
   * S. Grimme, C. Bannwarth, P. Shushkov, J. Chem. Theory Comput., 2017,
     13, 1989-2009. DOI: 10.1021/acs.jctc.7b00118
   for GFN0-xTB:
   * P. Pracht, E. Caldeweyher, S. Ehlert, S. Grimme, ChemRxiv, 2019, preprint.
     DOI: 10.26434/chemrxiv.8326202.v1
   for GFN-FF:
   * S. Spicher and S. Grimme, Angew. Chem. Int. Ed., 2020, 59, 15665-15673.
     DOI: 10.1002/anie.202004239
   
   for ALPB and GBSA implicit solvation:
   * S. Ehlert, M. Stahn, S. Spicher, S. Grimme, J. Chem. Theory Comput.,
     2021, 17, 4250-4261. DOI: 10.1021/acs.jctc.1c00471
   
   for DFT-D4:
   * E. Caldeweyher, C. Bannwarth and S. Grimme, J. Chem. Phys., 2017,
     147, 034112. DOI: 10.1063/1.4993215
   * E. Caldeweyher, S. Ehlert, A. Hansen, H. Neugebauer, S. Spicher,
     C. Bannwarth and S. Grimme, J. Chem. Phys., 2019, 150, 154122.
     DOI: 10.1063/1.5090222
   * E. Caldeweyher, J.-M. Mewes, S. Ehlert and S. Grimme, Phys. Chem. Chem. Phys.
     2020, 22, 8499-8512. DOI: 10.1039/D0CP00502A
   
   for sTDA-xTB:
   * S. Grimme and C. Bannwarth, J. Chem. Phys., 2016, 145, 054103.
     DOI: 10.1063/1.4959605
   
   in the mass-spec context:
   * V. Asgeirsson, C. Bauer and S. Grimme, Chem. Sci., 2017, 8, 4879.
     DOI: 10.1039/c7sc00601b
   * J. Koopman and S. Grimme, ACS Omega 2019, 4, 12, 15120-15133.
     DOI: 10.1021/acsomega.9b02011
   
   for metadynamics refer to:
   * S. Grimme, J. Chem. Theory Comput., 2019, 155, 2847-2862
     DOI: 10.1021/acs.jctc.9b00143
   
   for SPH calculations refer to:
   * S. Spicher and S. Grimme, J. Chem. Theory Comput., 2021, 17, 1701-1714
     DOI: 10.1021/acs.jctc.0c01306
   
   with help from (in alphabetical order)
   P. Atkinson, C. Bannwarth, F. Bohle, G. Brandenburg, E. Caldeweyher
   M. Checinski, S. Dohm, S. Ehlert, S. Ehrlich, I. Gerasimov, C. Hölzer
   A. Katbashev, J. Koopman, C. Lavigne, S. Lehtola, F. März, M. Müller,
   F. Musil, H. Neugebauer, J. Pisarek, C. Plett, P. Pracht, F. Pultar,
   J. Seibert, P. Shushkov, S. Spicher, M. Stahn, M. Steiner, T. Strunk,
   J. Stückrath, T. Rose, and J. Unsleber
   
 * started run on 2022/11/24 at 09:27:46.526     

           -------------------------------------------------
          |                Calculation Setup                |
           -------------------------------------------------

          program call               : xtb xtbopt.coord --gfn2 --sp --gbsa water
          hostname                   : cn0341
          coordinate file            : xtbopt.coord
          omp threads                :                     2

   ID    Z sym.   atoms
    1    8 o      1, 4, 7, 10, 13, 16, 19, 22, 25, 28, 31, 34, 37, 40, 43,
                  46, 49, 52, 55, 58, 61, 64, 67, 70, 73, 76, 79, 82, 85, 88,
                  91, 94, 97, 100, 103, 106, 109, 112, 115, 118, 121, 124,
                  127, 130, 133, 136, 139, 142, 145, 148, 151, 154, 157, 160,
                  163, 166, 169, 172, 175, 178, 181, 184, 187, 190, 193, 196,
                  199, 202, 205, 208, 211, 214, 217, 220, 223, 226, 229, 232,
                  235, 238, 241, 244, 247, 250, 253, 256, 259, 262, 265, 268,
                  271, 274, 277, 280, 283, 286, 289, 292, 295, 298, 301, 304,
                  307, 310, 313, 316, 319, 322, 325, 328, 331, 334, 337, 340,
                  343, 346, 349, 352, 355, 358, 361, 364, 367, 370, 373, 376,
                  379, 382, 385, 388, 391, 394, 397, 400, 403, 406, 409, 412,
                  415, 418, 421, 424, 427, 430, 433, 436, 439, 442, 445, 448,
                  451, 454, 457, 460, 463, 466, 469, 472, 475, 478, 481, 484,
                  487, 490, 493, 496, 499, 502, 505, 508, 511, 514, 517, 520,
                  523, 526, 529, 532, 535, 538, 541, 544, 547, 550, 553, 556,
                  559, 562, 565, 568, 571, 574, 577, 580, 583, 586, 589, 592,
                  595, 598, 601, 604, 607, 610, 613, 616, 619, 622, 625, 628,
                  631, 634, 637, 640, 643, 646, 649, 652, 655, 658, 661, 664,
                  667, 670, 673, 676, 679, 682, 685, 688, 691, 694, 697, 700,
                  703, 706, 709, 712, 715, 718, 721, 724, 727, 730, 733, 736,
                  739, 742, 745, 748, 751, 754
    2    1 h      2, 3, 5, 6, 8, 9, 11, 12, 14, 15, 17, 18, 20, 21, 23, 24,
                  26, 27, 29, 30, 32, 33, 35, 36, 38, 39, 41, 42, 44, 45, 47,
                  48, 50, 51, 53, 54, 56, 57, 59, 60, 62, 63, 65, 66, 68, 69,
                  71, 72, 74, 75, 77, 78, 80, 81, 83, 84, 86, 87, 89, 90, 92,
                  93, 95, 96, 98, 99, 101, 102, 104, 105, 107, 108, 110, 111,
                  113, 114, 116, 117, 119, 120, 122, 123, 125, 126, 128, 129,
                  131, 132, 134, 135, 137, 138, 140, 141, 143, 144, 146, 147,
                  149, 150, 152, 153, 155, 156, 158, 159, 161, 162, 164, 165,
                  167, 168, 170, 171, 173, 174, 176, 177, 179, 180, 182, 183,
                  185, 186, 188, 189, 191, 192, 194, 195, 197, 198, 200, 201,
                  203, 204, 206, 207, 209, 210, 212, 213, 215, 216, 218, 219,
                  221, 222, 224, 225, 227, 228, 230, 231, 233, 234, 236, 237,
                  239, 240, 242, 243, 245, 246, 248, 249, 251, 252, 254, 255,
                  257, 258, 260, 261, 263, 264, 266, 267, 269, 270, 272, 273,
                  275, 276, 278, 279, 281, 282, 284, 285, 287, 288, 290, 291,
                  293, 294, 296, 297, 299, 300, 302, 303, 305, 306, 308, 309,
                  311, 312, 314, 315, 317, 318, 320, 321, 323, 324, 326, 327,
                  329, 330, 332, 333, 335, 336, 338, 339, 341, 342, 344, 345,
                  347, 348, 350, 351, 353, 354, 356, 357, 359, 360, 362, 363,
                  365, 366, 368, 369, 371, 372, 374, 375, 377, 378, 380, 381,
                  383, 384, 386, 387, 389, 390, 392, 393, 395, 396, 398, 399,
                  401, 402, 404, 405, 407, 408, 410, 411, 413, 414, 416, 417,
                  419, 420, 422, 423, 425, 426, 428, 429, 431, 432, 434, 435,
                  437, 438, 440, 441, 443, 444, 446, 447, 449, 450, 452, 453,
                  455, 456, 458, 459, 461, 462, 464, 465, 467, 468, 470, 471,
                  473, 474, 476, 477, 479, 480, 482, 483, 485, 486, 488, 489,
                  491, 492, 494, 495, 497, 498, 500, 501, 503, 504, 506, 507,
                  509, 510, 512, 513, 515, 516, 518, 519, 521, 522, 524, 525,
                  527, 528, 530, 531, 533, 534, 536, 537, 539, 540, 542, 543,
                  545, 546, 548, 549, 551, 552, 554, 555, 557, 558, 560, 561,
                  563, 564, 566, 567, 569, 570, 572, 573, 575, 576, 578, 579,
                  581, 582, 584, 585, 587, 588, 590, 591, 593, 594, 596, 597,
                  599, 600, 602, 603, 605, 606, 608, 609, 611, 612, 614, 615,
                  617, 618, 620, 621, 623, 624, 626, 627, 629, 630, 632, 633,
                  635, 636, 638, 639, 641, 642, 644, 645, 647, 648, 650, 651,
                  653, 654, 656, 657, 659, 660, 662, 663, 665, 666, 668, 669,
                  671, 672, 674, 675, 677, 678, 680, 681, 683, 684, 686, 687,
                  689, 690, 692, 693, 695, 696, 698, 699, 701, 702, 704, 705,
                  707, 708, 710, 711, 713, 714, 716, 717, 719, 720, 722, 723,
                  725, 726, 728, 729, 731, 732, 734, 735, 737, 738, 740, 741,
                  743, 744, 746, 747, 749, 750, 752, 753, 755, 756

molecular fragmentation (1/2 indicates fragments):
111222222222222222222222222222222222222222222222222222222222222222222222
222222222222222222222222222222222222222222222222222222222222222222222222
222222222222222222222222222222222222222222222222222222222222222222222222
222222222222222222222222222222222222222222222222222222222222222222222222
222222222222222222222222222222222222222222222222222222222222222222222222
222222222222222222222222222222222222222222222222222222222222222222222222
222222222222222222222222222222222222222222222222222222222222222222222222
222222222222222222222222222222222222222222222222222222222222222222222222
222222222222222222222222222222222222222222222222222222222222222222222222
222222222222222222222222222222222222222222222222222222222222222222222222
222222222222222222222222222222222222
# atoms in fragment 1/2:     3   753
 fragment masses (1/2) :       18.02     4521.84
CMA distance (Bohr)    :  19.231
constraining FC (au)   :  0.0500

           -------------------------------------------------
          |                 G F N 2 - x T B                 |
           -------------------------------------------------

        Reference                      10.1021/acs.jctc.8b01176
      * Hamiltonian:
        H0-scaling (s, p, d)           1.850000    2.230000    2.230000
        zeta-weighting                 0.500000
      * Dispersion:
        s8                             2.700000
        a1                             0.520000
        a2                             5.000000
        s9                             5.000000
      * Repulsion:
        kExp                           1.500000    1.000000
        rExp                           1.000000
      * Coulomb:
        alpha                          2.000000
        third order                    shell-resolved
        anisotropic                    true
        a3                             3.000000
        a5                             4.000000
        cn-shift                       1.200000
        cn-exp                         4.000000
        max-rad                        5.000000

      * Solvation model:               GBSA
        Solvent                        water
        Parameter file                 internal GFN2-xTB/GBSA
        Dielectric constant                8.0200E+01
        Reference state                gsolv [1 M gas/solution]
        Free energy shift                  1.8574E-03 Eh       1.1656E+00 kcal/mol
        Temperature                        2.9815E+02 K
        Density                            1.0000E+00 kg/L
        Solvent mass                       1.8000E+01 g/mol
        Interaction kernel             Still
        Born radius scaling (c1)           1.5524E+00
        Born radii integrator          GBOBC
        Born offset                        2.4628E-02 a0       4.6540E-02 AA
        H-bond correction              true
        Ion screening                  false
        Surface tension                    1.0000E-05 Eh       1.5569E+01 dyn/cm
        Grid points                               230 per atom

          ...................................................
          :                      SETUP                      :
          :.................................................:
          :  # basis functions                1512          :
          :  # atomic orbitals                1512          :
          :  # shells                         1008          :
          :  # electrons                      2016          :
          :  max. iterations                   250          :
          :  Hamiltonian                  GFN2-xTB          :
          :  restarted?                      false          :
          :  GBSA solvation                   true          :
          :  PC potential                    false          :
          :  electronic temp.          300.0000000     K    :
          :  accuracy                    1.0000000          :
          :  -> integral cutoff          0.2500000E+02      :
          :  -> integral neglect         0.1000000E-07      :
          :  -> SCF convergence          0.1000000E-05 Eh   :
          :  -> wf. convergence          0.1000000E-03 e    :
          :  Broyden damping             0.4000000          :
          ...................................................

 iter      E             dE          RMSdq      gap      omega  full diag
   1  -1291.2583894 -0.129126E+04  0.408E+00    8.39       0.0  T
   2  -1291.3393977 -0.810083E-01  0.242E+00    8.28       1.0  T
   3  -1291.3749758 -0.355781E-01  0.223E-01    7.56       1.0  T
   4  -1291.3802973 -0.532153E-02  0.476E-02    7.78       1.0  T
   5  -1291.3804456 -0.148278E-03  0.307E-02    7.73       1.0  T
   6  -1291.3804949 -0.493052E-04  0.374E-03    7.74       1.0  T
   7  -1291.3804966 -0.162728E-05  0.968E-04    7.74       3.8  T
   8  -1291.3804967 -0.127323E-06  0.448E-04    7.74       8.1  T
   9  -1291.3804967 -0.344814E-07  0.140E-04    7.74      25.9  T

   *** convergence criteria satisfied after 9 iterations ***

         #    Occupation            Energy/Eh            Energy/eV
      -------------------------------------------------------------
         1        2.0000           -0.6539701             -17.7954
       ...           ...                  ...                  ...
      1002        2.0000           -0.3596383              -9.7863
      1003        2.0000           -0.3596305              -9.7860
      1004        2.0000           -0.3582929              -9.7496
      1005        2.0000           -0.3577910              -9.7360
      1006        2.0000           -0.3568290              -9.7098
      1007        2.0000           -0.3502184              -9.5299
      1008        2.0000           -0.3409675              -9.2782 (HOMO)
      1009                         -0.0565067              -1.5376 (LUMO)
      1010                         -0.0468008              -1.2735
      1011                         -0.0390640              -1.0630
      1012                         -0.0361823              -0.9846
      1013                         -0.0315105              -0.8574
       ...                                ...                  ...
      1512                          0.4851251              13.2009
      -------------------------------------------------------------
                  HL-Gap            0.2844608 Eh            7.7406 eV
             Fermi-level           -0.1987371 Eh           -5.4079 eV

 SCC (total)                   0 d,  0 h,  0 min, 21.395 sec
 SCC setup                      ...        0 min,  0.117 sec (  0.548%)
 Dispersion                     ...        0 min,  0.111 sec (  0.520%)
 classical contributions        ...        0 min,  0.023 sec (  0.110%)
 integral evaluation            ...        0 min,  0.619 sec (  2.892%)
 iterations                     ...        0 min,  8.115 sec ( 37.929%)
 molecular gradient             ...        0 min, 12.340 sec ( 57.680%)
 printout                       ...        0 min,  0.069 sec (  0.321%)

         :::::::::::::::::::::::::::::::::::::::::::::::::::::
         ::                     SUMMARY                     ::
         :::::::::::::::::::::::::::::::::::::::::::::::::::::
         :: total energy           -1283.599574517267 Eh    ::
         :: total w/o Gsasa/hb     -1283.366083341511 Eh    ::
         :: gradient norm              0.093195475005 Eh/a0 ::
         :: HOMO-LUMO gap              7.740573094530 eV    ::
         ::.................................................::
         :: SCC energy             -1291.380496715092 Eh    ::
         :: -> isotropic ES            7.367361172811 Eh    ::
         :: -> anisotropic ES         -1.661350379617 Eh    ::
         :: -> anisotropic XC         -0.119694999937 Eh    ::
         :: -> dispersion             -0.787456455267 Eh    ::
         :: -> Gsolv                  -0.287747472069 Eh    ::
         ::    -> Gelec               -0.054256296313 Eh    ::
         ::    -> Gsasa                0.006194152992 Eh    ::
         ::    -> Ghb                 -0.241542771875 Eh    ::
         ::    -> Gshift               0.001857443127 Eh    ::
         :: repulsion energy           7.627941241116 Eh    ::
         :: add. restraining           0.000000000000 Eh    ::
         :: total charge               0.000000000000 e     ::
         :::::::::::::::::::::::::::::::::::::::::::::::::::::

           -------------------------------------------------
          |                Property Printout                |
           -------------------------------------------------

    * Orbital Energies and Occupations

         #    Occupation            Energy/Eh            Energy/eV
      -------------------------------------------------------------
         1        2.0000           -0.6539701             -17.7954
       ...           ...                  ...                  ...
       996        2.0000           -0.3638531              -9.9009
       997        2.0000           -0.3631627              -9.8822
       998        2.0000           -0.3630307              -9.8786
       999        2.0000           -0.3618254              -9.8458
      1000        2.0000           -0.3615587              -9.8385
      1001        2.0000           -0.3597902              -9.7904
      1002        2.0000           -0.3596383              -9.7863
      1003        2.0000           -0.3596305              -9.7860
      1004        2.0000           -0.3582929              -9.7496
      1005        2.0000           -0.3577910              -9.7360
      1006        2.0000           -0.3568290              -9.7098
      1007        2.0000           -0.3502184              -9.5299
      1008        2.0000           -0.3409675              -9.2782 (HOMO)
      1009                         -0.0565067              -1.5376 (LUMO)
      1010                         -0.0468008              -1.2735
      1011                         -0.0390640              -1.0630
      1012                         -0.0361823              -0.9846
      1013                         -0.0315105              -0.8574
      1014                         -0.0210176              -0.5719
      1015                         -0.0171026              -0.4654
      1016                         -0.0109181              -0.2971
      1017                         -0.0085850              -0.2336
      1018                         -0.0071904              -0.1957
      1019                         -0.0041396              -0.1126
       ...                                ...                  ...
      1512                          0.4851251              13.2009
      -------------------------------------------------------------
                  HL-Gap            0.2844608 Eh            7.7406 eV
             Fermi-level           -0.1987371 Eh           -5.4079 eV

     #   Z          covCN         q      C6AA      α(0)
     1   8 o        1.608    -0.675    27.057     7.020
     2   1 h        0.804     0.341     0.610     1.227
     3   1 h        0.804     0.335     0.625     1.242
     4   8 o        1.607    -0.682    27.227     7.042
     5   1 h        0.803     0.363     0.560     1.175
     6   1 h        0.805     0.314     0.680     1.295
     7   8 o        1.608    -0.673    27.014     7.015
     8   1 h        0.804     0.347     0.594     1.211
     9   1 h        0.804     0.350     0.587     1.204
    10   8 o        1.607    -0.705    27.840     7.121
    11   1 h        0.803     0.350     0.588     1.205
    12   1 h        0.804     0.346     0.597     1.214
    13   8 o        1.607    -0.698    27.647     7.097
    14   1 h        0.804     0.349     0.590     1.206
    15   1 h        0.805     0.339     0.614     1.231
    16   8 o        1.608    -0.689    27.413     7.066
    17   1 h        0.805     0.356     0.575     1.191
    18   1 h        0.803     0.358     0.570     1.186
    19   8 o        1.607    -0.695    27.566     7.086
    20   1 h        0.804     0.348     0.593     1.210
    21   1 h        0.803     0.342     0.608     1.225
    22   8 o        1.608    -0.674    27.035     7.018
    23   1 h        0.804     0.344     0.602     1.218
    24   1 h        0.804     0.358     0.571     1.187
    25   8 o        1.610    -0.663    26.745     6.980
    26   1 h        0.804     0.325     0.651     1.267
    27   1 h        0.804     0.335     0.626     1.242
    28   8 o        1.610    -0.685    27.302     7.052
    29   1 h        0.804     0.348     0.592     1.208
    30   1 h        0.805     0.343     0.604     1.221
    31   8 o        1.608    -0.672    26.965     7.008
    32   1 h        0.805     0.319     0.666     1.282
    33   1 h        0.803     0.364     0.557     1.172
    34   8 o        1.608    -0.696    27.603     7.091
    35   1 h        0.804     0.338     0.618     1.235
    36   1 h        0.804     0.340     0.613     1.230
    37   8 o        1.608    -0.674    27.041     7.018
    38   1 h        0.803     0.345     0.601     1.218
    39   1 h        0.804     0.320     0.665     1.281
    40   8 o        1.607    -0.692    27.498     7.077
    41   1 h        0.804     0.345     0.599     1.216
    42   1 h        0.803     0.355     0.576     1.192
    43   8 o        1.607    -0.697    27.619     7.093
    44   1 h        0.803     0.361     0.564     1.179
    45   1 h        0.804     0.340     0.611     1.228
    46   8 o        1.608    -0.674    27.022     7.016
    47   1 h        0.805     0.342     0.608     1.224
    48   1 h        0.803     0.345     0.599     1.216
    49   8 o        1.608    -0.670    26.928     7.004
    50   1 h        0.806     0.313     0.684     1.299
    51   1 h        0.802     0.356     0.574     1.190
    52   8 o        1.607    -0.693    27.516     7.080
    53   1 h        0.803     0.349     0.590     1.207
    54   1 h        0.803     0.344     0.603     1.220
    55   8 o        1.608    -0.686    27.335     7.056
    56   1 h        0.805     0.324     0.653     1.269
    57   1 h        0.804     0.335     0.625     1.242
    58   8 o        1.606    -0.715    28.117     7.157
    59   1 h        0.804     0.348     0.594     1.211
    60   1 h        0.803     0.346     0.598     1.215
    61   8 o        1.608    -0.673    26.992     7.012
    62   1 h        0.804     0.351     0.585     1.202
    63   1 h        0.804     0.326     0.647     1.263
    64   8 o        1.607    -0.683    27.262     7.047
    65   1 h        0.804     0.332     0.632     1.249
    66   1 h        0.803     0.359     0.568     1.184
    67   8 o        1.607    -0.667    26.856     6.994
    68   1 h        0.803     0.350     0.589     1.206
    69   1 h        0.805     0.346     0.597     1.214
    70   8 o        1.609    -0.698    27.649     7.097
    71   1 h        0.804     0.336     0.623     1.239
    72   1 h        0.805     0.344     0.602     1.218
    73   8 o        1.608    -0.667    26.839     6.992
    74   1 h        0.803     0.352     0.583     1.199
    75   1 h        0.805     0.328     0.643     1.260
    76   8 o        1.606    -0.697    27.641     7.096
    77   1 h        0.804     0.340     0.613     1.230
    78   1 h        0.803     0.355     0.577     1.193
    79   8 o        1.605    -0.695    27.590     7.089
    80   1 h        0.803     0.359     0.567     1.183
    81   1 h        0.803     0.320     0.664     1.280
    82   8 o        1.606    -0.679    27.154     7.033
    83   1 h        0.803     0.355     0.576     1.193
    84   1 h        0.803     0.327     0.645     1.262
    85   8 o        1.607    -0.692    27.496     7.077
    86   1 h        0.804     0.335     0.626     1.243
    87   1 h        0.803     0.355     0.576     1.192
    88   8 o        1.607    -0.694    27.541     7.083
    89   1 h        0.803     0.336     0.623     1.239
    90   1 h        0.804     0.337     0.620     1.237
    91   8 o        1.609    -0.669    26.904     7.001
    92   1 h        0.804     0.354     0.580     1.196
    93   1 h        0.805     0.324     0.653     1.269
    94   8 o        1.606    -0.661    26.690     6.973
    95   1 h        0.803     0.339     0.615     1.232
    96   1 h        0.803     0.337     0.621     1.238
    97   8 o        1.608    -0.695    27.587     7.089
    98   1 h        0.803     0.358     0.570     1.186
    99   1 h        0.804     0.346     0.597     1.213
   100   8 o        1.609    -0.682    27.241     7.044
   101   1 h        0.805     0.336     0.623     1.240
   102   1 h        0.804     0.352     0.584     1.200
   103   8 o        1.608    -0.671    26.953     7.007
   104   1 h        0.804     0.340     0.613     1.230
   105   1 h        0.803     0.359     0.567     1.183
   106   8 o        1.609    -0.677    27.115     7.028
   107   1 h        0.804     0.334     0.626     1.243
   108   1 h        0.804     0.335     0.624     1.241
   109   8 o        1.608    -0.669    26.889     6.999
   110   1 h        0.805     0.340     0.612     1.229
   111   1 h        0.803     0.343     0.605     1.222
   112   8 o        1.609    -0.694    27.556     7.085
   113   1 h        0.804     0.338     0.617     1.234
   114   1 h        0.804     0.340     0.613     1.230
   115   8 o        1.609    -0.695    27.580     7.088
   116   1 h        0.804     0.354     0.578     1.194
   117   1 h        0.804     0.343     0.606     1.223
   118   8 o        1.605    -0.685    27.320     7.054
   119   1 h        0.803     0.323     0.657     1.273
   120   1 h        0.802     0.354     0.579     1.196
   121   8 o        1.609    -0.676    27.082     7.024
   122   1 h        0.804     0.350     0.587     1.204
   123   1 h        0.805     0.328     0.643     1.260
   124   8 o        1.605    -0.706    27.869     7.125
   125   1 h        0.803     0.360     0.565     1.181
   126   1 h        0.802     0.366     0.552     1.167
   127   8 o        1.606    -0.706    27.863     7.124
   128   1 h        0.803     0.349     0.591     1.208
   129   1 h        0.804     0.351     0.585     1.201
   130   8 o        1.609    -0.680    27.177     7.036
   131   1 h        0.805     0.331     0.634     1.251
   132   1 h        0.804     0.336     0.623     1.240
   133   8 o        1.606    -0.701    27.726     7.107
   134   1 h        0.802     0.359     0.568     1.184
   135   1 h        0.804     0.330     0.638     1.255
   136   8 o        1.610    -0.664    26.762     6.982
   137   1 h        0.805     0.342     0.607     1.224
   138   1 h        0.805     0.309     0.696     1.310
   139   8 o        1.608    -0.692    27.506     7.078
   140   1 h        0.804     0.353     0.582     1.199
   141   1 h        0.804     0.352     0.583     1.200
   142   8 o        1.607    -0.673    26.991     7.012
   143   1 h        0.803     0.354     0.579     1.195
   144   1 h        0.803     0.330     0.638     1.255
   145   8 o        1.608    -0.675    27.062     7.021
   146   1 h        0.804     0.350     0.587     1.204
   147   1 h        0.804     0.332     0.633     1.250
   148   8 o        1.606    -0.709    27.945     7.135
   149   1 h        0.804     0.339     0.614     1.231
   150   1 h        0.802     0.362     0.562     1.178
   151   8 o        1.607    -0.667    26.846     6.993
   152   1 h        0.803     0.332     0.632     1.249
   153   1 h        0.804     0.330     0.637     1.253
   154   8 o        1.608    -0.678    27.123     7.029
   155   1 h        0.803     0.350     0.588     1.205
   156   1 h        0.804     0.359     0.567     1.183
   157   8 o        1.609    -0.677    27.098     7.026
   158   1 h        0.804     0.339     0.615     1.232
   159   1 h        0.805     0.332     0.632     1.249
   160   8 o        1.608    -0.687    27.372     7.061
   161   1 h        0.804     0.345     0.601     1.217
   162   1 h        0.805     0.316     0.675     1.291
   163   8 o        1.608    -0.700    27.715     7.105
   164   1 h        0.804     0.346     0.597     1.214
   165   1 h        0.804     0.334     0.627     1.243
   166   8 o        1.607    -0.680    27.190     7.038
   167   1 h        0.804     0.325     0.651     1.268
   168   1 h        0.803     0.351     0.587     1.203
   169   8 o        1.604    -0.707    27.907     7.130
   170   1 h        0.804     0.343     0.606     1.223
   171   1 h        0.803     0.347     0.596     1.213
   172   8 o        1.608    -0.676    27.077     7.023
   173   1 h        0.804     0.319     0.667     1.283
   174   1 h        0.803     0.348     0.592     1.209
   175   8 o        1.608    -0.667    26.850     6.993
   176   1 h        0.805     0.350     0.589     1.205
   177   1 h        0.803     0.330     0.638     1.255
   178   8 o        1.608    -0.670    26.936     7.005
   179   1 h        0.803     0.363     0.558     1.174
   180   1 h        0.804     0.333     0.629     1.246
   181   8 o        1.608    -0.681    27.200     7.039
   182   1 h        0.804     0.328     0.643     1.260
   183   1 h        0.803     0.361     0.563     1.178
   184   8 o        1.608    -0.661    26.706     6.975
   185   1 h        0.803     0.356     0.574     1.191
   186   1 h        0.804     0.335     0.625     1.241
   187   8 o        1.608    -0.669    26.908     7.001
   188   1 h        0.803     0.349     0.591     1.208
   189   1 h        0.805     0.324     0.654     1.270
   190   8 o        1.608    -0.694    27.551     7.084
   191   1 h        0.804     0.333     0.631     1.248
   192   1 h        0.804     0.338     0.618     1.235
   193   8 o        1.609    -0.671    26.954     7.007
   194   1 h        0.803     0.361     0.563     1.179
   195   1 h        0.803     0.349     0.592     1.208
   196   8 o        1.607    -0.695    27.583     7.088
   197   1 h        0.803     0.360     0.566     1.182
   198   1 h        0.804     0.343     0.604     1.221
   199   8 o        1.607    -0.683    27.268     7.048
   200   1 h        0.803     0.327     0.646     1.263
   201   1 h        0.803     0.356     0.574     1.190
   202   8 o        1.608    -0.681    27.218     7.041
   203   1 h        0.803     0.352     0.583     1.200
   204   1 h        0.805     0.320     0.664     1.280
   205   8 o        1.606    -0.688    27.396     7.064
   206   1 h        0.803     0.353     0.581     1.198
   207   1 h        0.802     0.353     0.582     1.199
   208   8 o        1.608    -0.678    27.138     7.031
   209   1 h        0.803     0.348     0.594     1.211
   210   1 h        0.804     0.328     0.643     1.259
   211   8 o        1.608    -0.693    27.516     7.080
   212   1 h        0.805     0.345     0.600     1.217
   213   1 h        0.803     0.325     0.652     1.268
   214   8 o        1.607    -0.704    27.822     7.119
   215   1 h        0.804     0.352     0.583     1.199
   216   1 h        0.803     0.362     0.562     1.178
   217   8 o        1.608    -0.689    27.431     7.069
   218   1 h        0.804     0.354     0.578     1.195
   219   1 h        0.804     0.341     0.609     1.226
   220   8 o        1.608    -0.696    27.602     7.091
   221   1 h        0.803     0.361     0.564     1.179
   222   1 h        0.803     0.346     0.598     1.215
   223   8 o        1.608    -0.682    27.236     7.044
   224   1 h        0.803     0.348     0.594     1.210
   225   1 h        0.805     0.338     0.617     1.234
   226   8 o        1.605    -0.693    27.523     7.080
   227   1 h        0.805     0.336     0.622     1.239
   228   1 h        0.801     0.361     0.564     1.180
   229   8 o        1.607    -0.692    27.510     7.079
   230   1 h        0.804     0.357     0.573     1.189
   231   1 h        0.804     0.347     0.596     1.212
   232   8 o        1.608    -0.694    27.561     7.085
   233   1 h        0.803     0.357     0.571     1.188
   234   1 h        0.804     0.361     0.563     1.179
   235   8 o        1.607    -0.666    26.821     6.990
   236   1 h        0.803     0.345     0.601     1.217
   237   1 h        0.803     0.327     0.645     1.261
   238   8 o        1.608    -0.678    27.132     7.030
   239   1 h        0.803     0.337     0.619     1.236
   240   1 h        0.805     0.326     0.648     1.264
   241   8 o        1.608    -0.676    27.092     7.025
   242   1 h        0.803     0.366     0.553     1.168
   243   1 h        0.805     0.322     0.657     1.273
   244   8 o        1.607    -0.654    26.521     6.950
   245   1 h        0.805     0.321     0.660     1.276
   246   1 h        0.802     0.337     0.620     1.237
   247   8 o        1.608    -0.663    26.757     6.981
   248   1 h        0.804     0.350     0.588     1.204
   249   1 h        0.805     0.327     0.645     1.261
   250   8 o        1.606    -0.700    27.710     7.104
   251   1 h        0.802     0.356     0.576     1.192
   252   1 h        0.803     0.320     0.663     1.279
   253   8 o        1.607    -0.704    27.806     7.117
   254   1 h        0.804     0.348     0.593     1.210
   255   1 h        0.803     0.349     0.590     1.207
   256   8 o        1.607    -0.692    27.487     7.076
   257   1 h        0.803     0.360     0.565     1.181
   258   1 h        0.804     0.342     0.608     1.225
   259   8 o        1.607    -0.697    27.628     7.094
   260   1 h        0.803     0.334     0.628     1.245
   261   1 h        0.804     0.328     0.644     1.260
   262   8 o        1.606    -0.685    27.322     7.055
   263   1 h        0.805     0.328     0.642     1.259
   264   1 h        0.802     0.350     0.588     1.205
   265   8 o        1.608    -0.665    26.797     6.987
   266   1 h        0.805     0.323     0.655     1.272
   267   1 h        0.803     0.330     0.637     1.254
   268   8 o        1.608    -0.683    27.260     7.047
   269   1 h        0.803     0.354     0.580     1.196
   270   1 h        0.805     0.327     0.646     1.262
   271   8 o        1.608    -0.681    27.200     7.039
   272   1 h        0.803     0.358     0.569     1.185
   273   1 h        0.805     0.342     0.608     1.225
   274   8 o        1.609    -0.667    26.857     6.994
   275   1 h        0.804     0.318     0.670     1.286
   276   1 h        0.804     0.342     0.609     1.225
   277   8 o        1.608    -0.697    27.624     7.093
   278   1 h        0.804     0.346     0.597     1.214
   279   1 h        0.804     0.349     0.590     1.206
   280   8 o        1.608    -0.677    27.107     7.027
   281   1 h        0.804     0.350     0.588     1.205
   282   1 h        0.804     0.348     0.592     1.209
   283   8 o        1.609    -0.636    26.070     6.891
   284   1 h        0.805     0.325     0.652     1.268
   285   1 h        0.804     0.338     0.617     1.234
   286   8 o        1.609    -0.674    27.016     7.015
   287   1 h        0.804     0.327     0.645     1.261
   288   1 h        0.804     0.345     0.599     1.216
   289   8 o        1.608    -0.698    27.655     7.097
   290   1 h        0.804     0.332     0.633     1.250
   291   1 h        0.804     0.352     0.584     1.200
   292   8 o        1.605    -0.690    27.436     7.069
   293   1 h        0.804     0.319     0.666     1.282
   294   1 h        0.802     0.342     0.609     1.226
   295   8 o        1.608    -0.672    26.969     7.009
   296   1 h        0.802     0.356     0.575     1.191
   297   1 h        0.805     0.351     0.586     1.202
   298   8 o        1.608    -0.699    27.691     7.102
   299   1 h        0.803     0.341     0.611     1.228
   300   1 h        0.805     0.349     0.590     1.206
   301   8 o        1.606    -0.678    27.128     7.029
   302   1 h        0.802     0.337     0.619     1.236
   303   1 h        0.803     0.367     0.550     1.165
   304   8 o        1.608    -0.663    26.744     6.980
   305   1 h        0.806     0.319     0.665     1.281
   306   1 h        0.803     0.349     0.590     1.207
   307   8 o        1.605    -0.712    28.024     7.145
   308   1 h        0.803     0.360     0.567     1.183
   309   1 h        0.803     0.349     0.590     1.207
   310   8 o        1.609    -0.665    26.790     6.986
   311   1 h        0.804     0.340     0.611     1.228
   312   1 h        0.805     0.341     0.610     1.226
   313   8 o        1.608    -0.664    26.782     6.985
   314   1 h        0.802     0.359     0.568     1.184
   315   1 h        0.806     0.304     0.709     1.322
   316   8 o        1.606    -0.701    27.732     7.107
   317   1 h        0.805     0.318     0.670     1.285
   318   1 h        0.802     0.360     0.565     1.181
   319   8 o        1.605    -0.709    27.948     7.135
   320   1 h        0.803     0.351     0.587     1.203
   321   1 h        0.804     0.359     0.567     1.183
   322   8 o        1.609    -0.651    26.438     6.940
   323   1 h        0.805     0.322     0.658     1.274
   324   1 h        0.803     0.346     0.597     1.214
   325   8 o        1.609    -0.694    27.548     7.084
   326   1 h        0.805     0.338     0.616     1.233
   327   1 h        0.804     0.337     0.619     1.236
   328   8 o        1.609    -0.669    26.906     7.001
   329   1 h        0.804     0.318     0.669     1.285
   330   1 h        0.805     0.330     0.636     1.253
   331   8 o        1.609    -0.676    27.074     7.023
   332   1 h        0.804     0.340     0.613     1.230
   333   1 h        0.805     0.333     0.630     1.247
   334   8 o        1.607    -0.672    26.972     7.009
   335   1 h        0.806     0.307     0.699     1.313
   336   1 h        0.802     0.365     0.555     1.170
   337   8 o        1.608    -0.687    27.365     7.060
   338   1 h        0.805     0.330     0.636     1.253
   339   1 h        0.803     0.340     0.613     1.230
   340   8 o        1.607    -0.693    27.537     7.082
   341   1 h        0.804     0.340     0.613     1.230
   342   1 h        0.803     0.315     0.677     1.292
   343   8 o        1.608    -0.681    27.220     7.042
   344   1 h        0.804     0.361     0.564     1.180
   345   1 h        0.804     0.325     0.651     1.268
   346   8 o        1.609    -0.681    27.212     7.040
   347   1 h        0.805     0.350     0.589     1.206
   348   1 h        0.804     0.321     0.660     1.277
   349   8 o        1.607    -0.655    26.542     6.953
   350   1 h        0.803     0.328     0.642     1.259
   351   1 h        0.804     0.326     0.648     1.264
   352   8 o        1.609    -0.679    27.157     7.033
   353   1 h        0.805     0.315     0.677     1.292
   354   1 h        0.803     0.364     0.557     1.173
   355   8 o        1.607    -0.685    27.304     7.052
   356   1 h        0.803     0.357     0.572     1.188
   357   1 h        0.803     0.338     0.618     1.235
   358   8 o        1.608    -0.652    26.464     6.943
   359   1 h        0.802     0.368     0.549     1.164
   360   1 h        0.806     0.310     0.693     1.307
   361   8 o        1.609    -0.668    26.869     6.996
   362   1 h        0.805     0.340     0.613     1.230
   363   1 h        0.805     0.336     0.623     1.240
   364   8 o        1.607    -0.678    27.144     7.032
   365   1 h        0.802     0.360     0.565     1.181
   366   1 h        0.805     0.319     0.665     1.281
   367   8 o        1.607    -0.689    27.426     7.068
   368   1 h        0.805     0.324     0.652     1.268
   369   1 h        0.803     0.363     0.559     1.174
   370   8 o        1.607    -0.660    26.661     6.969
   371   1 h        0.802     0.339     0.616     1.233
   372   1 h        0.805     0.321     0.662     1.278
   373   8 o        1.606    -0.673    27.002     7.013
   374   1 h        0.801     0.355     0.577     1.193
   375   1 h        0.806     0.306     0.702     1.316
   376   8 o        1.607    -0.697    27.623     7.093
   377   1 h        0.803     0.355     0.577     1.193
   378   1 h        0.804     0.342     0.608     1.225
   379   8 o        1.609    -0.657    26.583     6.959
   380   1 h        0.804     0.339     0.614     1.231
   381   1 h        0.805     0.324     0.653     1.269
   382   8 o        1.606    -0.700    27.703     7.104
   383   1 h        0.802     0.373     0.537     1.152
   384   1 h        0.805     0.323     0.655     1.271
   385   8 o        1.607    -0.688    27.397     7.064
   386   1 h        0.805     0.330     0.636     1.253
   387   1 h        0.802     0.363     0.560     1.175
   388   8 o        1.607    -0.684    27.289     7.050
   389   1 h        0.805     0.316     0.675     1.291
   390   1 h        0.802     0.343     0.604     1.221
   391   8 o        1.609    -0.678    27.138     7.031
   392   1 h        0.804     0.338     0.618     1.235
   393   1 h        0.805     0.336     0.621     1.238
   394   8 o        1.608    -0.682    27.225     7.042
   395   1 h        0.803     0.363     0.559     1.174
   396   1 h        0.804     0.346     0.597     1.214
   397   8 o        1.607    -0.683    27.251     7.045
   398   1 h        0.804     0.332     0.633     1.250
   399   1 h        0.804     0.362     0.561     1.176
   400   8 o        1.608    -0.677    27.114     7.028
   401   1 h        0.804     0.366     0.553     1.168
   402   1 h        0.804     0.336     0.622     1.239
   403   8 o        1.610    -0.681    27.218     7.041
   404   1 h        0.804     0.338     0.617     1.234
   405   1 h        0.803     0.356     0.575     1.191
   406   8 o        1.608    -0.691    27.460     7.072
   407   1 h        0.804     0.353     0.580     1.197
   408   1 h        0.804     0.343     0.606     1.223
   409   8 o        1.606    -0.691    27.464     7.073
   410   1 h        0.805     0.322     0.658     1.274
   411   1 h        0.801     0.365     0.556     1.171
   412   8 o        1.606    -0.687    27.375     7.061
   413   1 h        0.805     0.326     0.648     1.264
   414   1 h        0.802     0.360     0.566     1.182
   415   8 o        1.606    -0.681    27.203     7.039
   416   1 h        0.805     0.313     0.683     1.298
   417   1 h        0.801     0.365     0.556     1.171
   418   8 o        1.608    -0.678    27.139     7.031
   419   1 h        0.804     0.336     0.622     1.239
   420   1 h        0.804     0.342     0.608     1.225
   421   8 o        1.608    -0.690    27.449     7.071
   422   1 h        0.804     0.337     0.619     1.236
   423   1 h        0.804     0.336     0.623     1.240
   424   8 o        1.607    -0.688    27.403     7.065
   425   1 h        0.805     0.311     0.689     1.304
   426   1 h        0.802     0.357     0.572     1.189
   427   8 o        1.609    -0.659    26.642     6.966
   428   1 h        0.805     0.322     0.659     1.275
   429   1 h        0.804     0.336     0.622     1.239
   430   8 o        1.609    -0.667    26.838     6.992
   431   1 h        0.804     0.338     0.617     1.234
   432   1 h        0.805     0.326     0.648     1.264
   433   8 o        1.607    -0.689    27.410     7.066
   434   1 h        0.803     0.359     0.567     1.183
   435   1 h        0.804     0.330     0.637     1.253
   436   8 o        1.610    -0.652    26.455     6.942
   437   1 h        0.805     0.325     0.651     1.267
   438   1 h        0.805     0.338     0.617     1.234
   439   8 o        1.609    -0.663    26.737     6.979
   440   1 h        0.805     0.329     0.640     1.257
   441   1 h        0.804     0.361     0.563     1.179
   442   8 o        1.608    -0.684    27.300     7.052
   443   1 h        0.803     0.339     0.614     1.231
   444   1 h        0.804     0.332     0.632     1.248
   445   8 o        1.607    -0.686    27.349     7.058
   446   1 h        0.802     0.360     0.565     1.181
   447   1 h        0.805     0.311     0.689     1.303
   448   8 o        1.608    -0.692    27.491     7.076
   449   1 h        0.803     0.345     0.601     1.218
   450   1 h        0.805     0.326     0.649     1.265
   451   8 o        1.609    -0.655    26.542     6.953
   452   1 h        0.804     0.356     0.574     1.191
   453   1 h        0.806     0.316     0.676     1.291
   454   8 o        1.608    -0.678    27.123     7.029
   455   1 h        0.804     0.332     0.632     1.249
   456   1 h        0.804     0.330     0.638     1.255
   457   8 o        1.608    -0.664    26.779     6.984
   458   1 h        0.805     0.335     0.626     1.242
   459   1 h        0.804     0.343     0.606     1.223
   460   8 o        1.608    -0.687    27.371     7.061
   461   1 h        0.803     0.336     0.622     1.239
   462   1 h        0.805     0.328     0.643     1.259
   463   8 o        1.608    -0.681    27.200     7.039
   464   1 h        0.805     0.322     0.659     1.275
   465   1 h        0.803     0.344     0.602     1.218
   466   8 o        1.606    -0.673    27.007     7.014
   467   1 h        0.802     0.338     0.617     1.234
   468   1 h        0.804     0.328     0.641     1.258
   469   8 o        1.607    -0.694    27.554     7.084
   470   1 h        0.803     0.339     0.614     1.231
   471   1 h        0.804     0.347     0.597     1.213
   472   8 o        1.609    -0.661    26.696     6.973
   473   1 h        0.804     0.335     0.626     1.242
   474   1 h        0.805     0.326     0.647     1.263
   475   8 o        1.610    -0.670    26.935     7.005
   476   1 h        0.805     0.342     0.607     1.223
   477   1 h        0.804     0.341     0.611     1.228
   478   8 o        1.609    -0.656    26.566     6.956
   479   1 h        0.803     0.351     0.587     1.204
   480   1 h        0.806     0.312     0.685     1.300
   481   8 o        1.608    -0.684    27.289     7.050
   482   1 h        0.804     0.353     0.580     1.197
   483   1 h        0.805     0.314     0.680     1.296
   484   8 o        1.607    -0.673    27.004     7.013
   485   1 h        0.802     0.360     0.566     1.182
   486   1 h        0.805     0.313     0.684     1.299
   487   8 o        1.609    -0.680    27.177     7.036
   488   1 h        0.805     0.315     0.677     1.293
   489   1 h        0.804     0.351     0.587     1.204
   490   8 o        1.607    -0.678    27.130     7.030
   491   1 h        0.802     0.339     0.614     1.231
   492   1 h        0.804     0.335     0.625     1.242
   493   8 o        1.608    -0.670    26.927     7.004
   494   1 h        0.804     0.343     0.606     1.223
   495   1 h        0.804     0.336     0.621     1.238
   496   8 o        1.604    -0.724    28.353     7.186
   497   1 h        0.802     0.355     0.578     1.194
   498   1 h        0.803     0.361     0.564     1.179
   499   8 o        1.608    -0.679    27.164     7.034
   500   1 h        0.804     0.334     0.628     1.244
   501   1 h        0.804     0.339     0.615     1.232
   502   8 o        1.608    -0.664    26.767     6.983
   503   1 h        0.803     0.336     0.621     1.238
   504   1 h        0.805     0.324     0.653     1.269
   505   8 o        1.608    -0.689    27.429     7.068
   506   1 h        0.804     0.344     0.602     1.218
   507   1 h        0.804     0.350     0.589     1.205
   508   8 o        1.609    -0.664    26.781     6.985
   509   1 h        0.804     0.363     0.559     1.174
   510   1 h        0.805     0.314     0.679     1.295
   511   8 o        1.608    -0.664    26.771     6.983
   512   1 h        0.804     0.344     0.604     1.220
   513   1 h        0.804     0.320     0.664     1.280
   514   8 o        1.608    -0.673    27.014     7.015
   515   1 h        0.805     0.331     0.635     1.252
   516   1 h        0.803     0.348     0.593     1.210
   517   8 o        1.607    -0.679    27.151     7.033
   518   1 h        0.803     0.358     0.571     1.187
   519   1 h        0.804     0.347     0.596     1.213
   520   8 o        1.608    -0.669    26.889     6.999
   521   1 h        0.805     0.327     0.646     1.262
   522   1 h        0.803     0.346     0.598     1.215
   523   8 o        1.608    -0.655    26.549     6.954
   524   1 h        0.803     0.335     0.624     1.241
   525   1 h        0.805     0.317     0.672     1.287
   526   8 o        1.603    -0.715    28.122     7.157
   527   1 h        0.802     0.357     0.572     1.188
   528   1 h        0.804     0.329     0.639     1.256
   529   8 o        1.608    -0.689    27.429     7.068
   530   1 h        0.805     0.332     0.631     1.248
   531   1 h        0.803     0.343     0.605     1.222
   532   8 o        1.607    -0.684    27.285     7.050
   533   1 h        0.804     0.337     0.621     1.237
   534   1 h        0.803     0.328     0.641     1.258
   535   8 o        1.608    -0.666    26.813     6.989
   536   1 h        0.806     0.317     0.672     1.287
   537   1 h        0.802     0.354     0.579     1.195
   538   8 o        1.609    -0.677    27.093     7.025
   539   1 h        0.804     0.361     0.563     1.179
   540   1 h        0.805     0.325     0.652     1.268
   541   8 o        1.608    -0.672    26.988     7.011
   542   1 h        0.803     0.348     0.593     1.210
   543   1 h        0.805     0.317     0.673     1.289
   544   8 o        1.607    -0.688    27.390     7.063
   545   1 h        0.803     0.356     0.576     1.192
   546   1 h        0.804     0.332     0.632     1.249
   547   8 o        1.607    -0.704    27.830     7.120
   548   1 h        0.803     0.332     0.631     1.248
   549   1 h        0.804     0.335     0.624     1.241
   550   8 o        1.609    -0.650    26.408     6.936
   551   1 h        0.803     0.345     0.600     1.217
   552   1 h        0.806     0.315     0.676     1.292
   553   8 o        1.606    -0.668    26.878     6.997
   554   1 h        0.805     0.310     0.690     1.305
   555   1 h        0.801     0.345     0.601     1.218
   556   8 o        1.607    -0.676    27.082     7.024
   557   1 h        0.802     0.361     0.564     1.180
   558   1 h        0.805     0.320     0.663     1.279
   559   8 o        1.607    -0.691    27.467     7.073
   560   1 h        0.804     0.325     0.651     1.268
   561   1 h        0.803     0.354     0.580     1.196
   562   8 o        1.607    -0.681    27.211     7.040
   563   1 h        0.803     0.336     0.623     1.240
   564   1 h        0.804     0.334     0.628     1.245
   565   8 o        1.607    -0.673    27.007     7.014
   566   1 h        0.803     0.331     0.635     1.252
   567   1 h        0.804     0.336     0.623     1.239
   568   8 o        1.607    -0.670    26.923     7.003
   569   1 h        0.802     0.353     0.583     1.199
   570   1 h        0.806     0.309     0.694     1.308
   571   8 o        1.608    -0.678    27.131     7.030
   572   1 h        0.805     0.314     0.679     1.294
   573   1 h        0.802     0.367     0.550     1.165
   574   8 o        1.608    -0.665    26.805     6.988
   575   1 h        0.805     0.348     0.592     1.209
   576   1 h        0.803     0.340     0.613     1.230
   577   8 o        1.607    -0.684    27.295     7.051
   578   1 h        0.803     0.362     0.561     1.177
   579   1 h        0.804     0.321     0.661     1.277
   580   8 o        1.607    -0.694    27.544     7.083
   581   1 h        0.804     0.333     0.628     1.245
   582   1 h        0.803     0.365     0.555     1.170
   583   8 o        1.609    -0.672    26.976     7.010
   584   1 h        0.804     0.341     0.610     1.227
   585   1 h        0.805     0.343     0.605     1.222
   586   8 o        1.603    -0.718    28.208     7.168
   587   1 h        0.803     0.344     0.602     1.219
   588   1 h        0.803     0.360     0.566     1.182
   589   8 o        1.608    -0.681    27.214     7.041
   590   1 h        0.804     0.337     0.619     1.236
   591   1 h        0.804     0.337     0.620     1.236
   592   8 o        1.607    -0.675    27.065     7.021
   593   1 h        0.805     0.322     0.658     1.275
   594   1 h        0.803     0.354     0.578     1.195
   595   8 o        1.607    -0.684    27.301     7.052
   596   1 h        0.804     0.333     0.630     1.247
   597   1 h        0.803     0.342     0.608     1.225
   598   8 o        1.610    -0.654    26.510     6.949
   599   1 h        0.805     0.334     0.627     1.244
   600   1 h        0.805     0.325     0.650     1.266
   601   8 o        1.608    -0.680    27.176     7.036
   602   1 h        0.804     0.347     0.596     1.213
   603   1 h        0.804     0.329     0.641     1.258
   604   8 o        1.607    -0.665    26.800     6.987
   605   1 h        0.805     0.315     0.678     1.293
   606   1 h        0.802     0.370     0.543     1.158
   607   8 o        1.607    -0.682    27.242     7.044
   608   1 h        0.804     0.326     0.648     1.264
   609   1 h        0.803     0.335     0.624     1.241
   610   8 o        1.606    -0.696    27.602     7.091
   611   1 h        0.803     0.333     0.630     1.247
   612   1 h        0.803     0.361     0.563     1.179
   613   8 o        1.609    -0.691    27.483     7.076
   614   1 h        0.804     0.329     0.641     1.257
   615   1 h        0.804     0.351     0.586     1.203
   616   8 o        1.609    -0.670    26.926     7.003
   617   1 h        0.804     0.347     0.595     1.212
   618   1 h        0.805     0.335     0.626     1.242
   619   8 o        1.608    -0.674    27.035     7.017
   620   1 h        0.804     0.327     0.646     1.263
   621   1 h        0.804     0.358     0.571     1.187
   622   8 o        1.606    -0.683    27.275     7.049
   623   1 h        0.803     0.361     0.563     1.179
   624   1 h        0.803     0.328     0.644     1.260
   625   8 o        1.606    -0.664    26.780     6.984
   626   1 h        0.806     0.309     0.695     1.309
   627   1 h        0.801     0.353     0.582     1.198
   628   8 o        1.608    -0.691    27.484     7.076
   629   1 h        0.803     0.354     0.579     1.195
   630   1 h        0.805     0.325     0.651     1.267
   631   8 o        1.607    -0.680    27.173     7.035
   632   1 h        0.803     0.353     0.582     1.199
   633   1 h        0.804     0.325     0.650     1.266
   634   8 o        1.607    -0.665    26.806     6.988
   635   1 h        0.806     0.315     0.678     1.294
   636   1 h        0.802     0.347     0.595     1.212
   637   8 o        1.609    -0.688    27.390     7.063
   638   1 h        0.804     0.360     0.566     1.182
   639   1 h        0.805     0.322     0.660     1.276
   640   8 o        1.609    -0.684    27.280     7.049
   641   1 h        0.805     0.320     0.664     1.280
   642   1 h        0.804     0.346     0.599     1.216
   643   8 o        1.607    -0.681    27.206     7.040
   644   1 h        0.803     0.367     0.550     1.165
   645   1 h        0.804     0.326     0.648     1.265
   646   8 o        1.609    -0.640    26.176     6.905
   647   1 h        0.806     0.321     0.661     1.277
   648   1 h        0.804     0.343     0.605     1.222
   649   8 o        1.605    -0.678    27.131     7.030
   650   1 h        0.801     0.338     0.617     1.234
   651   1 h        0.804     0.335     0.624     1.241
   652   8 o        1.609    -0.659    26.646     6.967
   653   1 h        0.805     0.319     0.665     1.281
   654   1 h        0.803     0.341     0.610     1.227
   655   8 o        1.609    -0.676    27.068     7.022
   656   1 h        0.803     0.347     0.596     1.213
   657   1 h        0.805     0.326     0.649     1.265
   658   8 o        1.607    -0.697    27.624     7.093
   659   1 h        0.804     0.365     0.555     1.171
   660   1 h        0.804     0.357     0.572     1.189
   661   8 o        1.607    -0.678    27.136     7.031
   662   1 h        0.803     0.331     0.636     1.252
   663   1 h        0.804     0.359     0.569     1.185
   664   8 o        1.607    -0.685    27.322     7.055
   665   1 h        0.803     0.339     0.614     1.231
   666   1 h        0.803     0.338     0.618     1.235
   667   8 o        1.606    -0.705    27.847     7.122
   668   1 h        0.802     0.358     0.570     1.186
   669   1 h        0.804     0.340     0.611     1.228
   670   8 o        1.606    -0.700    27.710     7.105
   671   1 h        0.803     0.365     0.554     1.170
   672   1 h        0.804     0.322     0.658     1.274
   673   8 o        1.608    -0.702    27.763     7.111
   674   1 h        0.804     0.351     0.587     1.203
   675   1 h        0.803     0.343     0.604     1.221
   676   8 o        1.609    -0.676    27.068     7.022
   677   1 h        0.805     0.345     0.599     1.216
   678   1 h        0.804     0.364     0.557     1.173
   679   8 o        1.610    -0.662    26.718     6.976
   680   1 h        0.804     0.359     0.568     1.184
   681   1 h        0.805     0.333     0.631     1.247
   682   8 o        1.608    -0.662    26.710     6.975
   683   1 h        0.803     0.336     0.622     1.239
   684   1 h        0.805     0.323     0.657     1.273
   685   8 o        1.607    -0.682    27.241     7.044
   686   1 h        0.803     0.345     0.600     1.217
   687   1 h        0.804     0.342     0.608     1.225
   688   8 o        1.609    -0.673    27.006     7.014
   689   1 h        0.804     0.335     0.624     1.241
   690   1 h        0.804     0.336     0.621     1.238
   691   8 o        1.609    -0.664    26.783     6.985
   692   1 h        0.804     0.334     0.627     1.244
   693   1 h        0.805     0.331     0.636     1.252
   694   8 o        1.607    -0.682    27.246     7.045
   695   1 h        0.803     0.353     0.581     1.197
   696   1 h        0.805     0.352     0.585     1.201
   697   8 o        1.604    -0.701    27.752     7.110
   698   1 h        0.802     0.366     0.553     1.168
   699   1 h        0.803     0.345     0.600     1.216
   700   8 o        1.608    -0.675    27.065     7.021
   701   1 h        0.805     0.334     0.628     1.244
   702   1 h        0.804     0.345     0.600     1.217
   703   8 o        1.608    -0.681    27.212     7.040
   704   1 h        0.804     0.336     0.621     1.238
   705   1 h        0.804     0.341     0.611     1.228
   706   8 o        1.610    -0.640    26.172     6.905
   707   1 h        0.806     0.306     0.703     1.317
   708   1 h        0.804     0.349     0.590     1.206
   709   8 o        1.609    -0.678    27.126     7.029
   710   1 h        0.803     0.350     0.588     1.204
   711   1 h        0.805     0.328     0.641     1.258
   712   8 o        1.608    -0.691    27.462     7.073
   713   1 h        0.805     0.329     0.640     1.257
   714   1 h        0.803     0.339     0.614     1.231
   715   8 o        1.606    -0.695    27.582     7.088
   716   1 h        0.803     0.346     0.598     1.215
   717   1 h        0.803     0.345     0.601     1.218
   718   8 o        1.608    -0.714    28.089     7.153
   719   1 h        0.804     0.343     0.605     1.222
   720   1 h        0.804     0.357     0.571     1.187
   721   8 o        1.608    -0.663    26.744     6.980
   722   1 h        0.803     0.335     0.624     1.241
   723   1 h        0.805     0.317     0.671     1.286
   724   8 o        1.607    -0.672    26.989     7.012
   725   1 h        0.803     0.330     0.637     1.254
   726   1 h        0.804     0.330     0.636     1.253
   727   8 o        1.607    -0.704    27.816     7.118
   728   1 h        0.803     0.350     0.588     1.205
   729   1 h        0.804     0.330     0.637     1.254
   730   8 o        1.608    -0.671    26.953     7.007
   731   1 h        0.806     0.311     0.688     1.303
   732   1 h        0.802     0.361     0.564     1.180
   733   8 o        1.607    -0.690    27.447     7.071
   734   1 h        0.802     0.354     0.580     1.197
   735   1 h        0.805     0.317     0.671     1.286
   736   8 o        1.607    -0.689    27.412     7.066
   737   1 h        0.804     0.344     0.602     1.219
   738   1 h        0.803     0.334     0.628     1.245
   739   8 o        1.607    -0.697    27.637     7.095
   740   1 h        0.803     0.339     0.614     1.231
   741   1 h        0.804     0.343     0.606     1.223
   742   8 o        1.610    -0.672    26.980     7.010
   743   1 h        0.805     0.332     0.633     1.250
   744   1 h        0.805     0.350     0.587     1.204
   745   8 o        1.608    -0.665    26.792     6.986
   746   1 h        0.804     0.341     0.609     1.226
   747   1 h        0.804     0.342     0.607     1.224
   748   8 o        1.609    -0.666    26.822     6.990
   749   1 h        0.804     0.327     0.646     1.262
   750   1 h        0.805     0.328     0.643     1.260
   751   8 o        1.606    -0.670    26.939     7.005
   752   1 h        0.802     0.364     0.557     1.173
   753   1 h        0.805     0.327     0.644     1.261
   754   8 o        1.610    -0.677    27.102     7.026
   755   1 h        0.805     0.329     0.640     1.257
   756   1 h        0.804     0.344     0.603     1.220

 Mol. C6AA /au·bohr⁶  :    2900276.200126
 Mol. C8AA /au·bohr⁸  :   52629449.121411
 Mol. α(0) /au        :       2393.346043


Wiberg/Mayer (AO) data.
largest (>0.10) Wiberg bond orders for each atom

 ---------------------------------------------------------------------------
     #   Z sym  total        # sym  WBO       # sym  WBO       # sym  WBO
 ---------------------------------------------------------------------------
     1   8 o    1.838 --     3 h    0.845     2 h    0.839
     2   1 h    0.884 --     1 o    0.839
     3   1 h    0.888 --     1 o    0.845
     4   8 o    1.868 --     6 h    0.866     5 h    0.762
     5   1 h    0.868 --     4 o    0.762   220 o    0.103
     6   1 h    0.901 --     4 o    0.866
     7   8 o    1.876 --     8 h    0.835     9 h    0.822
     8   1 h    0.879 --     7 o    0.835
     9   1 h    0.877 --     7 o    0.822
    10   8 o    1.831 --    12 h    0.826    11 h    0.801
    11   1 h    0.877 --    10 o    0.801
    12   1 h    0.880 --    10 o    0.826
    13   8 o    1.846 --    15 h    0.832    14 h    0.789
    14   1 h    0.878 --    13 o    0.789
    15   1 h    0.885 --    13 o    0.832
    16   8 o    1.861 --    17 h    0.824    18 h    0.805
    17   1 h    0.873 --    16 o    0.824
    18   1 h    0.872 --    16 o    0.805
    19   8 o    1.853 --    21 h    0.812    20 h    0.807
    20   1 h    0.879 --    19 o    0.807
    21   1 h    0.883 --    19 o    0.812
    22   8 o    1.852 --    23 h    0.864    24 h    0.800
    23   1 h    0.881 --    22 o    0.864
    24   1 h    0.872 --    22 o    0.800
    25   8 o    1.846 --    27 h    0.843    26 h    0.835
    26   1 h    0.894 --    25 o    0.835
    27   1 h    0.888 --    25 o    0.843
    28   8 o    1.829 --    30 h    0.839    29 h    0.823
    29   1 h    0.879 --    28 o    0.823
    30   1 h    0.882 --    28 o    0.839
    31   8 o    1.858 --    32 h    0.865    33 h    0.789
    32   1 h    0.898 --    31 o    0.865
    33   1 h    0.867 --    31 o    0.789
    34   8 o    1.810 --    35 h    0.826    36 h    0.820
    35   1 h    0.886 --    34 o    0.826
    36   1 h    0.885 --    34 o    0.820
    37   8 o    1.846 --    39 h    0.851    38 h    0.813
    38   1 h    0.881 --    37 o    0.813
    39   1 h    0.898 --    37 o    0.851
    40   8 o    1.859 --    41 h    0.829    42 h    0.802
    41   1 h    0.881 --    40 o    0.829
    42   1 h    0.874 --    40 o    0.802
    43   8 o    1.845 --    45 h    0.832    44 h    0.790
    44   1 h    0.870 --    43 o    0.790
    45   1 h    0.884 --    43 o    0.832
    46   8 o    1.861 --    47 h    0.849    48 h    0.803
    47   1 h    0.883 --    46 o    0.849
    48   1 h    0.881 --    46 o    0.803
    49   8 o    1.838 --    50 h    0.899    51 h    0.796
    50   1 h    0.902 --    49 o    0.899
    51   1 h    0.873 --    49 o    0.796
    52   8 o    1.863 --    53 h    0.802    54 h    0.800
    53   1 h    0.878 --    52 o    0.802
    54   1 h    0.882 --    52 o    0.800
    55   8 o    1.797 --    56 h    0.857    57 h    0.824
    56   1 h    0.895 --    55 o    0.857
    57   1 h    0.888 --    55 o    0.824
    58   8 o    1.805 --    59 h    0.818    60 h    0.796
    59   1 h    0.879 --    58 o    0.818
    60   1 h    0.880 --    58 o    0.796
    61   8 o    1.854 --    63 h    0.844    62 h    0.814
    62   1 h    0.877 --    61 o    0.814
    63   1 h    0.893 --    61 o    0.844
    64   8 o    1.860 --    65 h    0.842    66 h    0.791
    65   1 h    0.890 --    64 o    0.842
    66   1 h    0.871 --    64 o    0.791
    67   8 o    1.890 --    69 h    0.856    68 h    0.795
    68   1 h    0.878 --    67 o    0.795
    69   1 h    0.880 --    67 o    0.856
    70   8 o    1.803 --    72 h    0.834    71 h    0.824
    71   1 h    0.887 --    70 o    0.824
    72   1 h    0.881 --    70 o    0.834
    73   8 o    1.853 --    75 h    0.870    74 h    0.808
    74   1 h    0.876 --    73 o    0.808
    75   1 h    0.893 --    73 o    0.870
    76   8 o    1.859 --    77 h    0.814    78 h    0.795
    77   1 h    0.885 --    76 o    0.814
    78   1 h    0.874 --    76 o    0.795
    79   8 o    1.836 --    81 h    0.834    80 h    0.799
    80   1 h    0.871 --    79 o    0.799
    81   1 h    0.897 --    79 o    0.834
    82   8 o    1.878 --    84 h    0.831    83 h    0.804
    83   1 h    0.874 --    82 o    0.804
    84   1 h    0.893 --    82 o    0.831
    85   8 o    1.829 --    86 h    0.829    87 h    0.813
    86   1 h    0.888 --    85 o    0.829
    87   1 h    0.874 --    85 o    0.813
    88   8 o    1.800 --    90 h    0.840    89 h    0.828
    89   1 h    0.887 --    88 o    0.828
    90   1 h    0.887 --    88 o    0.840
    91   8 o    1.829 --    93 h    0.870    92 h    0.835
    92   1 h    0.875 --    91 o    0.835
    93   1 h    0.895 --    91 o    0.870
    94   8 o    1.884 --    96 h    0.832    95 h    0.828
    95   1 h    0.885 --    94 o    0.828
    96   1 h    0.887 --    94 o    0.832
    97   8 o    1.856 --    99 h    0.829    98 h    0.798
    98   1 h    0.872 --    97 o    0.798
    99   1 h    0.880 --    97 o    0.829
   100   8 o    1.833 --   101 h    0.850   102 h    0.828
   101   1 h    0.887 --   100 o    0.850
   102   1 h    0.876 --   100 o    0.828
   103   8 o    1.886 --   104 h    0.845   105 h    0.785
   104   1 h    0.885 --   103 o    0.845
   105   1 h    0.871 --   103 o    0.785
   106   8 o    1.810 --   108 h    0.850   107 h    0.843
   107   1 h    0.888 --   106 o    0.843
   108   1 h    0.887 --   106 o    0.850
   109   8 o    1.872 --   110 h    0.838   111 h    0.821
   110   1 h    0.884 --   109 o    0.838
   111   1 h    0.882 --   109 o    0.821
   112   8 o    1.816 --   114 h    0.824   113 h    0.821
   113   1 h    0.886 --   112 o    0.821
   114   1 h    0.885 --   112 o    0.824
   115   8 o    1.855 --   117 h    0.812   116 h    0.803
   116   1 h    0.874 --   115 o    0.803
   117   1 h    0.883 --   115 o    0.812
   118   8 o    1.873 --   119 h    0.828   120 h    0.790
   119   1 h    0.896 --   118 o    0.828
   120   1 h    0.875 --   118 o    0.790
   121   8 o    1.824 --   123 h    0.861   122 h    0.826
   122   1 h    0.877 --   121 o    0.826
   123   1 h    0.892 --   121 o    0.861
   124   8 o    1.869 --   125 h    0.806   126 h    0.786
   125   1 h    0.870 --   124 o    0.806
   126   1 h    0.866 --   124 o    0.786
   127   8 o    1.840 --   129 h    0.809   128 h    0.794
   128   1 h    0.878 --   127 o    0.794
   129   1 h    0.876 --   127 o    0.809
   130   8 o    1.806 --   131 h    0.858   132 h    0.844
   131   1 h    0.890 --   130 o    0.858
   132   1 h    0.887 --   130 o    0.844
   133   8 o    1.847 --   135 h    0.844   134 h    0.789
   134   1 h    0.871 --   133 o    0.789
   135   1 h    0.891 --   133 o    0.844
   136   8 o    1.815 --   138 h    0.863   137 h    0.842
   137   1 h    0.883 --   136 o    0.842
   138   1 h    0.905 --   136 o    0.863
   139   8 o    1.894 --   141 h    0.796   140 h    0.793
   140   1 h    0.876 --   139 o    0.793
   141   1 h    0.876 --   139 o    0.796
   142   8 o    1.894 --   144 h    0.825   143 h    0.800
   143   1 h    0.875 --   142 o    0.800
   144   1 h    0.891 --   142 o    0.825
   145   8 o    1.835 --   147 h    0.853   146 h    0.838
   146   1 h    0.877 --   145 o    0.838
   147   1 h    0.890 --   145 o    0.853
   148   8 o    1.849 --   149 h    0.819   150 h    0.783
   149   1 h    0.885 --   148 o    0.819
   150   1 h    0.869 --   148 o    0.783
   151   8 o    1.879 --   153 h    0.833   152 h    0.815
   152   1 h    0.890 --   151 o    0.815
   153   1 h    0.891 --   151 o    0.833
   154   8 o    1.890 --   155 h    0.825   156 h    0.816
   155   1 h    0.877 --   154 o    0.825
   156   1 h    0.871 --   154 o    0.816
   157   8 o    1.813 --   159 h    0.865   158 h    0.839
   158   1 h    0.885 --   157 o    0.839
   159   1 h    0.890 --   157 o    0.865
   160   8 o    1.808 --   162 h    0.854   161 h    0.803
   161   1 h    0.881 --   160 o    0.803
   162   1 h    0.900 --   160 o    0.854
   163   8 o    1.800 --   165 h    0.835   164 h    0.817
   164   1 h    0.880 --   163 o    0.817
   165   1 h    0.888 --   163 o    0.835
   166   8 o    1.860 --   167 h    0.834   168 h    0.802
   167   1 h    0.895 --   166 o    0.834
   168   1 h    0.877 --   166 o    0.802
   169   8 o    1.857 --   170 h    0.801   171 h    0.780
   170   1 h    0.883 --   169 o    0.801
   171   1 h    0.880 --   169 o    0.780
   172   8 o    1.859 --   173 h    0.847   174 h    0.806
   173   1 h    0.898 --   172 o    0.847
   174   1 h    0.879 --   172 o    0.806
   175   8 o    1.879 --   176 h    0.833   177 h    0.826
   176   1 h    0.878 --   175 o    0.833
   177   1 h    0.891 --   175 o    0.826
   178   8 o    1.897 --   180 h    0.835   179 h    0.787
   179   1 h    0.868 --   178 o    0.787
   180   1 h    0.889 --   178 o    0.835
   181   8 o    1.850 --   182 h    0.846   183 h    0.817
   182   1 h    0.893 --   181 o    0.846
   183   1 h    0.869 --   181 o    0.817
   184   8 o    1.901 --   186 h    0.837   185 h    0.810
   185   1 h    0.873 --   184 o    0.810
   186   1 h    0.888 --   184 o    0.837
   187   8 o    1.830 --   189 h    0.879   188 h    0.821
   188   1 h    0.878 --   187 o    0.821
   189   1 h    0.895 --   187 o    0.879
   190   8 o    1.805 --   191 h    0.833   192 h    0.833
   191   1 h    0.889 --   190 o    0.833
   192   1 h    0.886 --   190 o    0.833
   193   8 o    1.911 --   195 h    0.828   194 h    0.789
   194   1 h    0.870 --   193 o    0.789
   195   1 h    0.878 --   193 o    0.828
   196   8 o    1.868 --   198 h    0.803   197 h    0.798
   197   1 h    0.871 --   196 o    0.798
   198   1 h    0.882 --   196 o    0.803
   199   8 o    1.860 --   200 h    0.838   201 h    0.803
   200   1 h    0.893 --   199 o    0.838
   201   1 h    0.873 --   199 o    0.803
   202   8 o    1.816 --   204 h    0.861   203 h    0.813
   203   1 h    0.876 --   202 o    0.813
   204   1 h    0.898 --   202 o    0.861
   205   8 o    1.894 --   206 h    0.803   207 h    0.790
   206   1 h    0.875 --   205 o    0.803
   207   1 h    0.876 --   205 o    0.790
   208   8 o    1.843 --   210 h    0.847   209 h    0.824
   209   1 h    0.879 --   208 o    0.824
   210   1 h    0.892 --   208 o    0.847
   211   8 o    1.808 --   212 h    0.834   213 h    0.818
   212   1 h    0.881 --   211 o    0.834
   213   1 h    0.895 --   211 o    0.818
   214   8 o    1.849 --   215 h    0.817   216 h    0.793
   215   1 h    0.876 --   214 o    0.817
   216   1 h    0.869 --   214 o    0.793
   217   8 o    1.843 --   219 h    0.833   218 h    0.816
   218   1 h    0.874 --   217 o    0.816
   219   1 h    0.883 --   217 o    0.833
   220   8 o    1.890 --   222 h    0.808   221 h    0.788     5 h    0.103
   221   1 h    0.870 --   220 o    0.788
   222   1 h    0.880 --   220 o    0.808
   223   8 o    1.843 --   225 h    0.843   224 h    0.817
   224   1 h    0.879 --   223 o    0.817
   225   1 h    0.886 --   223 o    0.843
   226   8 o    1.850 --   227 h    0.839   228 h    0.788
   227   1 h    0.887 --   226 o    0.839
   228   1 h    0.870 --   226 o    0.788
   229   8 o    1.872 --   231 h    0.818   230 h    0.791
   230   1 h    0.873 --   229 o    0.791
   231   1 h    0.880 --   229 o    0.818
   232   8 o    1.881 --   234 h    0.805   233 h    0.799
   233   1 h    0.872 --   232 o    0.799
   234   1 h    0.870 --   232 o    0.805
   235   8 o    1.887 --   237 h    0.832   236 h    0.809
   236   1 h    0.881 --   235 o    0.809
   237   1 h    0.893 --   235 o    0.832
   238   8 o    1.805 --   240 h    0.863   239 h    0.831
   239   1 h    0.886 --   238 o    0.831
   240   1 h    0.894 --   238 o    0.863
   241   8 o    1.853 --   243 h    0.873   242 h    0.800
   242   1 h    0.866 --   241 o    0.800
   243   1 h    0.896 --   241 o    0.873
   244   8 o    1.854 --   245 h    0.875   246 h    0.818
   245   1 h    0.897 --   244 o    0.875
   246   1 h    0.886 --   244 o    0.818
   247   8 o    1.867 --   249 h    0.850   248 h    0.814
   248   1 h    0.877 --   247 o    0.814
   249   1 h    0.893 --   247 o    0.850
   250   8 o    1.830 --   252 h    0.833   251 h    0.798
   251   1 h    0.874 --   250 o    0.798
   252   1 h    0.897 --   250 o    0.833
   253   8 o    1.832 --   254 h    0.820   255 h    0.809
   254   1 h    0.879 --   253 o    0.820
   255   1 h    0.878 --   253 o    0.809
   256   8 o    1.869 --   258 h    0.814   257 h    0.799
   257   1 h    0.870 --   256 o    0.799
   258   1 h    0.883 --   256 o    0.814
   259   8 o    1.798 --   261 h    0.839   260 h    0.821
   260   1 h    0.889 --   259 o    0.821
   261   1 h    0.893 --   259 o    0.839
   262   8 o    1.848 --   263 h    0.851   264 h    0.787
   263   1 h    0.892 --   262 o    0.851
   264   1 h    0.877 --   262 o    0.787
   265   8 o    1.833 --   266 h    0.858   267 h    0.838
   266   1 h    0.896 --   265 o    0.858
   267   1 h    0.891 --   265 o    0.838
   268   8 o    1.824 --   270 h    0.855   269 h    0.808
   269   1 h    0.875 --   268 o    0.808
   270   1 h    0.893 --   268 o    0.855
   271   8 o    1.854 --   273 h    0.852   272 h    0.801
   272   1 h    0.871 --   271 o    0.801
   273   1 h    0.883 --   271 o    0.852
   274   8 o    1.839 --   275 h    0.854   276 h    0.823
   275   1 h    0.899 --   274 o    0.854
   276   1 h    0.883 --   274 o    0.823
   277   8 o    1.838 --   279 h    0.822   278 h    0.819
   278   1 h    0.880 --   277 o    0.819
   279   1 h    0.878 --   277 o    0.822
   280   8 o    1.871 --   282 h    0.837   281 h    0.814
   281   1 h    0.877 --   280 o    0.814
   282   1 h    0.879 --   280 o    0.837
   283   8 o    1.867 --   284 h    0.875   285 h    0.850
   284   1 h    0.895 --   283 o    0.875
   285   1 h    0.886 --   283 o    0.850
   286   8 o    1.831 --   287 h    0.851   288 h    0.836
   287   1 h    0.893 --   286 o    0.851
   288   1 h    0.881 --   286 o    0.836
   289   8 o    1.824 --   290 h    0.847   291 h    0.816
   290   1 h    0.890 --   289 o    0.847
   291   1 h    0.876 --   289 o    0.816
   292   8 o    1.823 --   293 h    0.846   294 h    0.793
   293   1 h    0.898 --   292 o    0.846
   294   1 h    0.883 --   292 o    0.793
   295   8 o    1.886 --   297 h    0.856   296 h    0.791
   296   1 h    0.873 --   295 o    0.791
   297   1 h    0.877 --   295 o    0.856
   298   8 o    1.829 --   300 h    0.822   299 h    0.811
   299   1 h    0.884 --   298 o    0.811
   300   1 h    0.878 --   298 o    0.822
   301   8 o    1.888 --   302 h    0.815   303 h    0.808
   302   1 h    0.886 --   301 o    0.815
   303   1 h    0.865 --   301 o    0.808
   304   8 o    1.834 --   305 h    0.892   306 h    0.812
   305   1 h    0.898 --   304 o    0.892
   306   1 h    0.878 --   304 o    0.812
   307   8 o    1.861 --   309 h    0.793   308 h    0.788
   308   1 h    0.871 --   307 o    0.788
   309   1 h    0.878 --   307 o    0.793
   310   8 o    1.862 --   311 h    0.839   312 h    0.838
   311   1 h    0.884 --   310 o    0.839
   312   1 h    0.884 --   310 o    0.838
   313   8 o    1.827 --   315 h    0.905   314 h    0.807
   314   1 h    0.871 --   313 o    0.807
   315   1 h    0.907 --   313 o    0.905
   316   8 o    1.821 --   317 h    0.873   318 h    0.778
   317   1 h    0.899 --   316 o    0.873
   318   1 h    0.870 --   316 o    0.778
   319   8 o    1.869 --   320 h    0.793   321 h    0.782
   320   1 h    0.877 --   319 o    0.793
   321   1 h    0.871 --   319 o    0.782
   322   8 o    1.850 --   323 h    0.882   324 h    0.819
   323   1 h    0.896 --   322 o    0.882
   324   1 h    0.880 --   322 o    0.819
   325   8 o    1.803 --   327 h    0.841   326 h    0.841
   326   1 h    0.885 --   325 o    0.841
   327   1 h    0.886 --   325 o    0.841
   328   8 o    1.820 --   330 h    0.848   329 h    0.828
   329   1 h    0.899 --   328 o    0.828
   330   1 h    0.891 --   328 o    0.848
   331   8 o    1.823 --   333 h    0.869   332 h    0.837
   332   1 h    0.884 --   331 o    0.837
   333   1 h    0.889 --   331 o    0.869
   334   8 o    1.833 --   335 h    0.896   336 h    0.783
   335   1 h    0.905 --   334 o    0.896
   336   1 h    0.867 --   334 o    0.783
   337   8 o    1.826 --   338 h    0.851   339 h    0.823
   338   1 h    0.891 --   337 o    0.851
   339   1 h    0.885 --   337 o    0.823
   340   8 o    1.813 --   342 h    0.829   341 h    0.808
   341   1 h    0.884 --   340 o    0.808
   342   1 h    0.900 --   340 o    0.829
   343   8 o    1.850 --   345 h    0.839   344 h    0.816
   344   1 h    0.870 --   343 o    0.816
   345   1 h    0.894 --   343 o    0.839
   346   8 o    1.813 --   348 h    0.846   347 h    0.832
   347   1 h    0.878 --   346 o    0.832
   348   1 h    0.897 --   346 o    0.846
   349   8 o    1.884 --   351 h    0.839   350 h    0.823
   350   1 h    0.892 --   349 o    0.823
   351   1 h    0.894 --   349 o    0.839
   352   8 o    1.812 --   353 h    0.892   354 h    0.806
   353   1 h    0.901 --   352 o    0.892
   354   1 h    0.868 --   352 o    0.806
   355   8 o    1.872 --   357 h    0.831   356 h    0.800
   356   1 h    0.872 --   355 o    0.800
   357   1 h    0.886 --   355 o    0.831
   358   8 o    1.871 --   360 h    0.898   359 h    0.796
   359   1 h    0.865 --   358 o    0.796
   360   1 h    0.904 --   358 o    0.898
   361   8 o    1.833 --   363 h    0.857   362 h    0.854
   362   1 h    0.885 --   361 o    0.854
   363   1 h    0.887 --   361 o    0.857
[...]
   370   8 o    1.841 --   372 h    0.882   371 h    0.809
   371   1 h    0.885 --   370 o    0.809
   372   1 h    0.897 --   370 o    0.882
   373   8 o    1.822 --   375 h    0.898   374 h    0.788
   374   1 h    0.874 --   373 o    0.788
   375   1 h    0.906 --   373 o    0.898
   376   8 o    1.844 --   378 h    0.830   377 h    0.808
   377   1 h    0.874 --   376 o    0.808
   378   1 h    0.883 --   376 o    0.830
   379   8 o    1.836 --   381 h    0.876   380 h    0.833
   380   1 h    0.885 --   379 o    0.833
   381   1 h    0.895 --   379 o    0.876
   382   8 o    1.830 --   384 h    0.861   383 h    0.783
   383   1 h    0.861 --   382 o    0.783
   384   1 h    0.895 --   382 o    0.861
   385   8 o    1.858 --   386 h    0.836   387 h    0.787
   386   1 h    0.891 --   385 o    0.836
   387   1 h    0.868 --   385 o    0.787
   388   8 o    1.792 --   389 h    0.882   390 h    0.805
   389   1 h    0.900 --   388 o    0.882
   390   1 h    0.882 --   388 o    0.805
   391   8 o    1.813 --   393 h    0.864   392 h    0.845
   392   1 h    0.886 --   391 o    0.845
   393   1 h    0.887 --   391 o    0.864
   394   8 o    1.889 --   396 h    0.831   395 h    0.793
   395   1 h    0.868 --   394 o    0.793
   396   1 h    0.880 --   394 o    0.831
   397   8 o    1.863 --   398 h    0.830   399 h    0.817
   398   1 h    0.890 --   397 o    0.830
   399   1 h    0.869 --   397 o    0.817
   400   8 o    1.870 --   402 h    0.828   401 h    0.821
   401   1 h    0.866 --   400 o    0.821
   402   1 h    0.887 --   400 o    0.828
   403   8 o    1.869 --   404 h    0.837   405 h    0.809   527 h    0.106
   404   1 h    0.886 --   403 o    0.837
   405   1 h    0.873 --   403 o    0.809
   406   8 o    1.844 --   407 h    0.823   408 h    0.817
   407   1 h    0.875 --   406 o    0.823
   408   1 h    0.883 --   406 o    0.817
   409   8 o    1.848 --   410 h    0.875   411 h    0.771
   410   1 h    0.896 --   409 o    0.875
   411   1 h    0.867 --   409 o    0.771
   412   8 o    1.859 --   413 h    0.852   414 h    0.779
   413   1 h    0.894 --   412 o    0.852
   414   1 h    0.871 --   412 o    0.779
   415   8 o    1.848 --   416 h    0.885   417 h    0.773
   416   1 h    0.902 --   415 o    0.885
   417   1 h    0.867 --   415 o    0.773
   418   8 o    1.840 --   419 h    0.848   420 h    0.838
   419   1 h    0.887 --   418 o    0.848
   420   1 h    0.883 --   418 o    0.838
   421   8 o    1.808 --   423 h    0.849   422 h    0.832
   422   1 h    0.886 --   421 o    0.832
   423   1 h    0.887 --   421 o    0.849
   424   8 o    1.810 --   425 h    0.898   426 h    0.789
   425   1 h    0.903 --   424 o    0.898
   426   1 h    0.872 --   424 o    0.789
   427   8 o    1.826 --   428 h    0.882   429 h    0.830
   428   1 h    0.896 --   427 o    0.882
   429   1 h    0.887 --   427 o    0.830
   430   8 o    1.821 --   432 h    0.872   431 h    0.841
   431   1 h    0.886 --   430 o    0.841
   432   1 h    0.894 --   430 o    0.872
   433   8 o    1.866 --   435 h    0.831   434 h    0.786
   434   1 h    0.871 --   433 o    0.786
   435   1 h    0.891 --   433 o    0.831
   436   8 o    1.847 --   437 h    0.862   438 h    0.831
   437   1 h    0.894 --   436 o    0.862
   438   1 h    0.886 --   436 o    0.831
   439   8 o    1.870 --   440 h    0.858   441 h    0.823
   440   1 h    0.892 --   439 o    0.858
   441   1 h    0.870 --   439 o    0.823
   442   8 o    1.821 --   444 h    0.849   443 h    0.823
   443   1 h    0.885 --   442 o    0.823
   444   1 h    0.890 --   442 o    0.849
   445   8 o    1.819 --   447 h    0.871   446 h    0.798
   446   1 h    0.870 --   445 o    0.798
   447   1 h    0.903 --   445 o    0.871
   448   8 o    1.797 --   450 h    0.862   449 h    0.823
   449   1 h    0.881 --   448 o    0.823
   450   1 h    0.894 --   448 o    0.862
   451   8 o    1.835 --   453 h    0.897   452 h    0.823
   452   1 h    0.873 --   451 o    0.823
   453   1 h    0.900 --   451 o    0.897
   454   8 o    1.815 --   456 h    0.847   455 h    0.843
   455   1 h    0.890 --   454 o    0.843
   456   1 h    0.891 --   454 o    0.847
   457   8 o    1.848 --   458 h    0.851   459 h    0.841
   458   1 h    0.888 --   457 o    0.851
   459   1 h    0.883 --   457 o    0.841
   460   8 o    1.811 --   462 h    0.857   461 h    0.829
   461   1 h    0.887 --   460 o    0.829
   462   1 h    0.892 --   460 o    0.857
   463   8 o    1.819 --   464 h    0.868   465 h    0.816
   464   1 h    0.896 --   463 o    0.868
   465   1 h    0.881 --   463 o    0.816
   466   8 o    1.859 --   468 h    0.845   467 h    0.805
   467   1 h    0.885 --   466 o    0.805
   468   1 h    0.892 --   466 o    0.845
   469   8 o    1.840 --   471 h    0.820   470 h    0.819
   470   1 h    0.885 --   469 o    0.819
   471   1 h    0.880 --   469 o    0.820
   472   8 o    1.835 --   474 h    0.852   473 h    0.850
   473   1 h    0.888 --   472 o    0.850
   474   1 h    0.893 --   472 o    0.852
   475   8 o    1.844 --   476 h    0.859   477 h    0.840
   476   1 h    0.883 --   475 o    0.859
   477   1 h    0.884 --   475 o    0.840
   478   8 o    1.851 --   480 h    0.881   479 h    0.811
   479   1 h    0.877 --   478 o    0.811
   480   1 h    0.902 --   478 o    0.881
   481   8 o    1.818 --   483 h    0.851   482 h    0.816
   482   1 h    0.875 --   481 o    0.816
   483   1 h    0.901 --   481 o    0.851
   484   8 o    1.830 --   486 h    0.885   485 h    0.799
   485   1 h    0.870 --   484 o    0.799
   486   1 h    0.902 --   484 o    0.885
   487   8 o    1.799 --   488 h    0.886   489 h    0.823
   488   1 h    0.901 --   487 o    0.886
   489   1 h    0.877 --   487 o    0.823
   490   8 o    1.833 --   492 h    0.849   491 h    0.820
   491   1 h    0.885 --   490 o    0.820
   492   1 h    0.888 --   490 o    0.849
   493   8 o    1.852 --   494 h    0.843   495 h    0.839
   494   1 h    0.883 --   493 o    0.843
   495   1 h    0.887 --   493 o    0.839
   496   8 o    1.844 --   497 h    0.780   498 h    0.771
   497   1 h    0.874 --   496 o    0.780
   498   1 h    0.870 --   496 o    0.771
   499   8 o    1.820 --   500 h    0.854   501 h    0.840
   500   1 h    0.889 --   499 o    0.854
   501   1 h    0.885 --   499 o    0.840
   502   8 o    1.824 --   504 h    0.873   503 h    0.834
   503   1 h    0.887 --   502 o    0.834
   504   1 h    0.895 --   502 o    0.873
   505   8 o    1.845 --   506 h    0.834   507 h    0.824
   506   1 h    0.881 --   505 o    0.834
   507   1 h    0.878 --   505 o    0.824
   508   8 o    1.842 --   510 h    0.867   509 h    0.824
   509   1 h    0.868 --   508 o    0.824
   510   1 h    0.901 --   508 o    0.867
   511   8 o    1.860 --   513 h    0.853   512 h    0.824
   512   1 h    0.882 --   511 o    0.824
   513   1 h    0.898 --   511 o    0.853
   514   8 o    1.834 --   515 h    0.863   516 h    0.825
   515   1 h    0.891 --   514 o    0.863
   516   1 h    0.879 --   514 o    0.825
   517   8 o    1.890 --   519 h    0.835   518 h    0.793
   518   1 h    0.872 --   517 o    0.793
   519   1 h    0.880 --   517 o    0.835
   520   8 o    1.856 --   521 h    0.856   522 h    0.808
   521   1 h    0.893 --   520 o    0.856
   522   1 h    0.880 --   520 o    0.808
   523   8 o    1.851 --   525 h    0.867   524 h    0.824
   524   1 h    0.887 --   523 o    0.824
   525   1 h    0.899 --   523 o    0.867
   526   8 o    1.816 --   528 h    0.836   527 h    0.756
   527   1 h    0.872 --   526 o    0.756   403 o    0.106
   528   1 h    0.891 --   526 o    0.836
   529   8 o    1.830 --   530 h    0.854   531 h    0.813
   530   1 h    0.889 --   529 o    0.854
   531   1 h    0.882 --   529 o    0.813
   532   8 o    1.813 --   533 h    0.843   534 h    0.836
   533   1 h    0.887 --   532 o    0.843
   534   1 h    0.892 --   532 o    0.836
   535   8 o    1.839 --   536 h    0.893   537 h    0.806
   536   1 h    0.899 --   535 o    0.893
   537   1 h    0.875 --   535 o    0.806
   538   8 o    1.840 --   540 h    0.866   539 h    0.826
   539   1 h    0.870 --   538 o    0.826
   540   1 h    0.895 --   538 o    0.866
   541   8 o    1.843 --   543 h    0.853   542 h    0.817
   542   1 h    0.879 --   541 o    0.817
   543   1 h    0.900 --   541 o    0.853
   544   8 o    1.843 --   546 h    0.839   545 h    0.823
   545   1 h    0.874 --   544 o    0.823
   546   1 h    0.890 --   544 o    0.839
   547   8 o    1.777 --   549 h    0.834   548 h    0.825
   548   1 h    0.889 --   547 o    0.825
   549   1 h    0.887 --   547 o    0.834
   550   8 o    1.838 --   552 h    0.897   551 h    0.829
   551   1 h    0.881 --   550 o    0.829
   552   1 h    0.900 --   550 o    0.897
   553   8 o    1.833 --   554 h    0.891   555 h    0.795
   554   1 h    0.904 --   553 o    0.891
   555   1 h    0.881 --   553 o    0.795
   556   8 o    1.850 --   558 h    0.881   557 h    0.780
   557   1 h    0.870 --   556 o    0.780
   558   1 h    0.897 --   556 o    0.881
   559   8 o    1.836 --   560 h    0.841   561 h    0.807
   560   1 h    0.895 --   559 o    0.841
   561   1 h    0.875 --   559 o    0.807
   562   8 o    1.835 --   564 h    0.841   563 h    0.830
   563   1 h    0.887 --   562 o    0.830
   564   1 h    0.889 --   562 o    0.841
   565   8 o    1.852 --   567 h    0.831   566 h    0.823
   566   1 h    0.890 --   565 o    0.823
   567   1 h    0.887 --   565 o    0.831
   568   8 o    1.831 --   570 h    0.899   569 h    0.792
   569   1 h    0.876 --   568 o    0.792
   570   1 h    0.904 --   568 o    0.899
   571   8 o    1.837 --   572 h    0.877   573 h    0.786
   572   1 h    0.901 --   571 o    0.877
   573   1 h    0.865 --   571 o    0.786
   574   8 o    1.876 --   575 h    0.847   576 h    0.821
   575   1 h    0.879 --   574 o    0.847
   576   1 h    0.885 --   574 o    0.821
   577   8 o    1.846 --   579 h    0.858   578 h    0.802
   578   1 h    0.869 --   577 o    0.802
   579   1 h    0.897 --   577 o    0.858
   580   8 o    1.832 --   581 h    0.849   582 h    0.809
   581   1 h    0.889 --   580 o    0.849
   582   1 h    0.867 --   580 o    0.809
   583   8 o    1.837 --   584 h    0.845   585 h    0.841
   584   1 h    0.884 --   583 o    0.845
   585   1 h    0.882 --   583 o    0.841
   586   8 o    1.855 --   588 h    0.797   587 h    0.779
   587   1 h    0.881 --   586 o    0.779
   588   1 h    0.870 --   586 o    0.797
   589   8 o    1.827 --   591 h    0.837   590 h    0.830
   590   1 h    0.886 --   589 o    0.830
   591   1 h    0.886 --   589 o    0.837
   592   8 o    1.865 --   593 h    0.867   594 h    0.784
   593   1 h    0.896 --   592 o    0.867
   594   1 h    0.874 --   592 o    0.784
   595   8 o    1.834 --   596 h    0.833   597 h    0.824
   596   1 h    0.889 --   595 o    0.833
   597   1 h    0.883 --   595 o    0.824
   598   8 o    1.827 --   600 h    0.872   599 h    0.844
   599   1 h    0.888 --   598 o    0.844
   600   1 h    0.894 --   598 o    0.872
   601   8 o    1.832 --   603 h    0.842   602 h    0.830
   602   1 h    0.880 --   601 o    0.830
   603   1 h    0.892 --   601 o    0.842
   604   8 o    1.873 --   605 h    0.886   606 h    0.781
   605   1 h    0.901 --   604 o    0.886
   606   1 h    0.863 --   604 o    0.781
   607   8 o    1.830 --   608 h    0.842   609 h    0.827
   608   1 h    0.894 --   607 o    0.842
   609   1 h    0.888 --   607 o    0.827
   610   8 o    1.861 --   611 h    0.826   612 h    0.794
   611   1 h    0.889 --   610 o    0.826
   612   1 h    0.870 --   610 o    0.794
   613   8 o    1.808 --   614 h    0.858   615 h    0.834
   614   1 h    0.892 --   613 o    0.858
   615   1 h    0.877 --   613 o    0.834
   616   8 o    1.838 --   618 h    0.864   617 h    0.842
   617   1 h    0.879 --   616 o    0.842
   618   1 h    0.888 --   616 o    0.864
   619   8 o    1.872 --   620 h    0.838   621 h    0.814
   620   1 h    0.893 --   619 o    0.838
   621   1 h    0.872 --   619 o    0.814
   622   8 o    1.886 --   624 h    0.821   623 h    0.798
   623   1 h    0.869 --   622 o    0.798
   624   1 h    0.893 --   622 o    0.821
   625   8 o    1.842 --   626 h    0.899   627 h    0.785
   626   1 h    0.905 --   625 o    0.899
   627   1 h    0.875 --   625 o    0.785
   628   8 o    1.814 --   630 h    0.860   629 h    0.809
   629   1 h    0.875 --   628 o    0.809
   630   1 h    0.894 --   628 o    0.860
   631   8 o    1.853 --   633 h    0.849   632 h    0.801
   632   1 h    0.876 --   631 o    0.801
   633   1 h    0.894 --   631 o    0.849
   634   8 o    1.833 --   635 h    0.896   636 h    0.800
   635   1 h    0.901 --   634 o    0.896
   636   1 h    0.879 --   634 o    0.800
   637   8 o    1.804 --   639 h    0.861   638 h    0.825
   638   1 h    0.870 --   637 o    0.825
   639   1 h    0.897 --   637 o    0.861
   640   8 o    1.793 --   641 h    0.866   642 h    0.832
   641   1 h    0.898 --   640 o    0.866
   642   1 h    0.881 --   640 o    0.832
   643   8 o    1.881 --   645 h    0.842   644 h    0.781
   644   1 h    0.865 --   643 o    0.781
   645   1 h    0.894 --   643 o    0.842
   646   8 o    1.866 --   647 h    0.890   648 h    0.831
   647   1 h    0.897 --   646 o    0.890
   648   1 h    0.882 --   646 o    0.831
   649   8 o    1.853 --   651 h    0.842   650 h    0.803
   650   1 h    0.885 --   649 o    0.803
   651   1 h    0.887 --   649 o    0.842
   652   8 o    1.861 --   653 h    0.863   654 h    0.819
   653   1 h    0.898 --   652 o    0.863
   654   1 h    0.884 --   652 o    0.819
   655   8 o    1.824 --   657 h    0.882   656 h    0.820
   656   1 h    0.880 --   655 o    0.820
   657   1 h    0.894 --   655 o    0.882
   658   8 o    1.867 --   660 h    0.809   659 h    0.803
   659   1 h    0.867 --   658 o    0.803
   660   1 h    0.873 --   658 o    0.809
   661   8 o    1.884 --   662 h    0.821   663 h    0.809
   662   1 h    0.891 --   661 o    0.821
   663   1 h    0.871 --   661 o    0.809
   664   8 o    1.849 --   665 h    0.824   666 h    0.823
   665   1 h    0.885 --   664 o    0.824
   666   1 h    0.886 --   664 o    0.823
   667   8 o    1.844 --   669 h    0.827   668 h    0.795
   668   1 h    0.872 --   667 o    0.795
   669   1 h    0.884 --   667 o    0.827
   670   8 o    1.832 --   672 h    0.841   671 h    0.792
   671   1 h    0.867 --   670 o    0.792
   672   1 h    0.896 --   670 o    0.841
   673   8 o    1.832 --   674 h    0.833   675 h    0.818
   674   1 h    0.877 --   673 o    0.833
   675   1 h    0.882 --   673 o    0.818
   676   8 o    1.867 --   677 h    0.844   678 h    0.820
   677   1 h    0.881 --   676 o    0.844
   678   1 h    0.868 --   676 o    0.820
   679   8 o    1.869 --   681 h    0.848   680 h    0.817
   680   1 h    0.871 --   679 o    0.817
   681   1 h    0.889 --   679 o    0.848
   682   8 o    1.839 --   684 h    0.871   683 h    0.814
   683   1 h    0.887 --   682 o    0.814
   684   1 h    0.896 --   682 o    0.871
   685   8 o    1.875 --   687 h    0.820   686 h    0.812
   686   1 h    0.881 --   685 o    0.812
   687   1 h    0.883 --   685 o    0.820
   688   8 o    1.843 --   690 h    0.838   689 h    0.833
   689   1 h    0.887 --   688 o    0.833
   690   1 h    0.887 --   688 o    0.838
   691   8 o    1.843 --   693 h    0.859   692 h    0.824
   692   1 h    0.888 --   691 o    0.824
   693   1 h    0.891 --   691 o    0.859
   694   8 o    1.872 --   696 h    0.840   695 h    0.797
   695   1 h    0.875 --   694 o    0.797
   696   1 h    0.876 --   694 o    0.840
   697   8 o    1.875 --   699 h    0.807   698 h    0.776
   698   1 h    0.866 --   697 o    0.776
   699   1 h    0.881 --   697 o    0.807
   700   8 o    1.841 --   701 h    0.855   702 h    0.821
   701   1 h    0.889 --   700 o    0.855
   702   1 h    0.881 --   700 o    0.821
   703   8 o    1.836 --   704 h    0.845   705 h    0.837
   704   1 h    0.887 --   703 o    0.845
   705   1 h    0.884 --   703 o    0.837
   706   8 o    1.853 --   707 h    0.900   708 h    0.827
   707   1 h    0.906 --   706 o    0.900
   708   1 h    0.878 --   706 o    0.827
   709   8 o    1.821 --   711 h    0.876   710 h    0.826
   710   1 h    0.877 --   709 o    0.826
   711   1 h    0.892 --   709 o    0.876
   712   8 o    1.803 --   713 h    0.857   714 h    0.818
   713   1 h    0.892 --   712 o    0.857
   714   1 h    0.885 --   712 o    0.818
   715   8 o    1.858 --   716 h    0.814   717 h    0.805
   716   1 h    0.880 --   715 o    0.814
   717   1 h    0.881 --   715 o    0.805
   718   8 o    1.829 --   719 h    0.799   720 h    0.798
   719   1 h    0.882 --   718 o    0.799
   720   1 h    0.872 --   718 o    0.798
   721   8 o    1.840 --   723 h    0.864   722 h    0.821
   722   1 h    0.887 --   721 o    0.821
   723   1 h    0.899 --   721 o    0.864
   724   8 o    1.841 --   726 h    0.834   725 h    0.824
   725   1 h    0.891 --   724 o    0.824
   726   1 h    0.891 --   724 o    0.834
   727   8 o    1.788 --   729 h    0.856   728 h    0.796
   728   1 h    0.877 --   727 o    0.796
   729   1 h    0.891 --   727 o    0.856
   730   8 o    1.830 --   731 h    0.892   732 h    0.795
   731   1 h    0.903 --   730 o    0.892
   732   1 h    0.870 --   730 o    0.795
   733   8 o    1.803 --   735 h    0.876   734 h    0.793
   734   1 h    0.875 --   733 o    0.793
   735   1 h    0.899 --   733 o    0.876
   736   8 o    1.824 --   737 h    0.836   738 h    0.823
   737   1 h    0.882 --   736 o    0.836
   738   1 h    0.889 --   736 o    0.823
   739   8 o    1.828 --   741 h    0.824   740 h    0.819
   740   1 h    0.885 --   739 o    0.819
   741   1 h    0.882 --   739 o    0.824
   742   8 o    1.824 --   743 h    0.867   744 h    0.843
   743   1 h    0.890 --   742 o    0.867
   744   1 h    0.877 --   742 o    0.843
   745   8 o    1.869 --   746 h    0.839   747 h    0.827
   746   1 h    0.884 --   745 o    0.839
   747   1 h    0.883 --   745 o    0.827
   748   8 o    1.819 --   750 h    0.861   749 h    0.851
   749   1 h    0.893 --   748 o    0.851
   750   1 h    0.892 --   748 o    0.861
   751   8 o    1.860 --   753 h    0.883   752 h    0.788
   752   1 h    0.868 --   751 o    0.788
   753   1 h    0.893 --   751 o    0.883
   754   8 o    1.827 --   755 h    0.866   756 h    0.816
   755   1 h    0.892 --   754 o    0.866
   756   1 h    0.882 --   754 o    0.816
 ---------------------------------------------------------------------------

Topologies differ in total number of bonds
Writing topology from bond orders to xtbtopo.mol

molecular dipole:
                 x           y           z       tot (Debye)
 q only:        1.572       0.174       0.109
   full:        1.286       1.546       0.621       5.350
molecular quadrupole (traceless):
                xx          xy          yy          xz          yz          zz
 q only:      -16.130     -62.711     -21.065     -71.011     -43.631      37.195
  q+dip:      -29.119     -88.189     -23.560     -82.377     -64.295      52.680
   full:      -27.892     -88.482     -23.587     -81.624     -65.080      51.479


           -------------------------------------------------
          | TOTAL ENERGY            -1283.599574517267 Eh   |
          | GRADIENT NORM               0.093195475005 Eh/α |
          | HOMO-LUMO GAP               7.740573094530 eV   |
           -------------------------------------------------

------------------------------------------------------------------------
 * finished run on 2022/11/24 at 09:28:08.975     
------------------------------------------------------------------------
 total:
 * wall-time:     0 d,  0 h,  0 min, 22.449 sec
 *  cpu-time:     0 d,  0 h,  0 min, 36.409 sec
 * ratio c/w:     1.622 speedup
 SCF:
 * wall-time:     0 d,  0 h,  0 min, 21.406 sec
 *  cpu-time:     0 d,  0 h,  0 min, 34.678 sec
 * ratio c/w:     1.620 speedup

