      -----------------------------------------------------------      
     |                   =====================                   |     
     |                           x T B                           |     
     |                   =====================                   |     
     |                         S. Grimme                         |     
     |          Mulliken Center for Theoretical Chemistry        |     
     |                    University of Bonn                     |     
      -----------------------------------------------------------      

   * xtb version 6.5.1 (579679a) compiled by 'ehlert@majestix' on 2022-07-11

   xtb is free software: you can redistribute it and/or modify it under
   the terms of the GNU Lesser General Public License as published by
   the Free Software Foundation, either version 3 of the License, or
   (at your option) any later version.
   
   xtb is distributed in the hope that it will be useful,
   but WITHOUT ANY WARRANTY; without even the implied warranty of
   MERCHANTABILITY or FITNESS FOR A PARTICULAR PURPOSE.  See the
   GNU Lesser General Public License for more details.
   
   Cite this work as:
   * C. Bannwarth, E. Caldeweyher, S. Ehlert, A. Hansen, P. Pracht,
     J. Seibert, S. Spicher, S. Grimme, WIREs Comput. Mol. Sci., 2020, 11,
     e01493. DOI: 10.1002/wcms.1493
   
   for GFN2-xTB:
   * C. Bannwarth, S. Ehlert and S. Grimme., J. Chem. Theory Comput., 2019,
     15, 1652-1671. DOI: 10.1021/acs.jctc.8b01176
   for GFN1-xTB:
   * S. Grimme, C. Bannwarth, P. Shushkov, J. Chem. Theory Comput., 2017,
     13, 1989-2009. DOI: 10.1021/acs.jctc.7b00118
   for GFN0-xTB:
   * P. Pracht, E. Caldeweyher, S. Ehlert, S. Grimme, ChemRxiv, 2019, preprint.
     DOI: 10.26434/chemrxiv.8326202.v1
   for GFN-FF:
   * S. Spicher and S. Grimme, Angew. Chem. Int. Ed., 2020, 59, 15665-15673.
     DOI: 10.1002/anie.202004239
   
   for ALPB and GBSA implicit solvation:
   * S. Ehlert, M. Stahn, S. Spicher, S. Grimme, J. Chem. Theory Comput.,
     2021, 17, 4250-4261. DOI: 10.1021/acs.jctc.1c00471
   
   for DFT-D4:
   * E. Caldeweyher, C. Bannwarth and S. Grimme, J. Chem. Phys., 2017,
     147, 034112. DOI: 10.1063/1.4993215
   * E. Caldeweyher, S. Ehlert, A. Hansen, H. Neugebauer, S. Spicher,
     C. Bannwarth and S. Grimme, J. Chem. Phys., 2019, 150, 154122.
     DOI: 10.1063/1.5090222
   * E. Caldeweyher, J.-M. Mewes, S. Ehlert and S. Grimme, Phys. Chem. Chem. Phys.
     2020, 22, 8499-8512. DOI: 10.1039/D0CP00502A
   
   for sTDA-xTB:
   * S. Grimme and C. Bannwarth, J. Chem. Phys., 2016, 145, 054103.
     DOI: 10.1063/1.4959605
   
   in the mass-spec context:
   * V. Asgeirsson, C. Bauer and S. Grimme, Chem. Sci., 2017, 8, 4879.
     DOI: 10.1039/c7sc00601b
   * J. Koopman and S. Grimme, ACS Omega 2019, 4, 12, 15120-15133.
     DOI: 10.1021/acsomega.9b02011
   
   for metadynamics refer to:
   * S. Grimme, J. Chem. Theory Comput., 2019, 155, 2847-2862
     DOI: 10.1021/acs.jctc.9b00143
   
   for SPH calculations refer to:
   * S. Spicher and S. Grimme, J. Chem. Theory Comput., 2021, 17, 1701-1714
     DOI: 10.1021/acs.jctc.0c01306
   
   with help from (in alphabetical order)
   P. Atkinson, C. Bannwarth, F. Bohle, G. Brandenburg, E. Caldeweyher
   M. Checinski, S. Dohm, S. Ehlert, S. Ehrlich, I. Gerasimov, C. Hölzer
   A. Katbashev, J. Koopman, C. Lavigne, S. Lehtola, F. März, M. Müller,
   F. Musil, H. Neugebauer, J. Pisarek, C. Plett, P. Pracht, F. Pultar,
   J. Seibert, P. Shushkov, S. Spicher, M. Stahn, M. Steiner, T. Strunk,
   J. Stückrath, T. Rose, and J. Unsleber
   
 * started run on 2022/11/24 at 09:28:10.078     

           -------------------------------------------------
          |                Calculation Setup                |
           -------------------------------------------------

          program call               : xtb solvent_cluster.coord --gfn2 --sp --lmo --chrg 0
          hostname                   : cn0341
          coordinate file            : solvent_cluster.coord
          omp threads                :                     2

   ID    Z sym.   atoms
    1    8 o      1, 4, 7, 10, 13, 16, 19, 22, 25, 28, 31, 34, 37, 40, 43,
                  46, 49, 52, 55, 58, 61, 64, 67, 70, 73, 76, 79, 82, 85, 88,
                  91, 94, 97, 100, 103, 106, 109, 112, 115, 118, 121, 124,
                  127, 130, 133, 136, 139, 142, 145, 148, 151, 154, 157, 160,
                  163, 166, 169, 172, 175, 178, 181, 184, 187, 190, 193, 196,
                  199, 202, 205, 208, 211, 214, 217, 220, 223, 226, 229, 232,
                  235, 238, 241, 244, 247, 250, 253, 256, 259, 262, 265, 268,
                  271, 274, 277, 280, 283, 286, 289, 292, 295, 298, 301, 304,
                  307, 310, 313, 316, 319, 322, 325, 328, 331, 334, 337, 340,
                  343, 346, 349, 352, 355, 358, 361, 364, 367, 370, 373, 376,
                  379, 382, 385, 388, 391, 394, 397, 400, 403, 406, 409, 412,
                  415, 418, 421, 424, 427, 430, 433, 436, 439, 442, 445, 448,
                  451, 454, 457, 460, 463, 466, 469, 472, 475, 478, 481, 484,
                  487, 490, 493, 496, 499, 502, 505, 508, 511, 514, 517, 520,
                  523, 526, 529, 532, 535, 538, 541, 544, 547, 550, 553, 556,
                  559, 562, 565, 568, 571, 574, 577, 580, 583, 586, 589, 592,
                  595, 598, 601, 604, 607, 610, 613, 616, 619, 622, 625, 628,
                  631, 634, 637, 640, 643, 646, 649, 652, 655, 658, 661, 664,
                  667, 670, 673, 676, 679, 682, 685, 688, 691, 694, 697, 700,
                  703, 706, 709, 712, 715, 718, 721, 724, 727, 730, 733, 736,
                  739, 742, 745, 748, 751, 754
    2    1 h      2, 3, 5, 6, 8, 9, 11, 12, 14, 15, 17, 18, 20, 21, 23, 24,
                  26, 27, 29, 30, 32, 33, 35, 36, 38, 39, 41, 42, 44, 45, 47,
                  48, 50, 51, 53, 54, 56, 57, 59, 60, 62, 63, 65, 66, 68, 69,
                  71, 72, 74, 75, 77, 78, 80, 81, 83, 84, 86, 87, 89, 90, 92,
                  93, 95, 96, 98, 99, 101, 102, 104, 105, 107, 108, 110, 111,
                  113, 114, 116, 117, 119, 120, 122, 123, 125, 126, 128, 129,
                  131, 132, 134, 135, 137, 138, 140, 141, 143, 144, 146, 147,
                  149, 150, 152, 153, 155, 156, 158, 159, 161, 162, 164, 165,
                  167, 168, 170, 171, 173, 174, 176, 177, 179, 180, 182, 183,
                  185, 186, 188, 189, 191, 192, 194, 195, 197, 198, 200, 201,
                  203, 204, 206, 207, 209, 210, 212, 213, 215, 216, 218, 219,
                  221, 222, 224, 225, 227, 228, 230, 231, 233, 234, 236, 237,
                  239, 240, 242, 243, 245, 246, 248, 249, 251, 252, 254, 255,
                  257, 258, 260, 261, 263, 264, 266, 267, 269, 270, 272, 273,
                  275, 276, 278, 279, 281, 282, 284, 285, 287, 288, 290, 291,
                  293, 294, 296, 297, 299, 300, 302, 303, 305, 306, 308, 309,
                  311, 312, 314, 315, 317, 318, 320, 321, 323, 324, 326, 327,
                  329, 330, 332, 333, 335, 336, 338, 339, 341, 342, 344, 345,
                  347, 348, 350, 351, 353, 354, 356, 357, 359, 360, 362, 363,
                  365, 366, 368, 369, 371, 372, 374, 375, 377, 378, 380, 381,
                  383, 384, 386, 387, 389, 390, 392, 393, 395, 396, 398, 399,
                  401, 402, 404, 405, 407, 408, 410, 411, 413, 414, 416, 417,
                  419, 420, 422, 423, 425, 426, 428, 429, 431, 432, 434, 435,
                  437, 438, 440, 441, 443, 444, 446, 447, 449, 450, 452, 453,
                  455, 456, 458, 459, 461, 462, 464, 465, 467, 468, 470, 471,
                  473, 474, 476, 477, 479, 480, 482, 483, 485, 486, 488, 489,
                  491, 492, 494, 495, 497, 498, 500, 501, 503, 504, 506, 507,
                  509, 510, 512, 513, 515, 516, 518, 519, 521, 522, 524, 525,
                  527, 528, 530, 531, 533, 534, 536, 537, 539, 540, 542, 543,
                  545, 546, 548, 549, 551, 552, 554, 555, 557, 558, 560, 561,
                  563, 564, 566, 567, 569, 570, 572, 573, 575, 576, 578, 579,
                  581, 582, 584, 585, 587, 588, 590, 591, 593, 594, 596, 597,
                  599, 600, 602, 603, 605, 606, 608, 609, 611, 612, 614, 615,
                  617, 618, 620, 621, 623, 624, 626, 627, 629, 630, 632, 633,
                  635, 636, 638, 639, 641, 642, 644, 645, 647, 648, 650, 651,
                  653, 654, 656, 657, 659, 660, 662, 663, 665, 666, 668, 669,
                  671, 672, 674, 675, 677, 678, 680, 681, 683, 684, 686, 687,
                  689, 690, 692, 693, 695, 696, 698, 699, 701, 702, 704, 705,
                  707, 708, 710, 711, 713, 714, 716, 717, 719, 720, 722, 723,
                  725, 726, 728, 729, 731, 732, 734, 735, 737, 738, 740, 741,
                  743, 744, 746, 747, 749, 750, 752, 753, 755, 756

molecular fragmentation (1/2 indicates fragments):
111222222222222222222222222222222222222222222222222222222222222222222222
222222222222222222222222222222222222222222222222222222222222222222222222
222222222222222222222222222222222222222222222222222222222222222222222222
222222222222222222222222222222222222222222222222222222222222222222222222
222222222222222222222222222222222222222222222222222222222222222222222222
222222222222222222222222222222222222222222222222222222222222222222222222
222222222222222222222222222222222222222222222222222222222222222222222222
222222222222222222222222222222222222222222222222222222222222222222222222
222222222222222222222222222222222222222222222222222222222222222222222222
222222222222222222222222222222222222222222222222222222222222222222222222
222222222222222222222222222222222222
# atoms in fragment 1/2:     3   753
 fragment masses (1/2) :       18.02     4521.84
CMA distance (Bohr)    :  19.231
constraining FC (au)   :  0.0500

           -------------------------------------------------
          |                 G F N 2 - x T B                 |
           -------------------------------------------------

        Reference                      10.1021/acs.jctc.8b01176
      * Hamiltonian:
        H0-scaling (s, p, d)           1.850000    2.230000    2.230000
        zeta-weighting                 0.500000
      * Dispersion:
        s8                             2.700000
        a1                             0.520000
        a2                             5.000000
        s9                             5.000000
      * Repulsion:
        kExp                           1.500000    1.000000
        rExp                           1.000000
      * Coulomb:
        alpha                          2.000000
        third order                    shell-resolved
        anisotropic                    true
        a3                             3.000000
        a5                             4.000000
        cn-shift                       1.200000
        cn-exp                         4.000000
        max-rad                        5.000000


          ...................................................
          :                      SETUP                      :
          :.................................................:
          :  # basis functions                1512          :
          :  # atomic orbitals                1512          :
          :  # shells                         1008          :
          :  # electrons                      2016          :
          :  max. iterations                   250          :
          :  Hamiltonian                  GFN2-xTB          :
          :  restarted?                      false          :
          :  GBSA solvation                  false          :
          :  PC potential                    false          :
          :  electronic temp.          300.0000000     K    :
          :  accuracy                    1.0000000          :
          :  -> integral cutoff          0.2500000E+02      :
          :  -> integral neglect         0.1000000E-07      :
          :  -> SCF convergence          0.1000000E-05 Eh   :
          :  -> wf. convergence          0.1000000E-03 e    :
          :  Broyden damping             0.4000000          :
          ...................................................

 iter      E             dE          RMSdq      gap      omega  full diag
   1  -1291.0106007 -0.129101E+04  0.406E+00    8.51       0.0  T
   2  -1291.0804236 -0.698229E-01  0.241E+00    8.05       1.0  T
   3  -1291.1111622 -0.307386E-01  0.206E-01    7.02       1.0  T
   4  -1291.1160942 -0.493198E-02  0.450E-02    7.30       1.0  T
   5  -1291.1161590 -0.648566E-04  0.304E-02    7.27       1.0  T
   6  -1291.1161958 -0.367961E-04  0.393E-03    7.29       1.0  T
   7  -1291.1161978 -0.195960E-05  0.776E-04    7.29       4.7  T
   8  -1291.1161978 -0.358420E-07  0.394E-04    7.29       9.2  T
   9  -1291.1161978 -0.152238E-07  0.619E-05    7.29      58.7  T

   *** convergence criteria satisfied after 9 iterations ***

         #    Occupation            Energy/Eh            Energy/eV
      -------------------------------------------------------------
         1        2.0000           -0.6855678             -18.6553
       ...           ...                  ...                  ...
      1002        2.0000           -0.4025663             -10.9544
      1003        2.0000           -0.4018523             -10.9350
      1004        2.0000           -0.4008728             -10.9083
      1005        2.0000           -0.3987972             -10.8518
      1006        2.0000           -0.3962944             -10.7837
      1007        2.0000           -0.3923862             -10.6774
      1008        2.0000           -0.3768935             -10.2558 (HOMO)
      1009                         -0.1090646              -2.9678 (LUMO)
      1010                         -0.0880483              -2.3959
      1011                         -0.0821289              -2.2348
      1012                         -0.0805551              -2.1920
      1013                         -0.0723220              -1.9680
       ...                                ...                  ...
      1512                          0.4394292              11.9575
      -------------------------------------------------------------
                  HL-Gap            0.2678290 Eh            7.2880 eV
             Fermi-level           -0.2429791 Eh           -6.6118 eV
 
 localization/xTB-IFF output generation
 averaging CT terms over            1  occ. levels
 averaging CT terms over            1  virt. levels
 dipole moment from electron density (au)
     X       Y       Z   
   1.1419   1.3792   0.6055  total (Debye):    4.804
cpu  time for init local    0.78 s
wall time for init local    0.39 s
 doing rotations ...
 initialization of trafo matrix to unity

 converged in     17 iterations, threshold :   0.99998631D-06
 doing transformations ...
 lmo centers(Z=2) and atoms on file <lmocent.coord>
 LMO Fii/eV  ncent    charge center   contributions...
    1 LP   *******   0.00 -23.77399   0.03536   8.97069  361O : 45.31  436O : 31.71  736O : 27.60  460O : 27.21   37O : 24.13  130O : 23.94  505O : 21.70  178O : 21.49  694O : 18.93  169O : 17.62  547O : 17.55  238O : 17.44
   73O : 16.79  700O : 16.64  391O : 16.58  418O : 16.55  520O : 16.51  676O : 16.17  622O : 15.60  703O : 15.37  307O : 15.18  184O : 14.68  379O : 14.53   61O : 14.38
  595O : 14.37  523O : 13.49  163O : 13.38  364O : 13.34   70O : 13.01  136O : 12.92  286O : 12.86  484O : 12.51   16O : 12.19  403O : 12.10  319O : 12.00  727O : 11.85
  592O : 11.83  250O : 11.81  253O : 11.78  232O : 11.76   88O : 11.63  187O : 11.55  160O : 11.49  493O : 11.45  544O : 11.44  475O : 11.37  199O : 11.23  172O : 11.19
  670O : 10.67  490O : 10.67  631O : 10.57   34O : 10.51  421O : 10.37  310O : 10.28  535O : 10.23   25O : 10.21  733O : 10.08   52O : 10.05    1O :  9.93  481O :  9.88
  580O :  9.73  352O :  9.73  202O :  9.53  499O :  9.52  553O :  9.41  151O :  9.40  583O :  9.36  472O :  9.34  739O :  9.23  277O :  9.17  469O :  9.16  589O :  9.14
  355O :  9.12  190O :  8.89  340O :  8.73  463O :  8.69  451O :  8.66  142O :  8.62  181O :  8.58  640O :  8.46  718O :  8.36  304O :  8.22  121O :  8.21  646O :  8.14
  466O :  8.10  205O :  8.09  346O :  8.06  301O :  7.98  376O :  7.84   19O :  7.75  358O :  7.70  610O :  7.69  754O :  7.52  316O :  7.45   43O :  7.43  448O :  7.42
  688O :  7.41  478O :  7.40  148O :  7.32  706O :  7.15  664O :  7.09   55O :  6.91  574O :  6.88  166O :  6.76  679O :  6.65  715O :  6.58  532O :  6.43  388O :  6.41
    4O :  6.33  124O :  6.22  454O :  6.19   97O :  6.17  424O :  6.10  541O :  6.08  577O :  6.06   94O :  6.01    7O :  5.99  658O :  5.97  343O :  5.96  487O :  5.91
  289O :  5.83  556O :  5.79  691O :  5.78  235O :  5.71  649O :  5.68  619O :  5.60  283O :  5.54  271O :  5.47  328O :  5.47  628O :  5.44  127O :  5.42  280O :  5.39
  724O :  5.24  511O :  5.22   85O :  5.15  334O :  5.15  586O :  5.09  241O :  4.98  211O :  4.92  106O :  4.91  745O :  4.77   67O :  4.64  217O :  4.60  193O :  4.57
  322O :  4.56  685O :  4.30  538O :  4.21  430O :  4.18  214O :  4.15  607O :  4.14  118O :  4.10  337O :  4.07  562O :  4.04  274O :  4.02  394O :  4.02  502O :  3.96
  295O :  3.94  247O :  3.92  265O :  3.78  625O :  3.77  226O :  3.77  604O :  3.68  433O :  3.68  730O :  3.67  385O :  3.64  598O :  3.59   22O :  3.59  655O :  3.51
  400O :  3.50  496O :  3.32  514O :  3.32  550O :  3.31  571O :  3.29  115O :  3.24  709O :  3.23  397O :  3.22  697O :  3.17  565O :  3.17  382O :  3.16  145O :  3.15
   91O :  3.14  109O :  3.09   64O :  3.09   13O :  3.05  634O :  2.93  738H :  2.91   82O :  2.90  462H :  2.89   46O :  2.84  529O :  2.81  742O :  2.81  311H :  2.77
  112O :  2.77  601O :  2.74  616O :  2.71  196O :  2.70  661O :  2.66   28O :  2.58  439O :  2.56  373O :  2.56  157O :  2.51  525H :  2.50  208O :  2.43  415O :  2.42
  349O :  2.38   40O :  2.38  442O :  2.34  313O :  2.21  422H :  2.19  244O :  2.14  427O :  2.11  234H :  2.10   58O :  2.08  652O :  2.06  409O :  1.99  223O :  1.97
  467H :  1.96  474H :  1.93  548H :  1.93  103O :  1.93  517O :  1.92  175O :  1.91  412O :  1.90  370O :  1.89  154O :  1.89  508O :  1.87  682O :  1.87  367O :  1.86
   17H :  1.85  748O :  1.80  728H :  1.73   76O :  1.73  526O :  1.70  362H :  1.67  613O :  1.66  406O :  1.65  186H :  1.63  207H :  1.63  392H :  1.63  331O :  1.62
   49O :  1.58  489H :  1.56  325O :  1.53  611H :  1.51  537H :  1.47  554H :  1.46  637O :  1.44  559O :  1.41  457O :  1.36  144H :  1.36   68H :  1.35   31O :  1.35
  545H :  1.34   20H :  1.33  568O :  1.32  659H :  1.32   54H :  1.32  687H :  1.28  468H :  1.27  605H :  1.27  643O :  1.26  220O :  1.25  298O :  1.17   83H :  1.16
  229O :  1.14  710H :  1.14  256O :  1.12  564H :  1.11  445O :  1.10  735H :  1.10  665H :  1.09  123H :  1.09  725H :  1.08  693H :  1.04  667O :  1.02  251H :  1.02
  111H :  1.01  243H :  1.01  188H :  1.00  139O :  1.00  721O :  1.00  638H :  0.99  168H :  0.99  491H :  0.98  125H :  0.98  173H :  0.97  147H :  0.96  620H :  0.95
  292O :  0.91  273H :  0.91  252H :  0.90   79O :  0.90  137H :  0.89  114H :  0.88  751O :  0.88   10O :  0.86  291H :  0.85  673O :  0.84  390H :  0.84  143H :  0.82
  552H :  0.82  201H :  0.80  672H :  0.80  171H :  0.78  750H :  0.77  195H :  0.76   96H :  0.76  747H :  0.76  465H :  0.75  180H :  0.74    8H :  0.74  434H :  0.72
  591H :  0.71  100O :  0.71  259O :  0.70   92H :  0.67  662H :  0.66   36H :  0.65  726H :  0.64   98H :  0.64  215H :  0.64  150H :  0.63  218H :  0.63  470H :  0.62
  720H :  0.62  581H :  0.61  501H :  0.61  386H :  0.60  431H :  0.59  641H :  0.59  420H :  0.59  371H :  0.58  228H :  0.57  584H :  0.57   75H :  0.57  303H :  0.57
  275H :  0.55  447H :  0.55  179H :  0.55  159H :  0.55  212H :  0.54  372H :  0.53  368H :  0.53    2H :  0.53  393H :  0.52  632H :  0.52   86H :  0.52  101H :  0.51
  378H :  0.50  395H :  0.49  350H :  0.49  182H :  0.48  671H :  0.47  164H :  0.47  440H :  0.46  377H :  0.46  617H :  0.46  254H :  0.45   72H :  0.45  645H :  0.45
  108H :  0.44  410H :  0.44  500H :  0.43  342H :  0.43  333H :  0.43  629H :  0.43   24H :  0.43  398H :  0.42  249H :  0.42  302H :  0.41  233H :  0.41  348H :  0.41
  642H :  0.41  494H :  0.41  183H :  0.40  712O :  0.40  452H :  0.40  608H :  0.40  621H :  0.38  341H :  0.38   27H :  0.38  237H :  0.38  456H :  0.38  680H :  0.37
  714H :  0.37  104H :  0.37  506H :  0.36   69H :  0.35  296H :  0.35  572H :  0.35  636H :  0.35  122H :  0.35  609H :  0.35  285H :  0.34  318H :  0.34  684H :  0.34
  698H :  0.34  374H :  0.34  416H :  0.34  262O :  0.34  356H :  0.33  294H :  0.33  305H :  0.33  189H :  0.33  686H :  0.32  126H :  0.32  133O :  0.32   33H :  0.32
  704H :  0.32  282H :  0.31  287H :  0.31  480H :  0.31  485H :  0.31  384H :  0.31  461H :  0.31  528H :  0.30  653H :  0.30   62H :  0.29  453H :  0.29  191H :  0.29
  381H :  0.28  417H :  0.28  309H :  0.28  323H :  0.27  654H :  0.27  534H :  0.27  477H :  0.26  585H :  0.26  134H :  0.26  185H :  0.26  270H :  0.25  320H :  0.25
  419H :  0.25  221H :  0.24  744H :  0.24  729H :  0.24  162H :  0.24  128H :  0.24  314H :  0.24  630H :  0.24  324H :  0.24  594H :  0.24  297H :  0.23  596H :  0.23
  155H :  0.23   81H :  0.23   63H :  0.23  276H :  0.23  140H :  0.23  521H :  0.23  558H :  0.22  267H :  0.22  644H :  0.21  732H :  0.21    3H :  0.21  560H :  0.21
  365H :  0.20  432H :  0.20  743H :  0.20  167H :  0.20   56H :  0.20  194H :  0.20  471H :  0.20  264H :  0.19  288H :  0.19  210H :  0.19  536H :  0.19   65H :  0.19
  354H :  0.19   14H :  0.19  689H :  0.18  603H :  0.18  690H :  0.18  737H :  0.18  300H :  0.18  723H :  0.18  308H :  0.18  692H :  0.18  516H :  0.18  731H :  0.18
   18H :  0.17   60H :  0.17  495H :  0.17   93H :  0.17  567H :  0.17  359H :  0.17   77H :  0.16   44H :  0.16  360H :  0.16  437H :  0.16  546H :  0.16  402H :  0.16
  317H :  0.16  551H :  0.16  203H :  0.16  312H :  0.15  176H :  0.15  713H :  0.15  606H :  0.15  219H :  0.15  268O :  0.15   99H :  0.15  614H :  0.14  272H :  0.14
  161H :  0.14  344H :  0.14  459H :  0.14  635H :  0.14  696H :  0.14  597H :  0.14  615H :  0.13  192H :  0.13  561H :  0.13  414H :  0.13  450H :  0.13  369H :  0.13
  213H :  0.13  363H :  0.13    5H :  0.12  708H :  0.12  401H :  0.12  428H :  0.12  405H :  0.12  524H :  0.12  255H :  0.12   66H :  0.12   71H :  0.12  519H :  0.12
   84H :  0.12  509H :  0.12  656H :  0.11  590H :  0.11  563H :  0.11  105H :  0.11  531H :  0.11  677H :  0.11  327H :  0.11  498H :  0.11  281H :  0.11  588H :  0.11
  479H :  0.11  120H :  0.11  705H :  0.10  618H :  0.10  473H :  0.10  206H :  0.10  540H :  0.10  129H :  0.10  174H :  0.10  408H :  0.10  515H :  0.09  576H :  0.09
  675H :  0.09  573H :  0.09  507H :  0.09   39H :  0.09  707H :  0.09  149H :  0.08  435H :  0.08  734H :  0.08  404H :  0.08   47H :  0.08  587H :  0.08   74H :  0.08
  389H :  0.08  557H :  0.08  650H :  0.07  666H :  0.07  668H :  0.07
    2 LP   *******   0.00  -0.81366 -15.62561  -3.34236  361O : 33.28  436O : 27.20  736O : 21.71  460O : 21.40   37O : 18.98  130O : 18.83  505O : 17.07  178O : 16.89  694O : 14.89  169O : 13.85  547O : 13.81  238O : 13.72
   73O : 13.21  700O : 13.09  391O : 13.04  418O : 13.02  520O : 13.00  676O : 12.72  622O : 12.27  703O : 12.09  307O : 11.94  184O : 11.54  379O : 11.43   61O : 11.31
  595O : 11.30  523O : 10.62  163O : 10.52  364O : 10.49   70O : 10.23  136O : 10.16  286O : 10.10  484O :  9.84   16O :  9.59  403O :  9.52  319O :  9.45  727O :  9.32
  592O :  9.30  250O :  9.29  253O :  9.26  232O :  9.25   88O :  9.15  187O :  9.09  160O :  9.04  493O :  9.00  544O :  9.00  475O :  8.94  199O :  8.83  172O :  8.80
  670O :  8.40  490O :  8.39  631O :  8.31   34O :  8.27  421O :  8.16  535O :  8.05   25O :  8.03  310O :  8.00  733O :  7.93    1O :  7.81  481O :  7.77   52O :  7.71
  580O :  7.65  352O :  7.65  202O :  7.50  499O :  7.49  151O :  7.39  583O :  7.36  472O :  7.34  553O :  7.33  739O :  7.26  277O :  7.21  469O :  7.20  589O :  7.19
  355O :  7.17  190O :  6.99  340O :  6.86  463O :  6.83  451O :  6.81  142O :  6.79  181O :  6.75  640O :  6.65  718O :  6.58  304O :  6.47  121O :  6.45  646O :  6.40
  466O :  6.37  205O :  6.36  346O :  6.34  301O :  6.27  376O :  6.17   19O :  6.09  358O :  6.05  610O :  6.05  754O :  5.92  316O :  5.86   43O :  5.84  688O :  5.83
  478O :  5.82  148O :  5.76  448O :  5.68  706O :  5.63  664O :  5.58   55O :  5.43  574O :  5.41  166O :  5.32  679O :  5.23  715O :  5.18  532O :  5.06  388O :  5.04
    4O :  4.98  124O :  4.89  454O :  4.87   97O :  4.86  424O :  4.79  541O :  4.78  577O :  4.77   94O :  4.72    7O :  4.71  658O :  4.69  343O :  4.68  487O :  4.65
  556O :  4.60  289O :  4.58  691O :  4.54  235O :  4.49  649O :  4.46  283O :  4.45  619O :  4.41  271O :  4.31  328O :  4.30  628O :  4.28  127O :  4.27  280O :  4.24
  724O :  4.12  511O :  4.11  334O :  4.05   85O :  4.05  586O :  4.01  241O :  3.92  106O :  3.87  211O :  3.87  745O :  3.75   67O :  3.65  217O :  3.62  193O :  3.59
  322O :  3.59  685O :  3.39  538O :  3.31  430O :  3.29  214O :  3.26  607O :  3.26  118O :  3.22  337O :  3.20  562O :  3.18  274O :  3.16  394O :  3.16  502O :  3.11
  295O :  3.10  247O :  3.05  265O :  2.98  625O :  2.97  226O :  2.96  604O :  2.89  433O :  2.89  730O :  2.89  385O :  2.87  598O :  2.83   22O :  2.82  655O :  2.76
  400O :  2.76  496O :  2.61  514O :  2.61  550O :  2.60  571O :  2.59  115O :  2.55  709O :  2.54  397O :  2.53  697O :  2.50  565O :  2.49  382O :  2.49  145O :  2.47
   91O :  2.46  109O :  2.43   64O :  2.43   13O :  2.40  634O :  2.31  738H :  2.29   82O :  2.28  462H :  2.28   46O :  2.23  529O :  2.21  742O :  2.21  112O :  2.18
  311H :  2.15  601O :  2.15  616O :  2.13  196O :  2.11  661O :  2.09   28O :  2.03  439O :  2.01  373O :  2.01  157O :  1.97  525H :  1.97  208O :  1.91  415O :  1.90
   40O :  1.87  349O :  1.87  442O :  1.84  244O :  1.80  313O :  1.74  422H :  1.72  427O :  1.66  234H :  1.65   58O :  1.64  652O :  1.60  409O :  1.56  223O :  1.55
  467H :  1.54  548H :  1.52  103O :  1.52  517O :  1.51  474H :  1.51  175O :  1.50  412O :  1.50  370O :  1.49  154O :  1.49  508O :  1.47  682O :  1.47  367O :  1.47
   17H :  1.45  362H :  1.43  748O :  1.42  728H :  1.36   76O :  1.35  526O :  1.34  613O :  1.31  406O :  1.30  186H :  1.28  207H :  1.28  392H :  1.28  331O :  1.27
   49O :  1.24  489H :  1.23  325O :  1.21  611H :  1.18  537H :  1.15  637O :  1.13  554H :  1.13  559O :  1.11  457O :  1.07  144H :  1.07   68H :  1.06   31O :  1.06
  545H :  1.06   20H :  1.05  568O :  1.04  659H :  1.04  687H :  1.00  468H :  1.00  605H :  1.00  643O :  0.99   54H :  0.99  220O :  0.98  298O :  0.92   83H :  0.91
  229O :  0.90  710H :  0.90  256O :  0.88  564H :  0.88  445O :  0.87  735H :  0.86  665H :  0.86  123H :  0.85  725H :  0.85  693H :  0.82  251H :  0.80  111H :  0.80
  243H :  0.79  188H :  0.79  139O :  0.79  721O :  0.79  638H :  0.78  168H :  0.78  491H :  0.77  667O :  0.77  125H :  0.77  173H :  0.76  147H :  0.75  620H :  0.75
  292O :  0.72  273H :  0.71  252H :  0.71   79O :  0.71  137H :  0.70  114H :  0.70  751O :  0.69   10O :  0.68  291H :  0.67  673O :  0.66  390H :  0.66  143H :  0.65
  552H :  0.64  201H :  0.63  672H :  0.63  171H :  0.62  750H :  0.60  195H :  0.60   96H :  0.60  747H :  0.60  465H :  0.59    8H :  0.58  180H :  0.58  434H :  0.57
  591H :  0.56  100O :  0.56  259O :  0.55   92H :  0.53  662H :  0.52   36H :  0.51  726H :  0.51   98H :  0.51  215H :  0.50  150H :  0.50  218H :  0.49  470H :  0.49
  720H :  0.48  581H :  0.48  501H :  0.48  386H :  0.47  641H :  0.46  431H :  0.46  420H :  0.46  371H :  0.46  228H :  0.45  584H :  0.45   75H :  0.45  303H :  0.45
  275H :  0.44  447H :  0.43  159H :  0.43  179H :  0.43  212H :  0.42  372H :  0.42  368H :  0.42    2H :  0.41  393H :  0.41  632H :  0.41   86H :  0.41  101H :  0.40
  378H :  0.40  395H :  0.39  350H :  0.38  182H :  0.38  671H :  0.37  164H :  0.37  440H :  0.36  377H :  0.36  617H :  0.36  254H :  0.36   72H :  0.35  645H :  0.35
  108H :  0.35  410H :  0.34  500H :  0.34  342H :  0.34  333H :  0.34  629H :  0.34   24H :  0.34  398H :  0.33  302H :  0.32  233H :  0.32  348H :  0.32  642H :  0.32
  494H :  0.32  183H :  0.32  712O :  0.32  452H :  0.32  608H :  0.31  249H :  0.31  621H :  0.30  341H :  0.30   27H :  0.30  237H :  0.30  456H :  0.30  680H :  0.29
  714H :  0.29  104H :  0.29  506H :  0.28   69H :  0.28  296H :  0.28  572H :  0.28  636H :  0.28  285H :  0.28  122H :  0.27  609H :  0.27  318H :  0.27  684H :  0.27
  698H :  0.26  374H :  0.26  416H :  0.26  262O :  0.26  356H :  0.26  294H :  0.26  305H :  0.26  189H :  0.26  686H :  0.25  126H :  0.25  133O :  0.25   33H :  0.25
  704H :  0.25  282H :  0.25  287H :  0.25  480H :  0.24  485H :  0.24  384H :  0.24  461H :  0.24  528H :  0.24   62H :  0.23  653H :  0.23  453H :  0.23  191H :  0.23
  381H :  0.22  417H :  0.22  309H :  0.22  323H :  0.22  654H :  0.22  534H :  0.21  477H :  0.21  585H :  0.21  134H :  0.21  185H :  0.20  270H :  0.20  320H :  0.20
  419H :  0.19  221H :  0.19  744H :  0.19  729H :  0.19  162H :  0.19  128H :  0.19  630H :  0.19  314H :  0.19  324H :  0.19  594H :  0.19  297H :  0.18  596H :  0.18
  155H :  0.18   81H :  0.18   63H :  0.18  276H :  0.18  140H :  0.18  521H :  0.18  267H :  0.17  558H :  0.17  644H :  0.17  732H :  0.17    3H :  0.17  560H :  0.16
  365H :  0.16  432H :  0.16  743H :  0.16  194H :  0.16   56H :  0.16  167H :  0.16  471H :  0.16  264H :  0.15  288H :  0.15  210H :  0.15   65H :  0.15  536H :  0.15
   14H :  0.15  354H :  0.15  689H :  0.14  603H :  0.14  690H :  0.14  300H :  0.14  737H :  0.14  723H :  0.14  308H :  0.14  692H :  0.14  516H :  0.14  731H :  0.14
   60H :  0.13   18H :  0.13  495H :  0.13  363H :  0.13   77H :  0.13  567H :  0.13  359H :  0.13   93H :  0.13   44H :  0.13  360H :  0.13  546H :  0.13  402H :  0.13
  317H :  0.13  551H :  0.13  203H :  0.12  176H :  0.12  312H :  0.12  713H :  0.12  606H :  0.12  219H :  0.12  268O :  0.11   99H :  0.11  614H :  0.11  272H :  0.11
  161H :  0.11  344H :  0.11  459H :  0.11  635H :  0.11  696H :  0.11  597H :  0.11  615H :  0.11  450H :  0.10  192H :  0.10  561H :  0.10  414H :  0.10  369H :  0.10
  213H :  0.10    5H :  0.10  708H :  0.10  401H :  0.10  428H :  0.09  405H :  0.09  524H :  0.09  255H :  0.09   66H :  0.09   71H :  0.09  519H :  0.09   84H :  0.09
  509H :  0.09  656H :  0.09  590H :  0.09  563H :  0.09  105H :  0.09  531H :  0.09  677H :  0.09  327H :  0.09  498H :  0.09  281H :  0.09  588H :  0.09  479H :  0.08
  120H :  0.08  473H :  0.08  705H :  0.08  618H :  0.08  206H :  0.08  540H :  0.08  129H :  0.08  174H :  0.08  408H :  0.08  515H :  0.07  576H :  0.07  573H :  0.07
  675H :  0.07  507H :  0.07   39H :  0.07
    3 LP   *******   0.00 -11.86384 -37.03002 -31.34563  361O : 27.26  436O : 20.43  460O : 19.72  736O : 17.59   37O : 15.56  130O : 15.44  505O : 13.99  178O : 13.85  694O : 12.21  169O : 11.36  547O : 11.32  238O : 11.24
   73O : 10.83  700O : 10.73  391O : 10.69  418O : 10.68  520O : 10.64  676O : 10.43  622O : 10.06  703O :  9.91  307O :  9.79  184O :  9.47  379O :  9.37   61O :  9.27
  595O :  9.27  523O :  8.71  163O :  8.63  364O :  8.60   70O :  8.39  136O :  8.33  286O :  8.29  484O :  8.06   16O :  7.86  403O :  7.80  319O :  7.74  727O :  7.64
  592O :  7.63  250O :  7.62  253O :  7.59  232O :  7.58   88O :  7.50  187O :  7.45  160O :  7.41  544O :  7.39  493O :  7.38  475O :  7.33  199O :  7.24  172O :  7.21
  670O :  6.88  490O :  6.88  631O :  6.82   34O :  6.78  421O :  6.69  310O :  6.65  535O :  6.60   25O :  6.58  733O :  6.50   52O :  6.48    1O :  6.41  481O :  6.37
  580O :  6.27  352O :  6.27  202O :  6.14  499O :  6.14  151O :  6.06  553O :  6.06  583O :  6.04  472O :  6.02  739O :  5.95  277O :  5.91  469O :  5.90  589O :  5.89
  355O :  5.88  190O :  5.73  340O :  5.63  463O :  5.60  451O :  5.58  142O :  5.56  181O :  5.53  640O :  5.46  718O :  5.39  304O :  5.30  121O :  5.29  646O :  5.25
  466O :  5.22  205O :  5.22  346O :  5.20  301O :  5.14  376O :  5.06   19O :  4.99  358O :  4.96  610O :  4.96  754O :  4.85  316O :  4.80  448O :  4.79   43O :  4.79
  688O :  4.78  478O :  4.77  148O :  4.72  706O :  4.61  664O :  4.57   55O :  4.46  574O :  4.43  166O :  4.36  679O :  4.29  715O :  4.24  532O :  4.15  388O :  4.13
    4O :  4.08  124O :  4.01  454O :  3.99   97O :  3.98  424O :  3.93  541O :  3.92  577O :  3.91   94O :  3.87    7O :  3.86  658O :  3.85  343O :  3.84  487O :  3.81
  556O :  3.77  289O :  3.76  691O :  3.73  235O :  3.68  649O :  3.66  619O :  3.61  283O :  3.57  271O :  3.53  328O :  3.53  628O :  3.51  127O :  3.50  280O :  3.49
  724O :  3.38  511O :  3.37  334O :  3.32  586O :  3.28   85O :  3.26  241O :  3.21  211O :  3.17  106O :  3.12  745O :  3.07   67O :  2.99  217O :  2.97  193O :  2.95
  322O :  2.94  685O :  2.78  538O :  2.71  430O :  2.70  214O :  2.67  607O :  2.67  118O :  2.64  337O :  2.62  562O :  2.61  274O :  2.59  394O :  2.59  502O :  2.55
  295O :  2.54  247O :  2.53  265O :  2.44  625O :  2.43  226O :  2.43  604O :  2.37  433O :  2.37  730O :  2.37  385O :  2.35  598O :  2.32   22O :  2.31  655O :  2.26
  400O :  2.26  496O :  2.14  514O :  2.14  550O :  2.13  571O :  2.12  115O :  2.09  709O :  2.08  397O :  2.08  697O :  2.05  565O :  2.04  382O :  2.04  145O :  2.03
   91O :  2.02  109O :  1.99   64O :  1.99   13O :  1.97  634O :  1.89   82O :  1.87  738H :  1.87   46O :  1.83  529O :  1.81  742O :  1.81  311H :  1.79  112O :  1.78
  601O :  1.76  616O :  1.75  196O :  1.72  661O :  1.71  462H :  1.69   28O :  1.66  439O :  1.65  373O :  1.65  157O :  1.62  525H :  1.61  208O :  1.57  415O :  1.56
   40O :  1.53  349O :  1.53  442O :  1.51  244O :  1.48  313O :  1.42  422H :  1.41  427O :  1.36  234H :  1.35   58O :  1.34  652O :  1.33  409O :  1.28  223O :  1.27
  467H :  1.26  474H :  1.25  548H :  1.24  103O :  1.24  517O :  1.24  412O :  1.23  175O :  1.23  370O :  1.22  154O :  1.22  508O :  1.21  682O :  1.20  367O :  1.20
   17H :  1.19  362H :  1.17  748O :  1.16  728H :  1.12   76O :  1.12  526O :  1.10  613O :  1.07  406O :  1.07  186H :  1.05  207H :  1.05  392H :  1.05  331O :  1.05
   49O :  1.02  489H :  1.00  325O :  0.99  559O :  0.98  611H :  0.97  537H :  0.95  554H :  0.94  637O :  0.93  457O :  0.88  144H :  0.88   68H :  0.87   31O :  0.87
  545H :  0.87   20H :  0.86  568O :  0.85  659H :  0.85   54H :  0.85  687H :  0.82  468H :  0.82  605H :  0.82  643O :  0.81  220O :  0.80  298O :  0.76   83H :  0.75
  229O :  0.74  710H :  0.74  256O :  0.72  564H :  0.72  445O :  0.71  735H :  0.71  665H :  0.70  123H :  0.70  725H :  0.70  693H :  0.67  251H :  0.66  111H :  0.65
  243H :  0.65  188H :  0.65  139O :  0.65  721O :  0.65  667O :  0.64  638H :  0.64  168H :  0.64  491H :  0.63  125H :  0.63  173H :  0.63  147H :  0.62  620H :  0.61
  292O :  0.59  273H :  0.59  252H :  0.58   79O :  0.58  137H :  0.57  114H :  0.57  751O :  0.57   10O :  0.55  291H :  0.55  673O :  0.54  390H :  0.54  143H :  0.53
  552H :  0.52  201H :  0.52  672H :  0.52  171H :  0.51  750H :  0.50  195H :  0.49   96H :  0.49  747H :  0.49  465H :  0.48    8H :  0.48  180H :  0.47  434H :  0.46
  591H :  0.46  100O :  0.46  259O :  0.45   92H :  0.43  662H :  0.43   36H :  0.42  726H :  0.41   98H :  0.41  215H :  0.41  150H :  0.41  218H :  0.41  470H :  0.40
  720H :  0.40  581H :  0.40  501H :  0.40  386H :  0.39  641H :  0.38  431H :  0.38  420H :  0.38  371H :  0.37  228H :  0.37  584H :  0.37   75H :  0.37  303H :  0.37
  275H :  0.36  447H :  0.36  159H :  0.35  179H :  0.35  212H :  0.35  372H :  0.34  368H :  0.34    2H :  0.34  393H :  0.34  632H :  0.33  101H :  0.33  378H :  0.33
   86H :  0.32  395H :  0.32  350H :  0.31  182H :  0.31  671H :  0.30  164H :  0.30  440H :  0.30  377H :  0.30  617H :  0.29  254H :  0.29   72H :  0.29  645H :  0.29
  108H :  0.29  410H :  0.28  500H :  0.28  342H :  0.28  333H :  0.28  629H :  0.27   24H :  0.27  398H :  0.27  249H :  0.27  302H :  0.26  233H :  0.26  348H :  0.26
  642H :  0.26  494H :  0.26  183H :  0.26  712O :  0.26  452H :  0.26  608H :  0.26  621H :  0.25  341H :  0.25   27H :  0.25  237H :  0.25  456H :  0.24  680H :  0.24
  714H :  0.24  104H :  0.24  461H :  0.24  506H :  0.23   69H :  0.23  296H :  0.23  572H :  0.23  636H :  0.23  122H :  0.22  609H :  0.22  318H :  0.22  684H :  0.22
  285H :  0.22  698H :  0.22  374H :  0.22  416H :  0.22  262O :  0.22  356H :  0.21  294H :  0.21  305H :  0.21  189H :  0.21  686H :  0.21  126H :  0.21  133O :  0.21
   33H :  0.20  704H :  0.20  282H :  0.20  287H :  0.20  480H :  0.20  485H :  0.20  384H :  0.20  528H :  0.19  653H :  0.19   62H :  0.19  453H :  0.19  191H :  0.19
  381H :  0.18  417H :  0.18  309H :  0.18  323H :  0.18  654H :  0.18  534H :  0.17  477H :  0.17  585H :  0.17  134H :  0.17  185H :  0.17  270H :  0.16  320H :  0.16
  419H :  0.16  221H :  0.16  744H :  0.16  729H :  0.16  162H :  0.16  128H :  0.15  630H :  0.15  324H :  0.15  314H :  0.15  594H :  0.15  297H :  0.15  596H :  0.15
  155H :  0.15   81H :  0.15   63H :  0.15  276H :  0.15  140H :  0.15  521H :  0.15  267H :  0.14  558H :  0.14  644H :  0.14  732H :  0.14    3H :  0.14  560H :  0.13
  365H :  0.13  432H :  0.13  743H :  0.13   56H :  0.13  167H :  0.13  194H :  0.13  471H :  0.13  264H :  0.12  288H :  0.12  210H :  0.12   65H :  0.12  536H :  0.12
   14H :  0.12  354H :  0.12  737H :  0.12  689H :  0.12  603H :  0.12  690H :  0.11  300H :  0.11  723H :  0.11  308H :  0.11  692H :  0.11  516H :  0.11  731H :  0.11
   60H :  0.11   18H :  0.11  363H :  0.11  495H :  0.11   93H :  0.11  567H :  0.11  359H :  0.11   77H :  0.11   44H :  0.11  360H :  0.11  437H :  0.11  546H :  0.11
  402H :  0.10  551H :  0.10  317H :  0.10  203H :  0.10  312H :  0.10  176H :  0.10  713H :  0.10  606H :  0.10  219H :  0.09  268O :  0.09   99H :  0.09  614H :  0.09
  272H :  0.09  161H :  0.09  344H :  0.09  459H :  0.09  635H :  0.09  696H :  0.09  597H :  0.09  615H :  0.09  192H :  0.09  561H :  0.08  414H :  0.08  450H :  0.08
  369H :  0.08  213H :  0.08    5H :  0.08  708H :  0.08  401H :  0.08  428H :  0.08  405H :  0.08  524H :  0.08  255H :  0.08   66H :  0.08   71H :  0.07  519H :  0.07
   84H :  0.07  509H :  0.07  656H :  0.07  590H :  0.07  563H :  0.07  105H :  0.07  531H :  0.07  677H :  0.07  327H :  0.07  281H :  0.07  498H :  0.07
    4 LP   *******   0.00   0.04693 -38.87109 -18.74777  361O : 20.10  436O : 15.07  736O : 14.46  460O : 12.83   37O : 11.47  130O : 11.38  505O : 10.32  178O : 10.22  694O :  9.00  169O :  8.38  547O :  8.35  238O :  8.29
   73O :  7.99  700O :  7.91  391O :  7.88  418O :  7.87  520O :  7.85  676O :  7.69  622O :  7.42  703O :  7.31  307O :  7.22  184O :  6.98  379O :  6.91   61O :  6.84
  595O :  6.83  523O :  6.42  163O :  6.36  364O :  6.34   70O :  6.19  136O :  6.14  286O :  6.11  484O :  5.95   16O :  5.80  403O :  5.75  319O :  5.71  727O :  5.64
  592O :  5.62  250O :  5.62  253O :  5.60  232O :  5.59   88O :  5.53  187O :  5.49  160O :  5.46  493O :  5.44  544O :  5.44  475O :  5.41  199O :  5.34  172O :  5.32
  670O :  5.08  490O :  5.07  631O :  5.03   34O :  5.00  421O :  4.93  310O :  4.90  535O :  4.87   25O :  4.85  733O :  4.79   52O :  4.78  481O :  4.70    1O :  4.69
  580O :  4.63  352O :  4.63  202O :  4.53  499O :  4.53  151O :  4.47  553O :  4.47  583O :  4.45  472O :  4.44  739O :  4.39  277O :  4.36  469O :  4.35  589O :  4.35
  355O :  4.33  190O :  4.22  340O :  4.14  463O :  4.13  451O :  4.12  142O :  4.10  181O :  4.08  640O :  4.03  718O :  3.98  304O :  3.91  121O :  3.90  646O :  3.87
  466O :  3.85  205O :  3.85  346O :  3.83  301O :  3.79  376O :  3.73   19O :  3.68  358O :  3.66  610O :  3.65  754O :  3.58  316O :  3.54  448O :  3.54   43O :  3.53
  688O :  3.52  478O :  3.52  148O :  3.48  706O :  3.40  664O :  3.37   55O :  3.29  574O :  3.27  166O :  3.21  679O :  3.16  715O :  3.13  532O :  3.06  388O :  3.05
    4O :  3.01  124O :  2.96  454O :  2.94   97O :  2.94  424O :  2.90  541O :  2.89  577O :  2.88   94O :  2.86    7O :  2.85  658O :  2.84  343O :  2.83  487O :  2.81
  556O :  2.78  289O :  2.77  691O :  2.75  235O :  2.71  283O :  2.70  649O :  2.70  619O :  2.66  271O :  2.60  328O :  2.60  628O :  2.59  127O :  2.58  280O :  2.56
  724O :  2.49  511O :  2.48  334O :  2.45   85O :  2.43  586O :  2.42  241O :  2.37  211O :  2.34  106O :  2.27  745O :  2.27   67O :  2.21  217O :  2.19  193O :  2.18
  322O :  2.17  685O :  2.05  538O :  2.00  430O :  1.99  214O :  1.97  607O :  1.97  118O :  1.95  337O :  1.93  562O :  1.92  274O :  1.91  394O :  1.91  502O :  1.88
  295O :  1.88  247O :  1.86  265O :  1.80  625O :  1.79  226O :  1.79  604O :  1.75  433O :  1.75  730O :  1.74  385O :  1.73  598O :  1.71   22O :  1.71  655O :  1.67
  400O :  1.67  496O :  1.58  514O :  1.58  550O :  1.57  571O :  1.57  115O :  1.54  709O :  1.54  397O :  1.53  697O :  1.51  565O :  1.51  382O :  1.51  145O :  1.50
   91O :  1.49  109O :  1.47   64O :  1.47   13O :  1.45  634O :  1.39   82O :  1.38  462H :  1.38   46O :  1.35  529O :  1.34  742O :  1.34  311H :  1.32  112O :  1.32
  601O :  1.30  616O :  1.29  196O :  1.26  661O :  1.26  738H :  1.24   28O :  1.23  439O :  1.22  373O :  1.22  157O :  1.19  525H :  1.19  208O :  1.15  415O :  1.15
   40O :  1.13  442O :  1.11  244O :  1.09  313O :  1.05  422H :  1.04  427O :  1.00  234H :  1.00   58O :  0.99  349O :  0.99  652O :  0.98  409O :  0.94  223O :  0.94
  467H :  0.93  474H :  0.92  548H :  0.92  103O :  0.92  517O :  0.91  175O :  0.91  412O :  0.91  370O :  0.90  154O :  0.90  508O :  0.89  682O :  0.89  367O :  0.89
   17H :  0.88  362H :  0.86  748O :  0.86  728H :  0.82   76O :  0.82  526O :  0.81  613O :  0.79  406O :  0.79  186H :  0.77  207H :  0.77  392H :  0.77  331O :  0.77
   49O :  0.75  489H :  0.74  325O :  0.73  611H :  0.72  537H :  0.70  554H :  0.69  637O :  0.69  559O :  0.66  144H :  0.65  457O :  0.64   68H :  0.64   31O :  0.64
  545H :  0.64   20H :  0.63  568O :  0.63  659H :  0.63   54H :  0.63  687H :  0.61  468H :  0.60  605H :  0.60  643O :  0.60  220O :  0.59  298O :  0.56   83H :  0.55
  229O :  0.54  710H :  0.54  256O :  0.53  564H :  0.53  445O :  0.52  735H :  0.52  665H :  0.52  123H :  0.52  725H :  0.52  693H :  0.49  251H :  0.48  111H :  0.48
  243H :  0.48  188H :  0.48  139O :  0.48  721O :  0.48  667O :  0.47  638H :  0.47  168H :  0.47  491H :  0.47  125H :  0.47  173H :  0.46  147H :  0.45  620H :  0.45
  292O :  0.43  273H :  0.43  252H :  0.43   79O :  0.43  137H :  0.42  114H :  0.42  751O :  0.42   10O :  0.41  291H :  0.40  673O :  0.40  390H :  0.40  143H :  0.39
  552H :  0.39  201H :  0.38  672H :  0.38  171H :  0.37  750H :  0.37  195H :  0.36   96H :  0.36  747H :  0.36  465H :  0.35    8H :  0.35  180H :  0.35  434H :  0.34
  591H :  0.34  100O :  0.34  259O :  0.33   92H :  0.32  662H :  0.31   36H :  0.31  726H :  0.31   98H :  0.31  215H :  0.30  150H :  0.30  218H :  0.30  470H :  0.30
  720H :  0.29  581H :  0.29  501H :  0.29  386H :  0.29  641H :  0.28  431H :  0.28  420H :  0.28  371H :  0.28  228H :  0.27  584H :  0.27   75H :  0.27  303H :  0.27
  275H :  0.26  447H :  0.26  159H :  0.26  179H :  0.26  212H :  0.26  372H :  0.25  368H :  0.25    2H :  0.25  393H :  0.25  632H :  0.25  101H :  0.24  350H :  0.24
  378H :  0.24   86H :  0.24  395H :  0.23  182H :  0.23  671H :  0.22  164H :  0.22  440H :  0.22  377H :  0.22  617H :  0.22  254H :  0.22   72H :  0.21  645H :  0.21
  410H :  0.21  500H :  0.21  342H :  0.20  333H :  0.20  249H :  0.20  629H :  0.20   24H :  0.20  398H :  0.20  302H :  0.20  233H :  0.19  348H :  0.19  642H :  0.19
  494H :  0.19  183H :  0.19  712O :  0.19  452H :  0.19  608H :  0.19  621H :  0.18   27H :  0.18  341H :  0.18  237H :  0.18  456H :  0.18  680H :  0.18  714H :  0.18
  104H :  0.17  506H :  0.17   69H :  0.17  296H :  0.17  572H :  0.17  636H :  0.17  122H :  0.17  609H :  0.17  285H :  0.16  318H :  0.16  684H :  0.16  698H :  0.16
  374H :  0.16  416H :  0.16  262O :  0.16  356H :  0.16  294H :  0.16  305H :  0.16  189H :  0.16  108H :  0.15  686H :  0.15  126H :  0.15  133O :  0.15   33H :  0.15
  704H :  0.15  282H :  0.15  287H :  0.15  480H :  0.15  485H :  0.15  384H :  0.15  528H :  0.14  653H :  0.14  461H :  0.14   62H :  0.14  453H :  0.14  191H :  0.14
  381H :  0.14  417H :  0.13  309H :  0.13  323H :  0.13  654H :  0.13  534H :  0.13  737H :  0.13  477H :  0.12  585H :  0.12  134H :  0.12  185H :  0.12  270H :  0.12
  320H :  0.12  419H :  0.12  221H :  0.12  744H :  0.12  729H :  0.12  162H :  0.12  128H :  0.11  630H :  0.11  314H :  0.11  324H :  0.11  594H :  0.11  297H :  0.11
  596H :  0.11  155H :  0.11   81H :  0.11   63H :  0.11  276H :  0.11  140H :  0.11  521H :  0.11  267H :  0.10  558H :  0.10  644H :  0.10  732H :  0.10    3H :  0.10
  560H :  0.10  365H :  0.10  743H :  0.10  432H :  0.10   56H :  0.10  194H :  0.09  167H :  0.09  471H :  0.09  264H :  0.09  288H :  0.09  210H :  0.09   65H :  0.09
  536H :  0.09  354H :  0.09   14H :  0.09  689H :  0.09  603H :  0.09  690H :  0.08  300H :  0.08  723H :  0.08  308H :  0.08  692H :  0.08  516H :  0.08  731H :  0.08
   18H :  0.08   60H :  0.08  363H :  0.08  495H :  0.08   93H :  0.08  567H :  0.08  359H :  0.08   77H :  0.08   44H :  0.08  360H :  0.08  437H :  0.08  546H :  0.08
  402H :  0.08  317H :  0.08  551H :  0.08  203H :  0.07  312H :  0.07  176H :  0.07  713H :  0.07  606H :  0.07
    5 LP   *******   0.00  62.47132   0.36917  12.19309  361O : 19.96  436O : 14.96  736O : 13.03  460O : 12.85  694O : 11.88   37O : 11.39  130O : 11.30  505O : 10.25  178O : 10.14  169O :  8.32  547O :  8.29  238O :  8.23
   73O :  7.91  700O :  7.86  391O :  7.83  418O :  7.81  520O :  7.80  676O :  7.64  622O :  7.37  703O :  7.26  307O :  7.16  184O :  6.93  379O :  6.90  595O :  6.79
   61O :  6.79  523O :  6.38  163O :  6.31   70O :  6.14  364O :  6.14  136O :  6.10  286O :  6.07  484O :  5.90   16O :  5.76  403O :  5.71  319O :  5.67  727O :  5.60
  592O :  5.58  250O :  5.58  253O :  5.58  232O :  5.56   88O :  5.49  187O :  5.45  160O :  5.43  493O :  5.40  544O :  5.40  475O :  5.36  199O :  5.30  172O :  5.28
  670O :  5.04  490O :  5.04  631O :  4.99   34O :  4.95  421O :  4.90  310O :  4.86  535O :  4.83   25O :  4.82  733O :  4.76   52O :  4.74    1O :  4.69  481O :  4.66
  352O :  4.59  580O :  4.59  202O :  4.50  499O :  4.50  151O :  4.44  553O :  4.44  583O :  4.42  472O :  4.41  739O :  4.36  277O :  4.33  469O :  4.32  589O :  4.32
  355O :  4.30  190O :  4.19  340O :  4.12  463O :  4.10  451O :  4.09  142O :  4.07  181O :  4.05  640O :  3.99  718O :  3.95  304O :  3.88  121O :  3.87  646O :  3.84
  466O :  3.83  205O :  3.82  346O :  3.81  301O :  3.77  376O :  3.70  358O :  3.63  610O :  3.63   19O :  3.62  754O :  3.55  316O :  3.52  448O :  3.51   43O :  3.51
  688O :  3.49  478O :  3.49  148O :  3.46  706O :  3.38  664O :  3.35   55O :  3.26  574O :  3.25  166O :  3.19  679O :  3.14  715O :  3.11  532O :  3.04  388O :  3.02
    4O :  2.98  124O :  2.93  454O :  2.92   97O :  2.92  424O :  2.88  541O :  2.87  577O :  2.86   94O :  2.84    7O :  2.83  658O :  2.82  343O :  2.81  487O :  2.79
  556O :  2.76  289O :  2.75  691O :  2.73  235O :  2.70  649O :  2.68  619O :  2.64  283O :  2.61  328O :  2.58  271O :  2.58  628O :  2.57  127O :  2.56  280O :  2.54
  724O :  2.47  511O :  2.47   85O :  2.43  334O :  2.43  241O :  2.35  211O :  2.32  106O :  2.32  586O :  2.32  745O :  2.25   67O :  2.19  217O :  2.17  193O :  2.16
  322O :  2.15  685O :  2.03  538O :  1.99  430O :  1.97  214O :  1.96  607O :  1.95  118O :  1.93  337O :  1.92  562O :  1.91  394O :  1.90  274O :  1.90  502O :  1.87
  295O :  1.86  247O :  1.85  265O :  1.79  625O :  1.78  226O :  1.78  604O :  1.74  433O :  1.74  730O :  1.73  385O :  1.72  598O :  1.70   22O :  1.69  655O :  1.66
  400O :  1.65  496O :  1.57  514O :  1.57  550O :  1.56  571O :  1.55  115O :  1.53  709O :  1.53  397O :  1.52  565O :  1.50  697O :  1.50  382O :  1.49  145O :  1.48
   91O :  1.48  109O :  1.46   64O :  1.46   13O :  1.44  634O :  1.38  738H :  1.38   82O :  1.37  462H :  1.37   46O :  1.34  529O :  1.33  742O :  1.33  311H :  1.31
  112O :  1.31  601O :  1.29  616O :  1.28  196O :  1.26  661O :  1.25  439O :  1.21  373O :  1.21   28O :  1.20  157O :  1.18  525H :  1.18  208O :  1.15  415O :  1.14
  349O :  1.12   40O :  1.12  442O :  1.11  244O :  1.08  313O :  1.04  422H :  1.03  427O :  1.00   58O :  0.98  234H :  0.97  652O :  0.97  409O :  0.94  223O :  0.93
  467H :  0.92  474H :  0.91  103O :  0.91  548H :  0.91  517O :  0.91  412O :  0.90  175O :  0.90  370O :  0.89  154O :  0.89  508O :  0.89  682O :  0.88  367O :  0.87
   17H :  0.87  362H :  0.86  748O :  0.85  728H :  0.82   76O :  0.82  526O :  0.80  613O :  0.78  406O :  0.78  186H :  0.77  207H :  0.77  392H :  0.77  331O :  0.77
   49O :  0.75  489H :  0.74  325O :  0.72  611H :  0.71  537H :  0.69  554H :  0.69  637O :  0.68  559O :  0.66  457O :  0.64  144H :  0.64   20H :  0.64   68H :  0.64
  545H :  0.63   31O :  0.63  659H :  0.62   54H :  0.62  568O :  0.61  687H :  0.60  468H :  0.60  605H :  0.60  643O :  0.60  220O :  0.59  298O :  0.55   83H :  0.55
  229O :  0.54  710H :  0.54  256O :  0.53  564H :  0.53  445O :  0.52  735H :  0.52  665H :  0.51  123H :  0.51  725H :  0.51  693H :  0.49  251H :  0.48  111H :  0.48
  243H :  0.48  188H :  0.47  721O :  0.47  139O :  0.47  667O :  0.47  638H :  0.47  168H :  0.47  491H :  0.46  125H :  0.46  173H :  0.46  147H :  0.45  620H :  0.45
  292O :  0.43  273H :  0.43  252H :  0.43   79O :  0.42  137H :  0.42  114H :  0.42  751O :  0.42   10O :  0.41  291H :  0.40  673O :  0.40  390H :  0.39  143H :  0.39
  552H :  0.39  201H :  0.38  672H :  0.38  171H :  0.37  750H :  0.36  195H :  0.36   96H :  0.36  747H :  0.36  465H :  0.35    8H :  0.35  180H :  0.35  434H :  0.34
  591H :  0.34  100O :  0.33  259O :  0.33   92H :  0.32  662H :  0.31  726H :  0.30   98H :  0.30   36H :  0.30  215H :  0.30  150H :  0.30  218H :  0.30  470H :  0.29
  720H :  0.29  581H :  0.29  501H :  0.29  386H :  0.28  431H :  0.28  641H :  0.28  420H :  0.28  371H :  0.27  228H :  0.27  584H :  0.27   75H :  0.27  303H :  0.27
  275H :  0.26  447H :  0.26  159H :  0.26  179H :  0.26  212H :  0.25  372H :  0.25  368H :  0.25    2H :  0.25  393H :  0.25  632H :  0.24  101H :  0.24   86H :  0.24
  378H :  0.24  395H :  0.23  350H :  0.23  182H :  0.23  671H :  0.22  164H :  0.22  440H :  0.22  377H :  0.22  617H :  0.22  254H :  0.21   72H :  0.21  645H :  0.21
  108H :  0.21  410H :  0.21  500H :  0.21  342H :  0.20  333H :  0.20  629H :  0.20   24H :  0.20  398H :  0.20  249H :  0.20  233H :  0.19  302H :  0.19  348H :  0.19
  642H :  0.19  494H :  0.19  183H :  0.19  712O :  0.19  452H :  0.19  608H :  0.19  621H :  0.18  341H :  0.18   27H :  0.18  237H :  0.18  456H :  0.18  680H :  0.18
  714H :  0.17  104H :  0.17  506H :  0.17   69H :  0.17  296H :  0.17  572H :  0.17  636H :  0.17  122H :  0.16  609H :  0.16  285H :  0.16  318H :  0.16  684H :  0.16
  698H :  0.16  374H :  0.16  416H :  0.16  262O :  0.16  356H :  0.16  294H :  0.16  305H :  0.16  189H :  0.15  686H :  0.15  126H :  0.15  133O :  0.15   33H :  0.15
  704H :  0.15  282H :  0.15  287H :  0.15  480H :  0.15  485H :  0.15  384H :  0.14  461H :  0.14  528H :  0.14  381H :  0.14  653H :  0.14  588H :  0.14   62H :  0.14
  453H :  0.14  191H :  0.13  417H :  0.13  309H :  0.13  323H :  0.13  654H :  0.13  534H :  0.13  477H :  0.12  585H :  0.12  134H :  0.12  185H :  0.12  270H :  0.12
  320H :  0.12  419H :  0.12  744H :  0.12  221H :  0.11  729H :  0.11  162H :  0.11  128H :  0.11  630H :  0.11  314H :  0.11  324H :  0.11  594H :  0.11  297H :  0.11
  596H :  0.11  155H :  0.11   81H :  0.11   63H :  0.11  276H :  0.11  140H :  0.11  521H :  0.11  267H :  0.10  558H :  0.10  644H :  0.10  732H :  0.10    3H :  0.10
  560H :  0.10  432H :  0.10  743H :  0.10  167H :  0.09   56H :  0.09  194H :  0.09  365H :  0.09  471H :  0.09  264H :  0.09  288H :  0.09  567H :  0.09  210H :  0.09
   65H :  0.09  536H :  0.09  354H :  0.09   14H :  0.09  689H :  0.09  603H :  0.09  690H :  0.08  737H :  0.08  300H :  0.08  723H :  0.08  308H :  0.08  692H :  0.08
  516H :  0.08  731H :  0.08   60H :  0.08   18H :  0.08  363H :  0.08  495H :  0.08   93H :  0.08  359H :  0.08   77H :  0.08   44H :  0.08  360H :  0.08  437H :  0.08
  546H :  0.08  402H :  0.08  317H :  0.08  551H :  0.08  203H :  0.07  312H :  0.07  176H :  0.07  713H :  0.07  606H :  0.07
    6 LP   *******   0.00   1.37104  -8.87694 -57.73405  361O : 19.87  436O : 14.89  736O : 12.97  460O : 12.79  130O : 12.50   37O : 11.34  505O : 10.20  178O : 10.10  694O :  8.90  169O :  8.28  547O :  8.25  238O :  8.19
   73O :  7.89  700O :  7.82  418O :  7.81  391O :  7.79  520O :  7.76  676O :  7.60  622O :  7.33  703O :  7.22  307O :  7.13  184O :  6.95  379O :  6.83   61O :  6.76
  595O :  6.75  523O :  6.35  163O :  6.29  364O :  6.27   70O :  6.11  136O :  6.07  286O :  6.04  484O :  5.88   16O :  5.73  403O :  5.69  319O :  5.64  727O :  5.57
  592O :  5.56  250O :  5.55  253O :  5.53  232O :  5.53   88O :  5.46  187O :  5.46  544O :  5.41  160O :  5.40  493O :  5.38  475O :  5.34  199O :  5.28  172O :  5.26
  670O :  5.02  490O :  5.01  631O :  4.97   34O :  4.94  421O :  4.87  310O :  4.84  535O :  4.81   25O :  4.80  733O :  4.74   52O :  4.72    1O :  4.66  481O :  4.64
  580O :  4.57  352O :  4.57  202O :  4.48  499O :  4.47  151O :  4.42  553O :  4.41  583O :  4.40  472O :  4.39  739O :  4.34  277O :  4.31  469O :  4.30  589O :  4.29
  355O :  4.28  190O :  4.17  340O :  4.10  463O :  4.08  451O :  4.07  142O :  4.05  181O :  4.03  640O :  3.97  718O :  3.93  304O :  3.86  121O :  3.86  646O :  3.82
  466O :  3.81  205O :  3.80  346O :  3.79  301O :  3.75  376O :  3.68   19O :  3.64  358O :  3.62  610O :  3.61  754O :  3.53  316O :  3.50  448O :  3.49   43O :  3.49
  688O :  3.48  478O :  3.48  148O :  3.44  706O :  3.36  664O :  3.35   55O :  3.25  574O :  3.23  166O :  3.18  679O :  3.12  715O :  3.09  532O :  3.02  388O :  3.01
  577O :  2.98    4O :  2.97  124O :  2.92  454O :  2.91   97O :  2.90  424O :  2.86  541O :  2.86   94O :  2.82    7O :  2.82  658O :  2.80  343O :  2.80  487O :  2.78
  556O :  2.75  289O :  2.74  691O :  2.71  235O :  2.68  649O :  2.67  619O :  2.63  283O :  2.60  271O :  2.57  328O :  2.57  628O :  2.56  127O :  2.55  280O :  2.53
  724O :  2.46  511O :  2.46   85O :  2.42  334O :  2.42  586O :  2.39  241O :  2.34  211O :  2.31  106O :  2.31  745O :  2.24   67O :  2.18  217O :  2.16  193O :  2.15
  322O :  2.14  685O :  2.02  538O :  1.98  430O :  1.96  214O :  1.95  607O :  1.95  118O :  1.92  337O :  1.91  562O :  1.90  274O :  1.89  394O :  1.89  502O :  1.86
  295O :  1.85  247O :  1.84  265O :  1.78  625O :  1.77  226O :  1.77  604O :  1.73  433O :  1.73  730O :  1.72  385O :  1.71  598O :  1.69   22O :  1.69  655O :  1.65
  400O :  1.65  496O :  1.56  514O :  1.56  550O :  1.55  571O :  1.55  115O :  1.52  709O :  1.52  397O :  1.51  697O :  1.49  565O :  1.49  382O :  1.49  145O :  1.48
   91O :  1.47  109O :  1.45   64O :  1.45   13O :  1.43  634O :  1.38  738H :  1.37   82O :  1.36  462H :  1.36   46O :  1.33  742O :  1.32  529O :  1.32  311H :  1.30
  112O :  1.30  601O :  1.29  616O :  1.27  196O :  1.25  661O :  1.25   28O :  1.21  439O :  1.20  373O :  1.20  157O :  1.18  525H :  1.18  208O :  1.14  415O :  1.14
  349O :  1.12   40O :  1.12  442O :  1.10  244O :  1.08  313O :  1.04  422H :  1.03  427O :  0.99  234H :  0.99   58O :  0.98  652O :  0.97  409O :  0.93  223O :  0.93
  467H :  0.92  474H :  0.91  548H :  0.91  103O :  0.91  517O :  0.90  412O :  0.89  370O :  0.89  175O :  0.89  154O :  0.89  508O :  0.88  682O :  0.88  367O :  0.88
   17H :  0.87  362H :  0.85  748O :  0.85  728H :  0.82   76O :  0.81  526O :  0.80  613O :  0.78  186H :  0.78  406O :  0.78  207H :  0.76  392H :  0.76  331O :  0.76
   49O :  0.75  489H :  0.73  325O :  0.72  611H :  0.71  537H :  0.69  554H :  0.69  637O :  0.68  559O :  0.67  457O :  0.64  144H :  0.64   68H :  0.63   31O :  0.63
  545H :  0.63   20H :  0.63  568O :  0.62  659H :  0.62   54H :  0.62  687H :  0.60  468H :  0.60  605H :  0.59  643O :  0.59  220O :  0.59  298O :  0.55   83H :  0.55
  229O :  0.54  710H :  0.54  256O :  0.52  564H :  0.52  445O :  0.52  735H :  0.52  665H :  0.51  123H :  0.51  725H :  0.51  693H :  0.49  251H :  0.48  111H :  0.48
  243H :  0.47  188H :  0.47  139O :  0.47  721O :  0.47  667O :  0.46  638H :  0.46  168H :  0.46  491H :  0.46  125H :  0.46  173H :  0.46  147H :  0.45  620H :  0.45
  292O :  0.43  273H :  0.43  252H :  0.42   79O :  0.42  137H :  0.42  114H :  0.42  751O :  0.41   10O :  0.40  291H :  0.40  673O :  0.40  390H :  0.39  143H :  0.39
  552H :  0.38  201H :  0.38  672H :  0.38  171H :  0.37  750H :  0.36  195H :  0.36   96H :  0.36  747H :  0.36  465H :  0.35    8H :  0.35  180H :  0.34  434H :  0.34
  591H :  0.34  100O :  0.33  259O :  0.33   92H :  0.32  662H :  0.31   36H :  0.30  726H :  0.30   98H :  0.30  215H :  0.30  150H :  0.30  218H :  0.30  470H :  0.29
  720H :  0.29  581H :  0.29  501H :  0.29  386H :  0.28  431H :  0.28  641H :  0.28  420H :  0.27  371H :  0.27  228H :  0.27  584H :  0.27   75H :  0.27  303H :  0.27
  275H :  0.26  447H :  0.26  159H :  0.26  179H :  0.26  212H :  0.25  372H :  0.25  368H :  0.25    2H :  0.25  393H :  0.25  632H :  0.24   86H :  0.24  101H :  0.24
  378H :  0.24  395H :  0.23  350H :  0.23  182H :  0.23  671H :  0.22  164H :  0.22  440H :  0.22  377H :  0.22  617H :  0.21  254H :  0.21   72H :  0.21  645H :  0.21
  108H :  0.21  410H :  0.21  500H :  0.20  342H :  0.20  333H :  0.20  629H :  0.20   24H :  0.20  398H :  0.20  249H :  0.20  302H :  0.19  233H :  0.19  348H :  0.19
  642H :  0.19  494H :  0.19  183H :  0.19  712O :  0.19  452H :  0.19  608H :  0.19  621H :  0.18  341H :  0.18   27H :  0.18  237H :  0.18  456H :  0.18  680H :  0.18
  714H :  0.17  104H :  0.17  506H :  0.17   69H :  0.17  296H :  0.17  572H :  0.17  636H :  0.16  122H :  0.16  609H :  0.16  285H :  0.16  318H :  0.16  684H :  0.16
  189H :  0.16  698H :  0.16  374H :  0.16  416H :  0.16  262O :  0.16  356H :  0.16  294H :  0.16  305H :  0.15  546H :  0.15  686H :  0.15  126H :  0.15  133O :  0.15
   33H :  0.15  704H :  0.15  282H :  0.15  287H :  0.15  480H :  0.15  485H :  0.14  384H :  0.14  461H :  0.14  528H :  0.14  653H :  0.14   62H :  0.14  453H :  0.14
  191H :  0.14  381H :  0.13  417H :  0.13  309H :  0.13  323H :  0.13  654H :  0.13  185H :  0.13  534H :  0.13  477H :  0.12  585H :  0.12  134H :  0.12  270H :  0.12
  320H :  0.12  419H :  0.12  221H :  0.12  744H :  0.11  729H :  0.11  162H :  0.11  128H :  0.11  314H :  0.11  324H :  0.11  630H :  0.11  594H :  0.11  297H :  0.11
  596H :  0.11  155H :  0.11   81H :  0.11   63H :  0.11  276H :  0.11  140H :  0.11  521H :  0.11  267H :  0.10  558H :  0.10  644H :  0.10  732H :  0.10    3H :  0.10
  560H :  0.10  365H :  0.10  432H :  0.10  743H :  0.10  167H :  0.09   56H :  0.09  194H :  0.09  471H :  0.09  264H :  0.09  288H :  0.09  210H :  0.09  536H :  0.09
   65H :  0.09  354H :  0.09   14H :  0.09  689H :  0.09  603H :  0.09  690H :  0.08  737H :  0.08  300H :  0.08  723H :  0.08  308H :  0.08  692H :  0.08  516H :  0.08
  731H :  0.08   60H :  0.08   18H :  0.08  363H :  0.08  495H :  0.08   93H :  0.08  567H :  0.08  359H :  0.08   77H :  0.08   44H :  0.08  360H :  0.08  437H :  0.08
  402H :  0.08  317H :  0.08  551H :  0.07  203H :  0.07  312H :  0.07  176H :  0.07
    7 LP   *******   0.00 -14.52304   3.12974 -10.55510  361O : 17.48  436O : 13.10  736O : 11.41  460O : 11.25  178O : 10.66   37O :  9.98  130O :  9.90  505O :  8.98  694O :  7.83  169O :  7.29  547O :  7.26  238O :  7.23
   73O :  6.94  700O :  6.88  391O :  6.86  418O :  6.85  520O :  6.83  676O :  6.69  622O :  6.45  703O :  6.36  307O :  6.28  184O :  6.07  379O :  6.01   61O :  5.95
  595O :  5.94  523O :  5.59  163O :  5.53  364O :  5.52   70O :  5.38  136O :  5.34  286O :  5.32  484O :  5.17   16O :  5.04  403O :  5.01  319O :  4.96  727O :  4.90
  592O :  4.89  250O :  4.88  253O :  4.87  232O :  4.86   88O :  4.81  187O :  4.78  160O :  4.75  544O :  4.74  493O :  4.73  475O :  4.70  199O :  4.64  172O :  4.63
  670O :  4.41  490O :  4.41  631O :  4.37   34O :  4.35  310O :  4.31  421O :  4.29  535O :  4.23   25O :  4.22  733O :  4.17   52O :  4.15    1O :  4.11  481O :  4.09
  580O :  4.02  352O :  4.02  202O :  3.94  499O :  3.94  553O :  3.89  151O :  3.89  583O :  3.87  472O :  3.86  739O :  3.82  277O :  3.79  469O :  3.79  589O :  3.78
  355O :  3.77  190O :  3.67  340O :  3.61  463O :  3.59  451O :  3.58  181O :  3.55  142O :  3.53  640O :  3.50  718O :  3.46  304O :  3.40  121O :  3.39  646O :  3.37
  466O :  3.35  346O :  3.34  205O :  3.34  301O :  3.30  376O :  3.24   19O :  3.20  358O :  3.18  610O :  3.18  754O :  3.11  316O :  3.08  448O :  3.07   43O :  3.07
  688O :  3.06  478O :  3.06  148O :  3.03  706O :  2.96  664O :  2.93   55O :  2.86  574O :  2.84  166O :  2.80  679O :  2.75  715O :  2.72  532O :  2.66  388O :  2.65
    4O :  2.62  124O :  2.57  454O :  2.56   97O :  2.55  424O :  2.52  541O :  2.52  577O :  2.51   94O :  2.48    7O :  2.48  658O :  2.47  343O :  2.46  487O :  2.44
  289O :  2.41  691O :  2.39  235O :  2.36  556O :  2.35  649O :  2.35  619O :  2.32  283O :  2.29  271O :  2.26  328O :  2.26  628O :  2.25  127O :  2.24  280O :  2.23
  724O :  2.17  511O :  2.16   85O :  2.13  334O :  2.13  586O :  2.11  241O :  2.06  211O :  2.03  106O :  2.03  745O :  1.97   67O :  1.92  193O :  1.91  217O :  1.90
  322O :  1.89  685O :  1.78  538O :  1.74  430O :  1.73  214O :  1.71  607O :  1.71  118O :  1.69  337O :  1.68  562O :  1.67  274O :  1.66  394O :  1.66  502O :  1.64
  295O :  1.63  247O :  1.62  265O :  1.56  625O :  1.56  226O :  1.56  604O :  1.52  433O :  1.52  730O :  1.52  385O :  1.51  598O :  1.49   22O :  1.48  655O :  1.45
  400O :  1.45  496O :  1.37  514O :  1.37  550O :  1.37  571O :  1.36  115O :  1.34  709O :  1.34  397O :  1.33  697O :  1.31  565O :  1.31  382O :  1.31   91O :  1.30
  145O :  1.30  109O :  1.28   64O :  1.28   13O :  1.26  634O :  1.21  738H :  1.21   82O :  1.20  462H :  1.20   46O :  1.17  311H :  1.17  529O :  1.16  742O :  1.16
  112O :  1.14  601O :  1.13  616O :  1.12  661O :  1.10   28O :  1.07  439O :  1.06  373O :  1.06  157O :  1.04  525H :  1.03  208O :  1.00  415O :  1.00   40O :  0.98
  349O :  0.98  442O :  0.97  244O :  0.96  313O :  0.92  422H :  0.90  196O :  0.88  427O :  0.87  234H :  0.87   58O :  0.86  652O :  0.85  409O :  0.82  223O :  0.81
  467H :  0.81  474H :  0.80  548H :  0.80  103O :  0.80  175O :  0.79  517O :  0.79  412O :  0.79  370O :  0.78  154O :  0.78  508O :  0.78  682O :  0.77  367O :  0.77
   17H :  0.76  362H :  0.75  748O :  0.75   76O :  0.72  728H :  0.72  526O :  0.70  613O :  0.69  406O :  0.68  207H :  0.67  186H :  0.67  392H :  0.67  331O :  0.67
   49O :  0.65  489H :  0.64  325O :  0.63  611H :  0.62  537H :  0.61  554H :  0.60  637O :  0.60  559O :  0.58  457O :  0.56  144H :  0.56   68H :  0.56   31O :  0.56
  545H :  0.56   20H :  0.55  568O :  0.55  659H :  0.55   54H :  0.54  687H :  0.53  468H :  0.53  605H :  0.52  643O :  0.52  220O :  0.52  298O :  0.49   83H :  0.48
  229O :  0.47  710H :  0.47  256O :  0.46  564H :  0.46  445O :  0.46  735H :  0.45  665H :  0.45  123H :  0.45  725H :  0.45  693H :  0.43  667O :  0.42  251H :  0.42
  111H :  0.42  243H :  0.42  188H :  0.41  139O :  0.41  721O :  0.41  638H :  0.41  168H :  0.41  491H :  0.41  125H :  0.40  173H :  0.40  147H :  0.40  620H :  0.39
  292O :  0.38  273H :  0.38  252H :  0.37   79O :  0.37  137H :  0.37  114H :  0.37  751O :  0.36   10O :  0.36  291H :  0.35  673O :  0.35  390H :  0.35  552H :  0.34
  143H :  0.33  201H :  0.33  672H :  0.33  171H :  0.32  750H :  0.32  195H :  0.32   96H :  0.31  747H :  0.31  465H :  0.31    8H :  0.31  434H :  0.30  591H :  0.30
  100O :  0.29  259O :  0.29   92H :  0.28  662H :  0.27  179H :  0.27   36H :  0.27  726H :  0.27   98H :  0.27  215H :  0.26  150H :  0.26  218H :  0.26  470H :  0.26
  720H :  0.25  581H :  0.25  501H :  0.25  386H :  0.25  431H :  0.24  641H :  0.24  180H :  0.24  420H :  0.24  371H :  0.24  228H :  0.24  584H :  0.24   75H :  0.24
  303H :  0.24  275H :  0.23  447H :  0.23  159H :  0.23  212H :  0.22  372H :  0.22  368H :  0.22    2H :  0.22  393H :  0.22  632H :  0.21  101H :  0.21   86H :  0.21
  378H :  0.21  395H :  0.20  350H :  0.20  182H :  0.20  671H :  0.19  164H :  0.19  440H :  0.19  377H :  0.19  617H :  0.19  254H :  0.19   72H :  0.19  645H :  0.19
  108H :  0.18  410H :  0.18  500H :  0.18  342H :  0.18  333H :  0.18  629H :  0.18   24H :  0.18  398H :  0.18  249H :  0.17  348H :  0.17  302H :  0.17  233H :  0.17
  642H :  0.17  494H :  0.17  183H :  0.17  712O :  0.17  452H :  0.17  608H :  0.16  621H :  0.16  341H :  0.16   27H :  0.16  237H :  0.16  456H :  0.16  680H :  0.15
  714H :  0.15  104H :  0.15  506H :  0.15   69H :  0.15  296H :  0.15  572H :  0.15  122H :  0.14  609H :  0.14  636H :  0.14  285H :  0.14  318H :  0.14  684H :  0.14
  698H :  0.14  374H :  0.14  416H :  0.14  262O :  0.14  356H :  0.14  294H :  0.14  305H :  0.14  189H :  0.14  686H :  0.13  126H :  0.13  133O :  0.13   33H :  0.13
  704H :  0.13  282H :  0.13  287H :  0.13  480H :  0.13  485H :  0.13  384H :  0.13  461H :  0.13  528H :  0.12  653H :  0.12   62H :  0.12  453H :  0.12  191H :  0.12
  381H :  0.12  417H :  0.12  309H :  0.12  323H :  0.11  654H :  0.11  534H :  0.11  477H :  0.11  585H :  0.11  134H :  0.11  185H :  0.11  270H :  0.10  320H :  0.10
  419H :  0.10  221H :  0.10  744H :  0.10  729H :  0.10  162H :  0.10  128H :  0.10  630H :  0.10  324H :  0.10  594H :  0.10  297H :  0.10  596H :  0.10  155H :  0.10
   81H :  0.10   63H :  0.09  276H :  0.09  140H :  0.09  521H :  0.09  314H :  0.09  267H :  0.09  558H :  0.09  644H :  0.09  732H :  0.09    3H :  0.09  560H :  0.09
  365H :  0.08  432H :  0.08  743H :  0.08  167H :  0.08   56H :  0.08  194H :  0.08  471H :  0.08  264H :  0.08  288H :  0.08  210H :  0.08  536H :  0.08   65H :  0.08
  354H :  0.08   14H :  0.08  689H :  0.08  603H :  0.08   60H :  0.07   77H :  0.07  690H :  0.07  737H :  0.07  300H :  0.07  723H :  0.07  308H :  0.07  692H :  0.07
  516H :  0.07  731H :  0.07   93H :  0.07   18H :  0.07  495H :  0.07
    8 LP   *******   0.00  20.89332 -30.64117   1.54169  361O : 17.37  436O : 13.03  736O : 11.34  460O : 11.17   37O :  9.91  130O :  9.83  505O :  8.91  178O :  8.83  520O :  8.47  694O :  7.78  169O :  7.24  547O :  7.21
  238O :  7.16   73O :  6.88  700O :  6.84  391O :  6.81  418O :  6.80  676O :  6.64  622O :  6.41  703O :  6.31  307O :  6.23  184O :  6.03  379O :  5.97   61O :  5.91
  595O :  5.90  523O :  5.55  163O :  5.50  364O :  5.48  286O :  5.38   70O :  5.34  136O :  5.31   16O :  5.00  403O :  4.97  319O :  4.93  727O :  4.87  592O :  4.86
  250O :  4.85  253O :  4.84  232O :  4.83   88O :  4.78  484O :  4.76  187O :  4.75  160O :  4.72  493O :  4.70  544O :  4.70  475O :  4.67  199O :  4.61  172O :  4.60
  670O :  4.38  490O :  4.38  631O :  4.34   34O :  4.31  421O :  4.26  310O :  4.23  535O :  4.20   25O :  4.19  733O :  4.14   52O :  4.13    1O :  4.08  481O :  4.06
  580O :  4.00  352O :  4.00  499O :  3.92  202O :  3.92  553O :  3.87  151O :  3.86  472O :  3.85  583O :  3.84  739O :  3.79  277O :  3.77  469O :  3.76  589O :  3.75
  355O :  3.74  190O :  3.65  340O :  3.59  463O :  3.57  451O :  3.56  142O :  3.54  181O :  3.53  640O :  3.47  718O :  3.44  304O :  3.38  121O :  3.37  646O :  3.34
  466O :  3.33  205O :  3.32  346O :  3.31  301O :  3.28  376O :  3.22   19O :  3.18  358O :  3.16  610O :  3.16  754O :  3.09  316O :  3.06  448O :  3.05   43O :  3.05
  688O :  3.04  478O :  3.04  148O :  3.01  706O :  2.94  664O :  2.91   55O :  2.84  574O :  2.82  166O :  2.78  679O :  2.73  715O :  2.70  532O :  2.64  388O :  2.63
    4O :  2.60  124O :  2.55  454O :  2.54   97O :  2.54  424O :  2.50  541O :  2.50  577O :  2.49   94O :  2.47    7O :  2.46  658O :  2.45  343O :  2.45  487O :  2.43
  556O :  2.40  289O :  2.39  691O :  2.37  235O :  2.35  649O :  2.33  619O :  2.30  283O :  2.27  271O :  2.25  328O :  2.25  628O :  2.24  127O :  2.23  280O :  2.21
  724O :  2.15  511O :  2.15   85O :  2.12  334O :  2.12  586O :  2.09  241O :  2.05  211O :  2.02  106O :  2.01  745O :  1.96   67O :  1.90  217O :  1.89  193O :  1.88
  322O :  1.87  685O :  1.76  538O :  1.73  214O :  1.70  430O :  1.70  607O :  1.70  118O :  1.68  337O :  1.67  562O :  1.66  274O :  1.65  394O :  1.65  502O :  1.63
  295O :  1.62  247O :  1.58  265O :  1.55  625O :  1.55  226O :  1.55  604O :  1.51  730O :  1.51  385O :  1.50  598O :  1.48   22O :  1.47  655O :  1.44  433O :  1.44
  400O :  1.44  496O :  1.36  514O :  1.36  550O :  1.36  571O :  1.35  115O :  1.33  709O :  1.33  397O :  1.32  697O :  1.30  565O :  1.30  382O :  1.30  145O :  1.29
   91O :  1.29  109O :  1.27   64O :  1.27   13O :  1.25  634O :  1.20  738H :  1.20   82O :  1.19  462H :  1.19   46O :  1.17  742O :  1.15  529O :  1.15  112O :  1.14
  311H :  1.14  601O :  1.12  616O :  1.11  196O :  1.09  661O :  1.09   28O :  1.06  373O :  1.05  439O :  1.05  157O :  1.03  525H :  1.03  208O :  1.00  415O :  0.99
  349O :  0.98   40O :  0.97  442O :  0.96  244O :  0.94  313O :  0.91  422H :  0.90  427O :  0.87  234H :  0.86   58O :  0.86  652O :  0.85  409O :  0.82  223O :  0.80
  467H :  0.80  474H :  0.80  548H :  0.79  103O :  0.79  517O :  0.79  412O :  0.78  175O :  0.78  370O :  0.78  154O :  0.78  508O :  0.77  682O :  0.77  367O :  0.77
   17H :  0.76  362H :  0.75  748O :  0.74  728H :  0.71   76O :  0.71  526O :  0.70  613O :  0.68  406O :  0.68  186H :  0.67  207H :  0.67  392H :  0.67  331O :  0.67
   49O :  0.65  489H :  0.64  325O :  0.63  611H :  0.62  537H :  0.60  554H :  0.60  637O :  0.59  559O :  0.58  457O :  0.56  144H :  0.56   31O :  0.55  545H :  0.55
   68H :  0.55   20H :  0.55  568O :  0.54  659H :  0.54   54H :  0.54  687H :  0.52  468H :  0.52  605H :  0.52  643O :  0.52  220O :  0.51  298O :  0.48   83H :  0.48
  229O :  0.47  710H :  0.47  256O :  0.46  564H :  0.46  445O :  0.45  735H :  0.45  665H :  0.45  123H :  0.45  725H :  0.45  693H :  0.43  251H :  0.42  111H :  0.42
  243H :  0.41  188H :  0.41  139O :  0.41  721O :  0.41  638H :  0.41  667O :  0.41  168H :  0.40  491H :  0.40  125H :  0.40  173H :  0.40  147H :  0.39  620H :  0.39
  292O :  0.37  273H :  0.37  252H :  0.37   79O :  0.37  137H :  0.37  114H :  0.36  751O :  0.36   10O :  0.35  291H :  0.35  673O :  0.35  390H :  0.34  143H :  0.34
  552H :  0.34  201H :  0.33  672H :  0.33  171H :  0.32  750H :  0.32  195H :  0.31   96H :  0.31  747H :  0.31  465H :  0.31    8H :  0.30  180H :  0.30  591H :  0.29
  434H :  0.29  100O :  0.29  259O :  0.29   92H :  0.28  662H :  0.27   36H :  0.26  726H :  0.26   98H :  0.26  215H :  0.26  150H :  0.26  218H :  0.26  470H :  0.26
  720H :  0.25  581H :  0.25  501H :  0.25  386H :  0.25  641H :  0.24  431H :  0.24  420H :  0.24  371H :  0.24  228H :  0.24  584H :  0.24   75H :  0.23  303H :  0.23
  275H :  0.23  447H :  0.23  159H :  0.23  179H :  0.22  212H :  0.22  372H :  0.22  368H :  0.22    2H :  0.22  393H :  0.22  632H :  0.21   86H :  0.21  101H :  0.21
  378H :  0.21  395H :  0.20  350H :  0.20  182H :  0.20  671H :  0.19  164H :  0.19  440H :  0.19  377H :  0.19  617H :  0.19  254H :  0.19   72H :  0.18  645H :  0.18
  108H :  0.18  410H :  0.18  500H :  0.18  342H :  0.18  333H :  0.18  629H :  0.18   24H :  0.18  398H :  0.17  249H :  0.17  302H :  0.17  233H :  0.17  348H :  0.17
  642H :  0.17  494H :  0.17  183H :  0.17  712O :  0.17  452H :  0.16  237H :  0.16  608H :  0.16  341H :  0.16  621H :  0.16   27H :  0.16  680H :  0.15  456H :  0.15
  714H :  0.15  104H :  0.15  506H :  0.15   69H :  0.15  296H :  0.15  572H :  0.14  636H :  0.14  122H :  0.14  609H :  0.14  285H :  0.14  318H :  0.14  684H :  0.14
  287H :  0.14  698H :  0.14  374H :  0.14  416H :  0.14  262O :  0.14  356H :  0.14  294H :  0.14  305H :  0.14  189H :  0.13  126H :  0.13  686H :  0.13  133O :  0.13
   33H :  0.13  704H :  0.13  282H :  0.13  480H :  0.13  384H :  0.13  461H :  0.13  528H :  0.12  653H :  0.12   62H :  0.12  453H :  0.12  191H :  0.12  381H :  0.12
  417H :  0.12  309H :  0.12  654H :  0.11  323H :  0.11  534H :  0.11  477H :  0.11  585H :  0.11  134H :  0.11  185H :  0.11  270H :  0.10  320H :  0.10  419H :  0.10
  221H :  0.10  744H :  0.10  729H :  0.10  162H :  0.10  128H :  0.10  630H :  0.10  314H :  0.10  324H :  0.10  594H :  0.10  297H :  0.10  596H :  0.10  155H :  0.10
   81H :  0.09   63H :  0.09  276H :  0.09  140H :  0.09  267H :  0.09  558H :  0.09  644H :  0.09  732H :  0.09    3H :  0.09  560H :  0.09  432H :  0.08  365H :  0.08
  743H :  0.08  167H :  0.08  194H :  0.08   56H :  0.08  471H :  0.08  288H :  0.08  264H :  0.08  210H :  0.08  536H :  0.08   65H :  0.08  354H :  0.08   14H :  0.08
  689H :  0.07  603H :  0.07  690H :  0.07  737H :  0.07  300H :  0.07  723H :  0.07  308H :  0.07  692H :  0.07  516H :  0.07  731H :  0.07   60H :  0.07  363H :  0.07
   18H :  0.07  495H :  0.07
    9 LP   *******   0.00  92.21506   0.92607 -45.03821  361O : 16.60  436O : 12.44  736O : 10.84  460O : 10.69   37O :  9.45  130O :  9.40  505O :  8.52  178O :  8.44  307O :  8.39  694O :  7.44  169O :  6.92  547O :  6.89
  238O :  6.85   73O :  6.60  700O :  6.54  391O :  6.51  418O :  6.50  520O :  6.49  676O :  6.35  622O :  6.13  703O :  6.04  184O :  5.76  379O :  5.71   61O :  5.65
  595O :  5.64  523O :  5.31  163O :  5.26  364O :  5.24  136O :  5.14   70O :  5.11  286O :  5.05  484O :  4.91   16O :  4.79  403O :  4.75  319O :  4.71  727O :  4.66
  592O :  4.64  250O :  4.64  253O :  4.63  232O :  4.62   88O :  4.57  187O :  4.54  160O :  4.51  493O :  4.50  544O :  4.49  475O :  4.46  199O :  4.41  172O :  4.39
  670O :  4.19  490O :  4.19  631O :  4.15   34O :  4.13  421O :  4.07  310O :  4.05  535O :  4.02   25O :  4.01  733O :  3.96   52O :  3.95    1O :  3.90  481O :  3.88
  580O :  3.82  352O :  3.82  202O :  3.74  499O :  3.74  151O :  3.70  553O :  3.69  583O :  3.69  472O :  3.67  739O :  3.62  277O :  3.60  469O :  3.60  589O :  3.59
  355O :  3.58  190O :  3.49  340O :  3.43  463O :  3.41  451O :  3.40  142O :  3.39  181O :  3.37  640O :  3.32  718O :  3.28  304O :  3.23  121O :  3.22  646O :  3.20
  466O :  3.18  205O :  3.18  346O :  3.17  301O :  3.13  376O :  3.08   19O :  3.04  358O :  3.02  610O :  3.02   43O :  2.97  754O :  2.95  316O :  2.93  448O :  2.92
  688O :  2.91  478O :  2.91  148O :  2.87  706O :  2.81  664O :  2.78   55O :  2.71  574O :  2.71  679O :  2.61  166O :  2.59  715O :  2.58  532O :  2.53  388O :  2.52
    4O :  2.49  124O :  2.44  454O :  2.43   97O :  2.43  424O :  2.40  541O :  2.39  577O :  2.38   94O :  2.36    7O :  2.35  658O :  2.35  343O :  2.34  487O :  2.32
  556O :  2.30  289O :  2.29  691O :  2.27  235O :  2.24  649O :  2.23  619O :  2.20  283O :  2.17  271O :  2.15  328O :  2.15  628O :  2.14  127O :  2.13  280O :  2.12
  724O :  2.06  511O :  2.05   85O :  2.02  334O :  2.02  586O :  2.00  241O :  1.96  211O :  1.93  106O :  1.93  745O :  1.87   67O :  1.82  217O :  1.81  193O :  1.80
  322O :  1.77  685O :  1.69  538O :  1.65  430O :  1.64  214O :  1.63  607O :  1.63  118O :  1.61  337O :  1.60  562O :  1.59  274O :  1.58  394O :  1.58  502O :  1.56
  295O :  1.55  247O :  1.54  265O :  1.49  625O :  1.48  226O :  1.48  604O :  1.44  433O :  1.44  730O :  1.44  385O :  1.43  598O :  1.41   22O :  1.41  655O :  1.38
  400O :  1.38  496O :  1.30  514O :  1.30  550O :  1.30  571O :  1.29  115O :  1.27  709O :  1.27  397O :  1.26  697O :  1.25  565O :  1.24  382O :  1.24  145O :  1.24
   91O :  1.23   64O :  1.22  109O :  1.21   13O :  1.20  634O :  1.15  738H :  1.14   82O :  1.14  462H :  1.14   46O :  1.12  529O :  1.10  742O :  1.10  311H :  1.09
  112O :  1.09  601O :  1.07  616O :  1.07  196O :  1.04  661O :  1.04   28O :  1.01  373O :  1.00  439O :  1.00  157O :  0.98  525H :  0.98  208O :  0.95  415O :  0.95
  349O :  0.93   40O :  0.93  442O :  0.92  244O :  0.90  313O :  0.87  422H :  0.86  427O :  0.83  234H :  0.82   58O :  0.82  652O :  0.81  409O :  0.78  223O :  0.77
  467H :  0.77  474H :  0.76  548H :  0.76  103O :  0.76  517O :  0.76  412O :  0.75  175O :  0.75  370O :  0.74  154O :  0.74  508O :  0.74  682O :  0.73  367O :  0.73
   17H :  0.73  362H :  0.71  748O :  0.71  728H :  0.68   76O :  0.68  526O :  0.67  613O :  0.65  406O :  0.65  186H :  0.64  207H :  0.64  392H :  0.64  331O :  0.64
   49O :  0.62  489H :  0.61  325O :  0.60  611H :  0.59  537H :  0.58  554H :  0.57  637O :  0.57  559O :  0.55  457O :  0.53  144H :  0.53   68H :  0.53   31O :  0.53
  545H :  0.53   20H :  0.52  568O :  0.52  659H :  0.52   54H :  0.52  687H :  0.50  468H :  0.50  605H :  0.50  643O :  0.50  220O :  0.49  298O :  0.46   83H :  0.46
  229O :  0.45  710H :  0.45  256O :  0.44  564H :  0.44  445O :  0.43  735H :  0.43  665H :  0.43  123H :  0.43  725H :  0.43  693H :  0.41  251H :  0.40  111H :  0.40
  243H :  0.40  188H :  0.39  139O :  0.39  721O :  0.39  667O :  0.39  638H :  0.39  491H :  0.39  168H :  0.39  125H :  0.38  173H :  0.38  147H :  0.38  620H :  0.37
  292O :  0.36  273H :  0.36  252H :  0.35  137H :  0.35  114H :  0.35   79O :  0.35  751O :  0.35   10O :  0.34  291H :  0.33  673O :  0.33  390H :  0.33  143H :  0.32
  552H :  0.32  201H :  0.32  672H :  0.32  171H :  0.31  750H :  0.30  195H :  0.30   96H :  0.30  747H :  0.30  465H :  0.29    8H :  0.29  180H :  0.29  434H :  0.28
  591H :  0.28  100O :  0.28  259O :  0.27   92H :  0.26  662H :  0.26   36H :  0.25   98H :  0.25  726H :  0.25  215H :  0.25  150H :  0.25  218H :  0.25  470H :  0.25
  720H :  0.24  581H :  0.24  501H :  0.24  386H :  0.24  431H :  0.23  641H :  0.23  420H :  0.23  371H :  0.23  584H :  0.23  228H :  0.23   75H :  0.22  303H :  0.22
  134H :  0.22  275H :  0.22  447H :  0.22  159H :  0.22  179H :  0.21  212H :  0.21  372H :  0.21  368H :  0.21    2H :  0.21  393H :  0.21  632H :  0.20   86H :  0.20
  101H :  0.20  378H :  0.20  395H :  0.19  350H :  0.19  182H :  0.19  671H :  0.18  164H :  0.18  440H :  0.18  377H :  0.18  617H :  0.18  254H :  0.18   72H :  0.18
  645H :  0.18  108H :  0.17  410H :  0.17  500H :  0.17  333H :  0.17  342H :  0.17  629H :  0.17   24H :  0.17  398H :  0.17  249H :  0.17  302H :  0.16  233H :  0.16
  348H :  0.16  642H :  0.16  494H :  0.16  183H :  0.16  712O :  0.16  452H :  0.16  608H :  0.16  621H :  0.15  341H :  0.15   27H :  0.15  237H :  0.15  456H :  0.15
  680H :  0.15  714H :  0.15  104H :  0.14  506H :  0.14   69H :  0.14  296H :  0.14  572H :  0.14  636H :  0.14  122H :  0.14  609H :  0.14  285H :  0.14  318H :  0.13
  684H :  0.13  698H :  0.13  374H :  0.13  416H :  0.13  262O :  0.13  356H :  0.13  294H :  0.13  305H :  0.13  189H :  0.13  686H :  0.13  126H :  0.13   33H :  0.12
  704H :  0.12  282H :  0.12  287H :  0.12  480H :  0.12  485H :  0.12  384H :  0.12  461H :  0.12  528H :  0.12  653H :  0.12   62H :  0.11  453H :  0.11  191H :  0.11
  381H :  0.11  417H :  0.11  654H :  0.11  534H :  0.11  585H :  0.10  477H :  0.10  185H :  0.10  270H :  0.10  320H :  0.10  419H :  0.10  221H :  0.10  744H :  0.10
  729H :  0.10  162H :  0.09  128H :  0.09  630H :  0.09  314H :  0.09  594H :  0.09  323H :  0.09  324H :  0.09  133O :  0.09  297H :  0.09  596H :  0.09  155H :  0.09
[...]
   370   8 o    1.846 --   372 h    0.887   371 h    0.803
   371   1 h    0.882 --   370 o    0.803
   372   1 h    0.902 --   370 o    0.887
   373   8 o    1.839 --   375 h    0.914   374 h    0.788
   374   1 h    0.873 --   373 o    0.788
   375   1 h    0.922 --   373 o    0.914
   376   8 o    1.842 --   378 h    0.827   377 h    0.816
   377   1 h    0.880 --   376 o    0.816
   378   1 h    0.882 --   376 o    0.827
   379   8 o    1.842 --   381 h    0.882   380 h    0.828
   380   1 h    0.883 --   379 o    0.828
   381   1 h    0.901 --   379 o    0.882
   382   8 o    1.846 --   384 h    0.861   383 h    0.796
   383   1 h    0.870 --   382 o    0.796
   384   1 h    0.897 --   382 o    0.861
   385   8 o    1.859 --   386 h    0.827   387 h    0.795
   386   1 h    0.885 --   385 o    0.827
   387   1 h    0.874 --   385 o    0.795
   388   8 o    1.805 --   389 h    0.885   390 h    0.812
   389   1 h    0.903 --   388 o    0.885
   390   1 h    0.888 --   388 o    0.812
   391   8 o    1.842 --   393 h    0.876   392 h    0.858
   392   1 h    0.897 --   391 o    0.858
   393   1 h    0.898 --   391 o    0.876
   394   8 o    1.889 --   396 h    0.828   395 h    0.804
   395   1 h    0.876 --   394 o    0.804
   396   1 h    0.878 --   394 o    0.828
   397   8 o    1.869 --   398 h    0.830   399 h    0.829
   398   1 h    0.890 --   397 o    0.830
   399   1 h    0.878 --   397 o    0.829
   400   8 o    1.874 --   401 h    0.836   402 h    0.823
   401   1 h    0.878 --   400 o    0.836
   402   1 h    0.884 --   400 o    0.823
   403   8 o    1.874 --   404 h    0.837   405 h    0.818   527 h    0.104
   404   1 h    0.884 --   403 o    0.837
   405   1 h    0.880 --   403 o    0.818
   406   8 o    1.846 --   407 h    0.827   408 h    0.815
   407   1 h    0.879 --   406 o    0.827
   408   1 h    0.881 --   406 o    0.815
   409   8 o    1.864 --   410 h    0.876   411 h    0.785
   410   1 h    0.898 --   409 o    0.876
   411   1 h    0.876 --   409 o    0.785
   412   8 o    1.870 --   413 h    0.854   414 h    0.788
   413   1 h    0.896 --   412 o    0.854
   414   1 h    0.876 --   412 o    0.788
   415   8 o    1.863 --   416 h    0.890   417 h    0.784
   416   1 h    0.908 --   415 o    0.890
   417   1 h    0.874 --   415 o    0.784
   418   8 o    1.871 --   419 h    0.860   420 h    0.849
   419   1 h    0.897 --   418 o    0.860
   420   1 h    0.893 --   418 o    0.849
   421   8 o    1.828 --   423 h    0.856   422 h    0.841
   422   1 h    0.894 --   421 o    0.841
   423   1 h    0.893 --   421 o    0.856
   424   8 o    1.840 --   425 h    0.907   426 h    0.807
   425   1 h    0.913 --   424 o    0.907
   426   1 h    0.883 --   424 o    0.807
   427   8 o    1.835 --   428 h    0.887   429 h    0.831
   428   1 h    0.902 --   427 o    0.887
   429   1 h    0.889 --   427 o    0.831
   430   8 o    1.835 --   432 h    0.878   431 h    0.845
   431   1 h    0.890 --   430 o    0.845
   432   1 h    0.900 --   430 o    0.878
   433   8 o    1.867 --   435 h    0.823   434 h    0.794
   434   1 h    0.877 --   433 o    0.794
   435   1 h    0.885 --   433 o    0.823
   436   8 o    1.843 --   437 h    0.859   438 h    0.829
   437   1 h    0.892 --   436 o    0.859
   438   1 h    0.885 --   436 o    0.829
   439   8 o    1.868 --   440 h    0.852   441 h    0.834
   440   1 h    0.887 --   439 o    0.852
   441   1 h    0.878 --   439 o    0.834
   442   8 o    1.836 --   444 h    0.855   443 h    0.829
   443   1 h    0.890 --   442 o    0.829
   444   1 h    0.896 --   442 o    0.855
   445   8 o    1.829 --   447 h    0.871   446 h    0.809
   446   1 h    0.877 --   445 o    0.809
   447   1 h    0.903 --   445 o    0.871
   448   8 o    1.819 --   450 h    0.872   449 h    0.831
   449   1 h    0.888 --   448 o    0.831
   450   1 h    0.903 --   448 o    0.872
   451   8 o    1.853 --   453 h    0.913   452 h    0.826
   452   1 h    0.876 --   451 o    0.826
   453   1 h    0.917 --   451 o    0.913
   454   8 o    1.827 --   455 h    0.850   456 h    0.846
   455   1 h    0.895 --   454 o    0.850
   456   1 h    0.891 --   454 o    0.846
   457   8 o    1.863 --   458 h    0.858   459 h    0.841
   458   1 h    0.894 --   457 o    0.858
   459   1 h    0.884 --   457 o    0.841
   460   8 o    1.834 --   462 h    0.872   461 h    0.833
   461   1 h    0.891 --   460 o    0.833
   462   1 h    0.905 --   460 o    0.872
   463   8 o    1.836 --   464 h    0.872   465 h    0.825
   464   1 h    0.900 --   463 o    0.872
   465   1 h    0.888 --   463 o    0.825
   466   8 o    1.858 --   468 h    0.841   467 h    0.799
   467   1 h    0.883 --   466 o    0.799
   468   1 h    0.890 --   466 o    0.841
   469   8 o    1.856 --   471 h    0.832   470 h    0.819
   470   1 h    0.886 --   469 o    0.819
   471   1 h    0.888 --   469 o    0.832
   472   8 o    1.842 --   474 h    0.853   473 h    0.853
   473   1 h    0.891 --   472 o    0.853
   474   1 h    0.895 --   472 o    0.853
   475   8 o    1.871 --   476 h    0.872   477 h    0.849
   476   1 h    0.895 --   475 o    0.872
   477   1 h    0.892 --   475 o    0.849
   478   8 o    1.853 --   480 h    0.881   479 h    0.816
   479   1 h    0.881 --   478 o    0.816
   480   1 h    0.902 --   478 o    0.881
   481   8 o    1.824 --   483 h    0.849   482 h    0.825
   482   1 h    0.882 --   481 o    0.825
   483   1 h    0.900 --   481 o    0.849
   484   8 o    1.838 --   486 h    0.887   485 h    0.804
   485   1 h    0.875 --   484 o    0.804
   486   1 h    0.905 --   484 o    0.887
   487   8 o    1.823 --   488 h    0.895   489 h    0.836
   488   1 h    0.910 --   487 o    0.895
   489   1 h    0.886 --   487 o    0.836
   490   8 o    1.842 --   492 h    0.851   491 h    0.819
   491   1 h    0.886 --   490 o    0.819
   492   1 h    0.890 --   490 o    0.851
   493   8 o    1.870 --   494 h    0.851   495 h    0.840
   494   1 h    0.890 --   493 o    0.851
   495   1 h    0.889 --   493 o    0.840
   496   8 o    1.842 --   497 h    0.783   498 h    0.776
   497   1 h    0.876 --   496 o    0.783
   498   1 h    0.874 --   496 o    0.776
   499   8 o    1.837 --   500 h    0.859   501 h    0.849
   500   1 h    0.893 --   499 o    0.859
   501   1 h    0.893 --   499 o    0.849
   502   8 o    1.835 --   504 h    0.876   503 h    0.835
   503   1 h    0.889 --   502 o    0.835
   504   1 h    0.898 --   502 o    0.876
   505   8 o    1.860 --   506 h    0.840   507 h    0.833
   506   1 h    0.887 --   505 o    0.840
   507   1 h    0.884 --   505 o    0.833
   508   8 o    1.844 --   510 h    0.858   509 h    0.834
   509   1 h    0.876 --   508 o    0.834
   510   1 h    0.894 --   508 o    0.858
   511   8 o    1.857 --   513 h    0.845   512 h    0.829
   512   1 h    0.887 --   511 o    0.829
   513   1 h    0.892 --   511 o    0.845
   514   8 o    1.844 --   515 h    0.865   516 h    0.827
   515   1 h    0.893 --   514 o    0.865
   516   1 h    0.881 --   514 o    0.827
   517   8 o    1.886 --   519 h    0.835   518 h    0.790
   518   1 h    0.871 --   517 o    0.790
   519   1 h    0.880 --   517 o    0.835
   520   8 o    1.853 --   521 h    0.852   522 h    0.810
   521   1 h    0.890 --   520 o    0.852
   522   1 h    0.881 --   520 o    0.810
   523   8 o    1.855 --   525 h    0.868   524 h    0.821
   524   1 h    0.886 --   523 o    0.821
   525   1 h    0.901 --   523 o    0.868
   526   8 o    1.815 --   528 h    0.835   527 h    0.760
   527   1 h    0.875 --   526 o    0.760   403 o    0.104
   528   1 h    0.891 --   526 o    0.835
   529   8 o    1.854 --   530 h    0.864   531 h    0.823
   530   1 h    0.898 --   529 o    0.864
   531   1 h    0.889 --   529 o    0.823
   532   8 o    1.823 --   533 h    0.846   534 h    0.837
   533   1 h    0.890 --   532 o    0.846
   534   1 h    0.894 --   532 o    0.837
   535   8 o    1.862 --   536 h    0.913   537 h    0.810
   536   1 h    0.919 --   535 o    0.913
   537   1 h    0.878 --   535 o    0.810
   538   8 o    1.855 --   540 h    0.869   539 h    0.839
   539   1 h    0.880 --   538 o    0.839
   540   1 h    0.898 --   538 o    0.869
   541   8 o    1.849 --   543 h    0.852   542 h    0.821
   542   1 h    0.881 --   541 o    0.821
   543   1 h    0.899 --   541 o    0.852
   544   8 o    1.858 --   546 h    0.838   545 h    0.836
   545   1 h    0.884 --   544 o    0.836
   546   1 h    0.890 --   544 o    0.838
   547   8 o    1.790 --   549 h    0.843   548 h    0.827
   548   1 h    0.891 --   547 o    0.827
   549   1 h    0.895 --   547 o    0.843
   550   8 o    1.851 --   552 h    0.914   551 h    0.826
   551   1 h    0.880 --   550 o    0.826
   552   1 h    0.918 --   550 o    0.914
   553   8 o    1.839 --   554 h    0.895   555 h    0.794
   554   1 h    0.908 --   553 o    0.895
   555   1 h    0.882 --   553 o    0.794
   556   8 o    1.866 --   558 h    0.889   557 h    0.785
   557   1 h    0.873 --   556 o    0.785
   558   1 h    0.906 --   556 o    0.889
   559   8 o    1.848 --   560 h    0.844   561 h    0.818
   560   1 h    0.898 --   559 o    0.844
   561   1 h    0.882 --   559 o    0.818
   562   8 o    1.851 --   564 h    0.846   563 h    0.834
   563   1 h    0.892 --   562 o    0.834
   564   1 h    0.893 --   562 o    0.846
   565   8 o    1.843 --   567 h    0.826   566 h    0.817
   566   1 h    0.887 --   565 o    0.817
   567   1 h    0.885 --   565 o    0.826
   568   8 o    1.852 --   570 h    0.916   569 h    0.795
   569   1 h    0.877 --   568 o    0.795
   570   1 h    0.921 --   568 o    0.916
   571   8 o    1.845 --   572 h    0.872   573 h    0.800
   572   1 h    0.898 --   571 o    0.872
   573   1 h    0.875 --   571 o    0.800
   574   8 o    1.870 --   575 h    0.850   576 h    0.809
   575   1 h    0.882 --   574 o    0.850
   576   1 h    0.878 --   574 o    0.809
   577   8 o    1.858 --   579 h    0.863   578 h    0.813
   578   1 h    0.876 --   577 o    0.813
   579   1 h    0.901 --   577 o    0.863
   580   8 o    1.844 --   581 h    0.852   582 h    0.822
   581   1 h    0.892 --   580 o    0.852
   582   1 h    0.876 --   580 o    0.822
   583   8 o    1.837 --   584 h    0.843   585 h    0.842
   584   1 h    0.883 --   583 o    0.843
   585   1 h    0.883 --   583 o    0.842
   586   8 o    1.861 --   588 h    0.806   587 h    0.781
   587   1 h    0.882 --   586 o    0.781
   588   1 h    0.876 --   586 o    0.806
   589   8 o    1.836 --   591 h    0.839   590 h    0.833
   590   1 h    0.889 --   589 o    0.833
   591   1 h    0.888 --   589 o    0.839
   592   8 o    1.867 --   593 h    0.863   594 h    0.790
   593   1 h    0.894 --   592 o    0.863
   594   1 h    0.878 --   592 o    0.790
   595   8 o    1.848 --   596 h    0.836   597 h    0.829
   596   1 h    0.892 --   595 o    0.836
   597   1 h    0.887 --   595 o    0.829
   598   8 o    1.832 --   600 h    0.873   599 h    0.849
   599   1 h    0.892 --   598 o    0.849
   600   1 h    0.895 --   598 o    0.873
   601   8 o    1.846 --   603 h    0.845   602 h    0.836
   602   1 h    0.885 --   601 o    0.836
   603   1 h    0.895 --   601 o    0.845
   604   8 o    1.887 --   605 h    0.892   606 h    0.792
   605   1 h    0.906 --   604 o    0.892
   606   1 h    0.870 --   604 o    0.792
   607   8 o    1.843 --   608 h    0.846   609 h    0.831
   608   1 h    0.898 --   607 o    0.846
   609   1 h    0.890 --   607 o    0.831
   610   8 o    1.867 --   611 h    0.823   612 h    0.805
   611   1 h    0.888 --   610 o    0.823
   612   1 h    0.877 --   610 o    0.805
   613   8 o    1.831 --   614 h    0.863   615 h    0.851
   614   1 h    0.897 --   613 o    0.863
   615   1 h    0.891 --   613 o    0.851
   616   8 o    1.869 --   618 h    0.874   617 h    0.856
   617   1 h    0.891 --   616 o    0.856
   618   1 h    0.898 --   616 o    0.874
   619   8 o    1.871 --   620 h    0.832   621 h    0.821
   620   1 h    0.890 --   619 o    0.832
   621   1 h    0.877 --   619 o    0.821
   622   8 o    1.893 --   623 h    0.813   624 h    0.813
   623   1 h    0.880 --   622 o    0.813
   624   1 h    0.888 --   622 o    0.813
   625   8 o    1.858 --   626 h    0.913   627 h    0.782
   626   1 h    0.919 --   625 o    0.913
   627   1 h    0.874 --   625 o    0.782
   628   8 o    1.837 --   630 h    0.868   629 h    0.823
   629   1 h    0.884 --   628 o    0.823
   630   1 h    0.902 --   628 o    0.868
   631   8 o    1.846 --   633 h    0.839   632 h    0.804
   632   1 h    0.879 --   631 o    0.804
   633   1 h    0.887 --   631 o    0.839
   634   8 o    1.853 --   635 h    0.915   636 h    0.799
   635   1 h    0.920 --   634 o    0.915
   636   1 h    0.880 --   634 o    0.799
   637   8 o    1.815 --   639 h    0.863   638 h    0.837
   638   1 h    0.879 --   637 o    0.837
   639   1 h    0.899 --   637 o    0.863
   640   8 o    1.812 --   641 h    0.869   642 h    0.846
   641   1 h    0.901 --   640 o    0.869
   642   1 h    0.890 --   640 o    0.846
   643   8 o    1.881 --   645 h    0.834   644 h    0.791
   644   1 h    0.872 --   643 o    0.791
   645   1 h    0.888 --   643 o    0.834
   646   8 o    1.880 --   647 h    0.900   648 h    0.831
   647   1 h    0.906 --   646 o    0.900
   648   1 h    0.884 --   646 o    0.831
   649   8 o    1.859 --   651 h    0.844   650 h    0.797
   650   1 h    0.885 --   649 o    0.797
   651   1 h    0.890 --   649 o    0.844
   652   8 o    1.859 --   653 h    0.859   654 h    0.819
   653   1 h    0.895 --   652 o    0.859
   654   1 h    0.884 --   652 o    0.819
   655   8 o    1.855 --   657 h    0.897   656 h    0.831
   656   1 h    0.888 --   655 o    0.831
   657   1 h    0.909 --   655 o    0.897
   658   8 o    1.865 --   660 h    0.813   659 h    0.805
   659   1 h    0.869 --   658 o    0.805
   660   1 h    0.877 --   658 o    0.813
   661   8 o    1.877 --   663 h    0.814   662 h    0.811
   662   1 h    0.885 --   661 o    0.811
   663   1 h    0.875 --   661 o    0.814
   664   8 o    1.865 --   665 h    0.829   666 h    0.828
   665   1 h    0.889 --   664 o    0.829
   666   1 h    0.890 --   664 o    0.828
   667   8 o    1.861 --   669 h    0.831   668 h    0.806
   668   1 h    0.880 --   667 o    0.806
   669   1 h    0.889 --   667 o    0.831
   670   8 o    1.842 --   672 h    0.840   671 h    0.806
   671   1 h    0.877 --   670 o    0.806
   672   1 h    0.895 --   670 o    0.840
   673   8 o    1.854 --   674 h    0.847   675 h    0.828
   674   1 h    0.888 --   673 o    0.847
   675   1 h    0.889 --   673 o    0.828
   676   8 o    1.871 --   677 h    0.843   678 h    0.828
   677   1 h    0.881 --   676 o    0.843
   678   1 h    0.874 --   676 o    0.828
   679   8 o    1.863 --   681 h    0.837   680 h    0.821
   680   1 h    0.875 --   679 o    0.821
   681   1 h    0.881 --   679 o    0.837
   682   8 o    1.839 --   684 h    0.869   683 h    0.809
   683   1 h    0.885 --   682 o    0.809
   684   1 h    0.895 --   682 o    0.869
   685   8 o    1.867 --   687 h    0.817   686 h    0.807
   686   1 h    0.878 --   685 o    0.807
   687   1 h    0.882 --   685 o    0.817
   688   8 o    1.837 --   690 h    0.834   689 h    0.832
   689   1 h    0.887 --   688 o    0.832
   690   1 h    0.884 --   688 o    0.834
   691   8 o    1.848 --   693 h    0.858   692 h    0.825
   692   1 h    0.890 --   691 o    0.825
   693   1 h    0.891 --   691 o    0.858
   694   8 o    1.872 --   696 h    0.841   695 h    0.796
   695   1 h    0.875 --   694 o    0.796
   696   1 h    0.878 --   694 o    0.841
   697   8 o    1.868 --   699 h    0.802   698 h    0.780
   698   1 h    0.869 --   697 o    0.780
   699   1 h    0.879 --   697 o    0.802
   700   8 o    1.859 --   701 h    0.860   702 h    0.827
   701   1 h    0.894 --   700 o    0.860
   702   1 h    0.886 --   700 o    0.827
   703   8 o    1.862 --   704 h    0.851   705 h    0.847
   704   1 h    0.892 --   703 o    0.851
   705   1 h    0.893 --   703 o    0.847
   706   8 o    1.861 --   707 h    0.907   708 h    0.831
   707   1 h    0.914 --   706 o    0.907
   708   1 h    0.881 --   706 o    0.831
   709   8 o    1.849 --   711 h    0.889   710 h    0.838
   710   1 h    0.887 --   709 o    0.838
   711   1 h    0.904 --   709 o    0.889
   712   8 o    1.819 --   713 h    0.860   714 h    0.827
   713   1 h    0.895 --   712 o    0.860
   714   1 h    0.892 --   712 o    0.827
   715   8 o    1.852 --   716 h    0.812   717 h    0.801
   716   1 h    0.880 --   715 o    0.812
   717   1 h    0.879 --   715 o    0.801
   718   8 o    1.830 --   720 h    0.807   719 h    0.797
   719   1 h    0.881 --   718 o    0.797
   720   1 h    0.879 --   718 o    0.807
   721   8 o    1.843 --   723 h    0.869   722 h    0.817
   722   1 h    0.886 --   721 o    0.817
   723   1 h    0.904 --   721 o    0.869
   724   8 o    1.831 --   726 h    0.829   725 h    0.817
   725   1 h    0.888 --   724 o    0.817
   726   1 h    0.888 --   724 o    0.829
   727   8 o    1.804 --   729 h    0.861   728 h    0.805
   728   1 h    0.884 --   727 o    0.805
   729   1 h    0.895 --   727 o    0.861
   730   8 o    1.846 --   731 h    0.898   732 h    0.803
   731   1 h    0.910 --   730 o    0.898
   732   1 h    0.876 --   730 o    0.803
   733   8 o    1.819 --   735 h    0.880   734 h    0.803
   734   1 h    0.882 --   733 o    0.803
   735   1 h    0.903 --   733 o    0.880
   736   8 o    1.838 --   737 h    0.847   738 h    0.822
   737   1 h    0.890 --   736 o    0.847
   738   1 h    0.890 --   736 o    0.822
   739   8 o    1.849 --   741 h    0.835   740 h    0.825
   740   1 h    0.891 --   739 o    0.825
   741   1 h    0.891 --   739 o    0.835
   742   8 o    1.846 --   743 h    0.873   744 h    0.860
   743   1 h    0.896 --   742 o    0.873
   744   1 h    0.891 --   742 o    0.860
   745   8 o    1.873 --   746 h    0.839   747 h    0.825
   746   1 h    0.884 --   745 o    0.839
   747   1 h    0.882 --   745 o    0.825
   748   8 o    1.836 --   750 h    0.868   749 h    0.854
   749   1 h    0.896 --   748 o    0.854
   750   1 h    0.900 --   748 o    0.868
   751   8 o    1.850 --   753 h    0.883   752 h    0.779
   752   1 h    0.863 --   751 o    0.779
   753   1 h    0.893 --   751 o    0.883
   754   8 o    1.834 --   755 h    0.864   756 h    0.828
   755   1 h    0.890 --   754 o    0.864
   756   1 h    0.891 --   754 o    0.828
 ---------------------------------------------------------------------------

Topologies differ in total number of bonds
Writing topology from bond orders to xtbtopo.mol

molecular dipole:
                 x           y           z       tot (Debye)
 q only:        1.347      -0.142       0.102
   full:        1.142       1.379       0.606       4.804
molecular quadrupole (traceless):
                xx          xy          yy          xz          yz          zz
 q only:       -9.115     -54.300     -18.348     -65.766     -39.882      27.463
  q+dip:      -24.170     -82.994     -22.116     -78.243     -61.693      46.285
   full:      -22.946     -83.245     -22.101     -77.478     -62.484      45.047


           -------------------------------------------------
          | TOTAL ENERGY            -1283.335275641852 Eh   |
          | GRADIENT NORM               0.035218081342 Eh/α |
          | HOMO-LUMO GAP               7.287997596183 eV   |
           -------------------------------------------------

------------------------------------------------------------------------
 * finished run on 2022/11/24 at 09:29:07.979     
------------------------------------------------------------------------
 total:
 * wall-time:     0 d,  0 h,  0 min, 57.901 sec
 *  cpu-time:     0 d,  0 h,  1 min, 13.821 sec
 * ratio c/w:     1.275 speedup
 SCF:
 * wall-time:     0 d,  0 h,  0 min, 56.874 sec
 *  cpu-time:     0 d,  0 h,  1 min, 12.096 sec
 * ratio c/w:     1.268 speedup

