756
 energy: -1283.315784018112 gnorm: 0.033101613465 xtb: 6.5.1 (579679a)
o           -6.53136984603843       -6.53763870335730       -4.20976464283038
h           -5.89834744266859       -6.07714865438008       -4.78678516019609
h           -7.37969194573369       -6.09400716121604       -4.37280212940420
o            3.21891715735833       -3.36491000291335        5.33044796905648
h            2.48402977953900       -3.09375378047084        4.71546106341351
h            2.85369389714245       -4.09197788795831        5.84962485958873
o            1.88199973179359        0.43376349795695       -2.19790349218474
h            1.37150989655528       -0.13655228603131       -1.59484034233550
h            2.04857557433914       -0.11352022806802       -2.98412738284160
o            5.30634122419304       -1.79224355742093       -0.71832702015571
h            4.36801424114826       -2.06680111284828       -0.63865468444768
h            5.42253278421347       -1.69257609096791       -1.67833026048948
o            2.70587653655687       -2.06545598677320       -0.75339567230196
h            2.61327339284834       -2.53789743044129        0.10610258045635
h            2.21247819873251       -2.59469084877198       -1.39487881288747
o           -0.11553417868097       -5.44195920571112       -1.53351477512492
h            0.37016959425668       -4.68967334120600       -1.90016867450791
h           -0.98440246497023       -5.08641207039755       -1.26556532518455
o            4.03146959587183       -0.02641177514971        2.76360513960083
h            4.42324681962413       -0.91231137085819        2.88114716609560
h            3.46169698283391        0.11469776265888        3.54671197864674
o            0.83473371495609       -3.08236579302725       -2.54464287761532
h            0.29133517017053       -2.43273890269754       -2.06688677204032
h            1.35012024343975       -2.57951551468024       -3.20220023600903
o            3.52094054463760       -5.48852813709035        1.97747271443610
h            3.06796193686346       -6.34148746465521        2.05681439397504
h            4.04621203420457       -5.37013620967445        2.78333859747028
o            0.56417225755776        1.84242144146539        2.11987101122477
h            1.02001175186651        1.04664191109559        1.80635407111156
h            1.10171830838565        2.23794130567012        2.81587080965174
o           -0.09648032674873        4.15388179491493        3.75611996171809
h            0.64907072848102        4.61006514469169        4.15860953067654
h            0.10002242702019        4.16820285608640        2.79289475088358
o           -0.17865620652506       -0.50707404845528        3.31523030712259
h           -1.11243750599111       -0.58802947184434        3.05508037635855
h            0.14198351122700       -1.41064534512451        3.48432066823520
o            3.44204708275675       -3.82800009764958       -3.16557603840690
h            4.39690643316787       -3.81420127132958       -2.95625541972706
h            3.38944130403737       -4.35654418871283       -3.97632187758861
o           -2.03427317366591        2.02380227283737        1.80406255552441
h           -2.39916105861299        1.16335678426712        2.07193903897181
h           -1.07409960374797        1.98080429432695        2.00332339213778
o            6.03960243166368        2.01660751190516       -2.68008128365016
h            5.29425558471468        1.67692347931978       -2.14030714392879
h            5.78777054792784        2.90662694863164       -2.97200696446584
o            1.93608720567530       -1.35881532803318       -4.24375277787714
h            1.04912846836480       -1.11949248233678       -4.53566125329487
h            2.48616786804048       -1.41324057878356       -5.05378665752436
o           -2.90669065522564       -1.38040232953013       -7.90757439395849
h           -3.26156640530170       -1.06768808654283       -8.73892071012880
h           -2.59941423183406       -0.58373645544249       -7.41354295749331
o           -6.19696315706389       -1.36986365740800        1.58105608801440
h           -6.30126464658719       -2.31993744326287        1.37475429395453
h           -6.20991930576185       -1.32135966350814        2.56128537397141
o           -5.20955729927232       -2.59749109541252       -0.75579127377988
h           -5.20723110178860       -3.24796718246291       -1.47107742071797
h           -5.54926343895588       -1.76145453507745       -1.12604494422884
o           -7.54347002253895        2.04382428997998        0.73557532555528
h           -6.59940140102676        1.84744378629957        0.87401456671175
h           -7.91082895445637        1.17685991861423        0.46033585509155
o           -3.47552734805059        4.42445505431182       -2.90127314092840
h           -3.60725118052975        4.68499580843983       -1.97188801175379
h           -3.58427778396113        5.21856517033692       -3.45273285616534
o            3.84306141745205        1.03956569195210       -4.24694919618046
h            4.55791984522943        1.46461401191715       -4.74464091200616
h            4.18571087736204        0.18302672441938       -3.91007415493454
o           -2.18138934671709       -4.48089729667561       -0.13837181146211
h           -3.13100338661477       -4.73048666111948       -0.21662200470252
h           -2.15403538415472       -3.55430608694213        0.12158714181937
o           -4.87065560331485       -0.60412908795093       -4.40258115904126
h           -4.07281578083590       -0.10758145221908       -4.16437900734141
h           -5.41893986054662       -0.59566345883591       -3.60501008863775
o           -2.86827799228985       -0.42485472928320        2.74069497802612
h           -3.24842120562098       -1.24594588730465        2.36479535720108
h           -3.23204525584032       -0.31578641720205        3.62639718865369
o           -7.97734639748544       -0.39385470925925       -0.09455063422796
h           -8.82861439800701       -0.86308046912596       -0.04108591038799
h           -7.38331523589769       -0.80625380669806        0.57187326024350
o            5.77075226160634       -0.60376354218480       -6.69726084234773
h            6.05554468188423       -0.27477528020696       -5.81782653253905
h            6.59850538060986       -0.92622718176718       -7.11252349092101
o            5.34679088014059       -5.00378351126369       -0.17784084840045
h            4.38477919529280       -4.81803640929647       -0.12730475178900
h            5.37406889880976       -5.93275666627609       -0.47944519511841
o           -8.14238568037340       -3.29423547547048       -0.98106954487935
h           -7.83377306490557       -4.08798405532899       -1.45470897263652
h           -7.61468251303200       -3.33426954145620       -0.15934482771649
o            4.60111601872171        6.71752186316824        4.68203720391446
h            5.48686018204547        6.41866111399569        4.97469487726228
h            4.73836317818832        7.02703554855240        3.77276401187394
o          -12.78802410096480       -1.06956331126923        0.53705825217336
h          -12.07215934858026       -1.51380771405358        0.05296958718561
h          -13.24751093323495       -0.51585727894025       -0.10221561771698
o           -3.57501332252097       -2.35119097196342        4.77826419728660
h           -3.56038311307803       -3.28035921535778        5.08382218143786
h           -3.28982493017960       -1.83017562330185        5.55453020286698
o            4.31107154513160        0.79582705616565       -1.08883280198144
h            3.40683144702415        0.66886824104412       -1.43926891886902
h            4.67357411709959       -0.08862954367720       -0.91954572428744
o            6.70341649467663       -0.84519961608500        4.21312521021856
h            5.96612264548044       -0.26958410348871        4.45403152516800
h            6.71223229465894       -0.87839559310501        3.24486492845074
o            4.78379227187365       -2.53930206201114        3.12462368560681
h            4.48128188633997       -2.90261097570407        3.97069859941007
h            5.67451577723508       -2.91836749064243        2.94453688601444
o           -6.49018240106005       -6.95238535087821        1.89821517028902
h           -7.00785136033238       -6.59139899956923        2.63290482332690
h           -7.08468373100364       -6.89450446344804        1.13310206477411
o            0.55072020420580        4.49358429159865        1.20269149741764
h           -0.21355291318738        4.88894543941792        0.76431567308893
h            1.24691897331434        5.17869917933564        1.17689801231102
o           -0.17331083412089       -2.82942628999424        1.09257118873440
h            0.21983330720447       -3.71585249005402        1.02676398513976
h           -0.61102986941027       -2.79937613598189        1.95985624617053
o           -5.03550594872062        0.89770985411324        0.97057481565292
h           -5.34613868350112       -0.01429937487340        1.13775502844247
h           -4.68205798541263        1.24351147433070        1.81143590304047
o            6.03612476168581       -3.86890327705475       -2.48090340092888
h            6.55647781340938       -4.54229818557865       -2.96239550975748
h            5.82697154649046       -4.25315705820457       -1.59792720664880
o            1.86395374856792       -3.81508452074771       -6.77585308205645
h            2.38264693894485       -2.99376293524773       -6.70843698871086
h            1.07427596923165       -3.57291207931580       -7.27581718277118
o            1.39708226238301        4.03242429798368       -4.63904082010339
h            0.58064650042947        4.39917444195769       -4.24485648367494
h            1.99335266256246        3.81694308847519       -3.88566968779872
o           -2.84103605191696        0.82787511409212       -3.33257533301335
h           -2.60385524552206        1.61651532012427       -3.86649381597800
h           -3.37862157124138        1.17523523826505       -2.59680865807559
o           -7.70906503657563       -1.32073508126597       -6.84459091167876
h           -7.47979191864695       -0.38317909285000       -6.83795274209505
h           -6.86381828599487       -1.79370740188493       -6.75774824573586
o            9.24941290486668        0.32566231028616       -5.54998256858916
h            8.40861323717349        0.31234421582151       -5.03512400325583
h            9.93936787055456        0.02666410462634       -4.93281020504826
o            8.88966947674238        1.59722598561431       -2.78517630169935
h            8.10652907530022        2.14653205265114       -2.65930173257798
h            9.42426968254412        2.03768778114946       -3.45609857615309
o            2.75431302676277       -3.05648944962811        1.61314483843699
h            3.56248605018316       -2.73684731888320        2.07114851124478
h            2.88022730268081       -4.03009959229921        1.63529402518245
o          -10.03892121861858        0.79713448954438       -1.52523328929313
h           -9.82491130517346       -0.07089734182243       -1.92991541964819
h          -10.62998828008091        1.26459889967441       -2.14754841485674
o           -2.88317428800765        8.34292127876818        0.00340658718379
h           -2.76472910689658        7.66541822112476        0.68803981016569
h           -3.83028961093705        8.33028877874027       -0.21097440982623
o           -4.24663974590913        1.93466608820753       -6.17856695157090
h           -3.38938943974248        1.48837681041263       -6.28673683943497
h           -4.45951429015919        1.95987044656902       -5.21357459359983
o            5.65784230838185       -2.88743066001268       -5.25021277610043
h            6.57070952948908       -3.25016067835948       -5.26659471108068
h            5.61680179568979       -2.21942007718891       -5.95518406039571
o           -1.82329607333975        2.95712160464702       -4.47825826332044
h           -2.33763175642146        3.59610894996381       -3.94951014917629
h           -0.99381901149629        2.85425177509114       -3.97795475003706
o            7.03719866090915        5.71058800978820        5.29111504860594
h            7.63374965436299        5.72271010526359        4.52484901549766
h            7.15134052481989        4.83846776000119        5.68294141965361
o            5.10056052708483        3.33378500850136        4.11358179605383
h            5.00654002550781        2.45158003524956        4.52166364139314
h            4.60840115984593        3.94218755275519        4.67912015728523
o            1.45446688035869        3.55484217919212        7.45508083053974
h            0.57614097674745        3.81669846929785        7.11859748615738
h            2.09066884243373        4.12400801638666        6.99167012713324
o            7.57626350139634       -1.67833417738934       -2.63151969905524
h            8.41761413853872       -1.96947630047795       -3.02867072710897
h            7.01933588906660       -2.48235411719473       -2.58309629574785
o           -4.59922034119769        2.19347637999583        3.23632586774307
h           -5.48884072976148        1.86353095850719        3.48779981321199
h           -3.98823944068285        1.79326369172604        3.90156877192396
o           -3.19890541231480        1.07124853741259        5.11830878883822
h           -3.49216703280719        1.67306563487766        5.82290009646828
h           -2.24894682444929        1.27995505964962        4.99646556244252
o           -9.62305399610143       -1.59448765396795       -2.64746801847589
h           -9.13238763462366       -2.17441109856452       -2.04847035334896
h          -10.57106809654724       -1.77841381600416       -2.50171352959813
o          -10.74681124374256        0.72156735465510        1.02778907514501
h          -10.45053600163018        0.82809783007171        0.09655129964224
h          -11.50249302543239        0.10766171111164        0.99863313784956
o            6.46035561792696       -6.13008732256836        2.09168769513938
h            7.40654447894254       -5.93132406770917        2.02582357175007
h            6.01875658009727       -5.56065519149850        1.43219717102477
o           -7.77183373755225        0.06411089635189       -4.15102345758043
h           -7.49590212935228       -0.84555981935157       -3.92658328860293
h           -7.22877039343611        0.36466131696804       -4.90011120608225
o           -6.85924302711933        1.35403403777674       -6.37596284275694
h           -5.88592001592138        1.40621853523496       -6.43904416480457
h           -7.14562815704958        2.24096700778986       -6.13716209161231
o            0.20983617543185       -1.52686480374215        7.35717460312271
h            1.17786424252142       -1.55319651419887        7.25836161369044
h            0.00080864352516       -0.57833306364408        7.33253028580961
o           -6.89538413156627        1.23819220142441        3.94884689183774
h           -7.56150296326619        0.83926994153481        3.34974462332071
h           -6.67974846217272        0.56429263194643        4.62148820893193
o           -8.87657760455695        0.03823223195293        2.77017945439075
h           -8.69369360432469       -0.90397849113141        2.57334517295237
h           -9.54865412530415        0.32697726536384        2.12173437925156
o            5.06201258366121        4.44436587026488       -3.67918801495559
h            4.78222122451958        4.65157557864029       -4.59215947805294
h            4.26155627132557        4.13006805352421       -3.21502564071939
o           -1.82885052032456       -7.76539882754885       -0.28694163747824
h           -2.11237401422006       -7.14873689416098       -0.99287488318386
h           -2.66291213744306       -8.06054669276610        0.10320177172508
o           -7.88671292129407        2.00021767012572       -2.34921781884646
h           -7.65237816783505        1.30780680726547       -3.00225131745984
h           -8.61980149578010        1.60385178309939       -1.82420303455581
o           -0.32018825379394       -2.31091003620068       -7.60351427926837
h            0.12637400167549       -1.44268440955198       -7.58601230289196
h           -1.24479808741146       -2.14777228023622       -7.85232826618430
o           -0.77354706893233       -2.80931047206023       -5.03169270737410
h           -0.89337353631553       -1.89391939208749       -4.74400691416521
h           -0.57946659083889       -2.74650614978743       -5.98994668557040
o           -0.62033891164703       -0.16891050832888       -4.37827270899682
h           -1.33834661103232        0.13248563730857       -3.79534315787932
h            0.04681065375691        0.54788215386923       -4.44157534122350
o            1.99122517775997        2.66222711760651       -0.24513755245673
h            2.06251901524558        1.74901478783168        0.08700670922779
h            1.23980484617451        3.07586285753046        0.21219564431303
o            1.27735051089101       -2.73326017281601        3.73994204621928
h            1.71867858684620       -2.70224876019305        2.86147323142082
h            0.86020491529295       -3.62113758344132        3.76507677158724
o           -5.98117607598414       -0.27772506523368       -1.87401169573464
h           -6.80396256754852       -0.19170121741465       -1.35536664835305
h           -5.46361657660195        0.52603072109651       -1.73281703983412
o           -2.02782337106425       -3.72223388856193       -2.79504121478444
h           -1.52522365129440       -3.47962301917095       -3.58271211880656
h           -2.07018643533425       -2.92272537613796       -2.20738240960543
o           -3.84178437857030        5.22710945164395       -0.31966975824200
h           -4.46276276565785        4.69636873808449        0.22446447997495
h           -3.18322857976958        5.55032492335718        0.32186742943831
o           -0.65138637556606        1.71114016334535        4.75796036857030
h           -0.40747596779542        2.60165593802620        4.43074044232877
h           -0.37762817816488        1.04129047979227        4.10574031928165
o           -4.63530269925033       -5.35593502499199       -0.05865177815820
h           -5.21137460830417       -5.35056898029013       -0.85224252573133
h           -4.48897371372628       -6.29410633395143        0.16719585528800
o          -13.00367486075723        0.81265373810422       -1.55259901715456
h          -12.75581695605261        1.49306155417823       -0.89559982450893
h          -12.75309691740519        1.21221623803402       -2.39649587835995
o           -1.80418455741294        4.37590878451602       -6.79848707015649
h           -1.75478422809604        3.87524807166588       -5.95464896344498
h           -2.74246174476258        4.53222036731394       -6.94879283791162
o          -11.38805040285001       -2.02991876617014        2.72293225567409
h          -12.19157582510134       -1.99682697454051        2.19419172782925
h          -11.47044618630582       -1.25895206399808        3.32822188681720
o           -6.65466138420023       -3.97807210242591        1.17098062276006
h           -5.89624605256382       -4.47029986795877        0.80457332585397
h           -6.97707093878761       -4.44138295504158        1.95542459158160
o            5.77862767827604        6.90224650072974       -2.87866894292559
h            5.56316707976589        5.96724417567648       -3.09559955289921
h            6.74420221369265        6.98423810252289       -2.99408048271780
o            3.36802253332470        3.74624735493400        1.86324250283369
h            2.85016225937015        3.53186301332398        1.06910051951194
h            4.19178703919809        3.23386811517116        1.74995328124450
o            1.34773917816083        1.39294040546733       -5.11873575609898
h            2.27220569379144        1.19409709971503       -4.85980760662108
h            1.23304892190132        2.35157677482739       -4.98087709918893
o           -0.29782966036840        2.46831851759676       -7.98493835788070
h            0.58099591839665        2.87625802754921       -7.83794021271890
h           -0.91788427024122        3.18777641174747       -7.77363168188541
o            9.82205469603859       -2.69425329523485       -3.75645765998700
h           10.46053991010173       -1.99970009207393       -3.96654032369613
h           10.03333435013671       -2.98517357484437       -2.83463323281087
o           12.30747772974849        1.42496595579577       -1.33014321659329
h           12.21027452966685        2.11197964075647       -2.00205857615473
h           12.57046270984915        1.88394162761340       -0.50932021564676
o           -0.02696693109814        7.01734323585144        2.73702874826629
h            0.81297039627505        6.55992422888945        2.95375697865908
h            0.16058705580098        7.59000322032160        1.98198473101719
o            6.56899393064819       -0.70547899094784        1.45270147362247
h            6.75225143304609       -0.04836583421281        0.74920133249117
h            5.97980787641103       -1.34117864836951        1.03279131898068
o            7.17733118110817       -3.48117429942676        2.62531389013128
h            7.89119988347739       -3.38415330712829        3.27171138786040
h            7.53380737103559       -3.37628176055856        1.72825503815743
o            5.17483531789410        1.85874590025076        1.23499563152081
h            4.84380185840608        1.15985401899190        1.82680078031486
h            4.81354348341352        1.64486113039440        0.35625315364798
o           -6.98685937587963       -2.45576924896094       -3.40384765220090
h           -6.06566928584494       -2.77382607615261       -3.45522237513463
h           -7.22015579513538       -2.47076613846983       -2.46458247114325
o           -9.94746511870320       -4.58893508185202        1.23902511994709
h          -10.36849812234112       -4.80418883678156        2.07757314164906
h          -10.64229871123858       -4.43698352874975        0.58071047872316
o           -3.69001772955093       -2.72611548587906        1.58342215789497
h           -4.06152085298423       -3.45090952673463        2.10795439073008
h           -4.28699304736562       -2.62410383584341        0.82568518869548
o            1.90079540184981        6.58820048246601       -5.51758284799510
h            2.26041239198562        7.05121112080956       -4.74385998517884
h            1.70725902090548        5.68451942990713       -5.20649195975696
o           -3.79729384949806        3.04572417702646        6.89917093971522
h           -4.70827916867957        2.87538836252972        7.19249679580102
h           -3.80071628458044        3.99178722565373        6.60985645165689
o            7.38422077621367        2.09031391006694        3.25394117600881
h            7.60402199852118        2.59548851529803        2.43613520038236
h            6.47294535435915        1.81334156126368        3.12282603077327
o            2.20576990295523        0.15628190660079        0.83732195111597
h            2.90516967196698        0.05032696313076        1.51338450209256
h            2.25382841599624       -0.62091277799352        0.26267188783015
o           10.18159884868106       -0.13827059177185       -1.18301062654358
h           10.98142690257569        0.41704756180756       -1.04083196303489
h            9.48788429004188        0.47575517096086       -1.49280991800154
o           11.72478878580845        3.44878273423193       -3.16318303542934
h           12.22777340614327        4.22486131382958       -3.40632614687110
h           11.12466103118645        3.25434326397177       -3.91496486928124
o            6.86373331550316        0.15341567586638       -4.37638144137214
h            6.56732056850338        0.89600017417184       -3.80661187043378
h            7.06139535856458       -0.57340264950120       -3.74413498583035
o          -10.19733083532170       -1.90177826635849        0.18692989585724
h          -10.34826843671793       -1.98100843040782        1.14338087512072
h           -9.67577532490986       -2.66928844405120       -0.08758641647410
o          -12.23949786515526        3.02873412860320       -0.09208769695659
h          -11.26342500331266        3.11227139085263       -0.19111559136885
h          -12.61069469241661        3.69835411127776       -0.66623409768856
o           -5.22993606778182        7.34007457820958       -1.07584623308594
h           -6.02516341770314        7.30227658381642       -0.52933578288966
h           -4.71426007232468        6.54118030372828       -0.80469266044276
o           -4.19284210550057        1.86099716874230       -1.26268555135166
h           -4.83736606660347        2.58919698698178       -1.41586971303972
h           -4.41436048504834        1.50070727406894       -0.37357754444062
o            5.79052262287206        2.29763426523200       -5.80524201960664
h            6.50175745768599        1.70812623172489       -6.06605966780897
h            6.22804537688016        3.08849793965846       -5.43627398503865
o           -5.14944539654947        6.87024569689889        2.42575015744608
h           -4.20925745707763        6.76994224980490        2.22224297922667
h           -5.33767565958637        6.17933260829975        3.08227341993587
o           -0.77794701242450        5.34327238336671       -3.83288806099604
h           -0.81261553420787        5.92720136709161       -4.61501321263242
h           -1.32463695880416        5.76684132506919       -3.16714608196154
o            8.17339539419623       -1.60502954759024       -7.21097313418684
h            8.71381243825817       -0.96360699439912       -6.71434614916248
h            8.27054094848330       -2.45650743249231       -6.76813495607249
o          -10.16967076268790        0.45605749288834       -5.22775101068481
h           -9.94216944799482        0.41439831165338       -6.15683265828739
h           -9.33113778388428        0.25449428678857       -4.74284871137250
o           -2.49430692658532        0.98816328872104        8.24655793010855
h           -2.95712542884668        1.76414750522783        7.90346913463920
h           -1.55900841965961        1.09506684520311        7.98568537671142
o           -4.67511843625620       -3.73708042968472       -3.18708419631162
h           -3.70889700619964       -3.67286702694237       -3.07719136260710
h           -4.80440613016109       -4.26434947686643       -4.00107631309201
o           -2.72797883120626       -6.35424752207139       -2.46242975094322
h           -2.62649829952100       -5.38863613135809       -2.47147280720378
h           -2.15890204350349       -6.66870733949671       -3.18801359212571
o           -9.63283844469380        3.47500354779927       -0.45211809635357
h           -8.89798732097082        2.99652525539137       -0.04502979672205
h           -9.27610918188996        4.30819858059814       -0.79894273267627
o           -6.62164241476331       -5.34072817710298       -1.79228496921705
h           -6.52524556170684       -5.79125610750400       -2.65368698319881
h           -7.14558470905363       -5.92524588517290       -1.21542108413690
o           11.67090352440770       -0.32088145122976        4.46685259167830
h           12.00622825939715        0.48655296295895        4.86123111958942
h           10.83046185948178       -0.07523457501999        4.03401231303618
o           -1.87860025090887        0.69715509812016       -6.61957614905521
h           -1.39487363628761        0.36336810518769       -5.83885094948835
h           -1.27832978840053        1.29775529349819       -7.10112513117862
o            7.55283658467004        4.13415470704526       -4.84411753577711
h            7.52571029508652        4.11710511202711       -3.86059569412543
h            7.39194962369676        5.04424795000947       -5.09379806741223
o          -11.80383001217558        0.11309154390768        4.27553678512849
h          -11.05686064537671        0.11093452620766        4.88967105715063
h          -11.80554576001636        0.96952660045010        3.82651335798746
o            2.29867009213596        2.79824888988668        4.12387488009896
h            2.80826279345739        3.09879672940288        3.33679570102176
h            2.53830617340353        3.40651880305300        4.83465963935438
o            0.01651926526722        1.16968162228056        7.24295074962047
h            0.50434257840851        1.93568036681332        7.56560883708511
h           -0.21603309755693        1.38817736110882        6.30982349239309
o           -2.88401861092948       -1.40979685130304        7.18495989080064
h           -2.85628193530273       -0.49258466789941        7.54696116901518
h           -2.03858010856666       -1.79458633190360        7.43096366607700
o            1.54377815207267       -5.12641709588620        6.67658027886668
h            0.73662696085794       -4.65541250188463        6.33926831426122
h            1.30824169912535       -5.44988417447558        7.54401209458879
o            0.08932154031310        2.45409245621636       -2.61940721827890
h            0.77008831175327        1.78604997569577       -2.40505808916563
h           -0.53318313513307        2.51127068061155       -1.87050474326007
o            3.27388970725831        1.51336293569440        7.42022717857299
h            2.61824944618670        2.23366222666727        7.45135104378537
h            2.81511093702242        0.70988323663909        7.67592845514980
o            0.31651361303487       -8.01823739749134       -1.91851147510605
h            0.18035674596680       -7.04317677455473       -1.83765838410764