      -----------------------------------------------------------      
     |                   =====================                   |     
     |                           x T B                           |     
     |                   =====================                   |     
     |                         S. Grimme                         |     
     |          Mulliken Center for Theoretical Chemistry        |     
     |                    University of Bonn                     |     
      -----------------------------------------------------------      

   * xtb version 6.5.1 (579679a) compiled by 'ehlert@majestix' on 2022-07-11

   xtb is free software: you can redistribute it and/or modify it under
   the terms of the GNU Lesser General Public License as published by
   the Free Software Foundation, either version 3 of the License, or
   (at your option) any later version.
   
   xtb is distributed in the hope that it will be useful,
   but WITHOUT ANY WARRANTY; without even the implied warranty of
   MERCHANTABILITY or FITNESS FOR A PARTICULAR PURPOSE.  See the
   GNU Lesser General Public License for more details.
   
   Cite this work as:
   * C. Bannwarth, E. Caldeweyher, S. Ehlert, A. Hansen, P. Pracht,
     J. Seibert, S. Spicher, S. Grimme, WIREs Comput. Mol. Sci., 2020, 11,
     e01493. DOI: 10.1002/wcms.1493
   
   for GFN2-xTB:
   * C. Bannwarth, S. Ehlert and S. Grimme., J. Chem. Theory Comput., 2019,
     15, 1652-1671. DOI: 10.1021/acs.jctc.8b01176
   for GFN1-xTB:
   * S. Grimme, C. Bannwarth, P. Shushkov, J. Chem. Theory Comput., 2017,
     13, 1989-2009. DOI: 10.1021/acs.jctc.7b00118
   for GFN0-xTB:
   * P. Pracht, E. Caldeweyher, S. Ehlert, S. Grimme, ChemRxiv, 2019, preprint.
     DOI: 10.26434/chemrxiv.8326202.v1
   for GFN-FF:
   * S. Spicher and S. Grimme, Angew. Chem. Int. Ed., 2020, 59, 15665-15673.
     DOI: 10.1002/anie.202004239
   
   for ALPB and GBSA implicit solvation:
   * S. Ehlert, M. Stahn, S. Spicher, S. Grimme, J. Chem. Theory Comput.,
     2021, 17, 4250-4261. DOI: 10.1021/acs.jctc.1c00471
   
   for DFT-D4:
   * E. Caldeweyher, C. Bannwarth and S. Grimme, J. Chem. Phys., 2017,
     147, 034112. DOI: 10.1063/1.4993215
   * E. Caldeweyher, S. Ehlert, A. Hansen, H. Neugebauer, S. Spicher,
     C. Bannwarth and S. Grimme, J. Chem. Phys., 2019, 150, 154122.
     DOI: 10.1063/1.5090222
   * E. Caldeweyher, J.-M. Mewes, S. Ehlert and S. Grimme, Phys. Chem. Chem. Phys.
     2020, 22, 8499-8512. DOI: 10.1039/D0CP00502A
   
   for sTDA-xTB:
   * S. Grimme and C. Bannwarth, J. Chem. Phys., 2016, 145, 054103.
     DOI: 10.1063/1.4959605
   
   in the mass-spec context:
   * V. Asgeirsson, C. Bauer and S. Grimme, Chem. Sci., 2017, 8, 4879.
     DOI: 10.1039/c7sc00601b
   * J. Koopman and S. Grimme, ACS Omega 2019, 4, 12, 15120-15133.
     DOI: 10.1021/acsomega.9b02011
   
   for metadynamics refer to:
   * S. Grimme, J. Chem. Theory Comput., 2019, 155, 2847-2862
     DOI: 10.1021/acs.jctc.9b00143
   
   for SPH calculations refer to:
   * S. Spicher and S. Grimme, J. Chem. Theory Comput., 2021, 17, 1701-1714
     DOI: 10.1021/acs.jctc.0c01306
   
   with help from (in alphabetical order)
   P. Atkinson, C. Bannwarth, F. Bohle, G. Brandenburg, E. Caldeweyher
   M. Checinski, S. Dohm, S. Ehlert, S. Ehrlich, I. Gerasimov, C. Hölzer
   A. Katbashev, J. Koopman, C. Lavigne, S. Lehtola, F. März, M. Müller,
   F. Musil, H. Neugebauer, J. Pisarek, C. Plett, P. Pracht, F. Pultar,
   J. Seibert, P. Shushkov, S. Spicher, M. Stahn, M. Steiner, T. Strunk,
   J. Stückrath, T. Rose, and J. Unsleber
   
 * started run on 2022/11/03 at 00:49:15.947     

           -------------------------------------------------
          |                Calculation Setup                |
           -------------------------------------------------

          program call               : xtb cluster.xyz --gfn2 --ohess
          hostname                   : cn0272
          coordinate file            : cluster.xyz
          omp threads                :                     1

   ID    Z sym.   atoms
    1    1 H      1, 3, 5, 6, 8, 10-12, 14, 15, 17, 18, 20, 21, 23, 24, 26,
                  27, 29, 30, 32, 33, 35, 36, 38, 39, 41, 42, 44, 45, 47, 48,
                  50, 51, 53, 54, 56, 57, 59, 60, 62, 63, 65, 66, 68, 69, 71,
                  72, 74, 75, 77, 78, 80, 81, 83, 84, 86, 87, 89, 90, 92, 93,
                  95, 96, 98, 99, 101, 102, 104, 105, 107, 108, 110, 111,
                  113, 114, 116, 117, 119, 120, 122, 123, 125, 126, 128, 129,
                  131, 132, 134, 135, 137, 138, 140, 141, 143, 144, 146, 147,
                  149, 150, 152, 153, 155, 156, 158, 159, 161, 162, 164, 165,
                  167, 168, 170, 171, 173, 174, 176, 177, 179, 180, 182, 183,
                  185, 186, 188, 189, 191, 192, 194, 195, 197, 198, 200, 201,
                  203, 204, 206, 207, 209, 210, 212, 213, 215, 216, 218, 219,
                  221, 222, 224, 225, 227, 228, 230, 231, 233, 234, 236, 237,
                  239, 240, 242, 243, 245, 246, 248, 249, 251, 252, 254, 255,
                  257, 258, 260, 261, 263, 264, 266, 267, 269, 270, 272, 273,
                  275, 276, 278, 279, 281, 282, 284, 285, 287, 288, 290, 291,
                  293, 294, 296, 297, 299, 300, 302, 303, 305, 306, 308, 309,
                  311, 312, 314, 315, 317, 318, 320, 321, 323, 324, 326, 327,
                  329, 330, 332, 333, 335, 336, 338, 339, 341, 342, 344, 345,
                  347, 348, 350, 351, 353, 354, 356, 357, 359, 360, 362, 363,
                  365, 366, 368, 369, 371, 372, 374, 375, 377, 378, 380, 381,
                  383, 384, 386, 387, 389, 390, 392, 393, 395, 396, 398, 399,
                  401, 402, 404, 405, 407, 408, 410, 411, 413, 414, 416, 417,
                  419, 420, 422, 423, 425, 426, 428, 429, 431, 432, 434, 435,
                  437, 438, 440, 441, 443, 444, 446, 447, 449, 450, 452, 453,
                  455, 456, 458, 459, 461, 462, 464, 465, 467, 468, 470, 471,
                  473, 474, 476, 477, 479, 480, 482, 483, 485, 486, 488, 489,
                  491, 492, 494, 495, 497, 498, 500, 501, 503, 504, 506, 507,
                  509, 510, 512, 513, 515, 516, 518, 519, 521, 522, 524, 525,
                  527, 528, 530, 531, 533, 534, 536, 537, 539, 540, 542, 543,
                  545, 546, 548, 549, 551, 552, 554, 555, 557, 558, 560, 561,
                  563, 564, 566, 567, 569, 570, 572, 573, 575, 576, 578, 579,
                  581, 582, 584, 585, 587, 588, 590, 591, 593, 594, 596, 597,
                  599, 600, 602, 603, 605, 606, 608, 609, 611, 612
    2    6 C      2, 4
    3    8 O      7, 13, 16, 19, 22, 25, 28, 31, 34, 37, 40, 43, 46, 49, 52,
                  55, 58, 61, 64, 67, 70, 73, 76, 79, 82, 85, 88, 91, 94, 97,
                  100, 103, 106, 109, 112, 115, 118, 121, 124, 127, 130, 133,
                  136, 139, 142, 145, 148, 151, 154, 157, 160, 163, 166, 169,
                  172, 175, 178, 181, 184, 187, 190, 193, 196, 199, 202, 205,
                  208, 211, 214, 217, 220, 223, 226, 229, 232, 235, 238, 241,
                  244, 247, 250, 253, 256, 259, 262, 265, 268, 271, 274, 277,
                  280, 283, 286, 289, 292, 295, 298, 301, 304, 307, 310, 313,
                  316, 319, 322, 325, 328, 331, 334, 337, 340, 343, 346, 349,
                  352, 355, 358, 361, 364, 367, 370, 373, 376, 379, 382, 385,
                  388, 391, 394, 397, 400, 403, 406, 409, 412, 415, 418, 421,
                  424, 427, 430, 433, 436, 439, 442, 445, 448, 451, 454, 457,
                  460, 463, 466, 469, 472, 475, 478, 481, 484, 487, 490, 493,
                  496, 499, 502, 505, 508, 511, 514, 517, 520, 523, 526, 529,
                  532, 535, 538, 541, 544, 547, 550, 553, 556, 559, 562, 565,
                  568, 571, 574, 577, 580, 583, 586, 589, 592, 595, 598, 601,
                  604, 607, 610
    4    7 N      9

molecular fragmentation (1/2 indicates fragments):
111111111111222222222222222222222222222222222222222222222222222222222222
222222222222222222222222222222222222222222222222222222222222222222222222
222222222222222222222222222222222222222222222222222222222222222222222222
222222222222222222222222222222222222222222222222222222222222222222222222
222222222222222222222222222222222222222222222222222222222222222222222222
222222222222222222222222222222222222222222222222222222222222222222222222
222222222222222222222222222222222222222222222222222222222222222222222222
222222222222222222222222222222222222222222222222222222222222222222222222
222222222222222222222222222222222222
# atoms in fragment 1/2:    12   600
 fragment masses (1/2) :       62.09     3603.06
CMA distance (Bohr)    :   3.029
constraining FC (au)   :  0.0500

           -------------------------------------------------
          |                 G F N 2 - x T B                 |
           -------------------------------------------------

        Reference                      10.1021/acs.jctc.8b01176
      * Hamiltonian:
        H0-scaling (s, p, d)           1.850000    2.230000    2.230000
        zeta-weighting                 0.500000
      * Dispersion:
        s8                             2.700000
        a1                             0.520000
        a2                             5.000000
        s9                             5.000000
      * Repulsion:
        kExp                           1.500000    1.000000
        rExp                           1.000000
      * Coulomb:
        alpha                          2.000000
        third order                    shell-resolved
        anisotropic                    true
        a3                             3.000000
        a5                             4.000000
        cn-shift                       1.200000
        cn-exp                         4.000000
        max-rad                        5.000000


          ...................................................
          :                      SETUP                      :
          :.................................................:
          :  # basis functions                1224          :
          :  # atomic orbitals                1224          :
          :  # shells                          816          :
          :  # electrons                      1626          :
          :  max. iterations                   250          :
          :  Hamiltonian                  GFN2-xTB          :
          :  restarted?                      false          :
          :  GBSA solvation                  false          :
          :  PC potential                    false          :
          :  electronic temp.          300.0000000     K    :
          :  accuracy                    1.0000000          :
          :  -> integral cutoff          0.2500000E+02      :
          :  -> integral neglect         0.1000000E-07      :
          :  -> SCF convergence          0.1000000E-05 Eh   :
          :  -> wf. convergence          0.1000000E-03 e    :
          :  Broyden damping             0.4000000          :
          ...................................................

 iter      E             dE          RMSdq      gap      omega  full diag
   1  -1039.6589452 -0.103966E+04  0.406E+00    7.94       0.0  T
   2  -1039.7798456 -0.120900E+00  0.241E+00    7.99       1.0  T
   3  -1039.8048084 -0.249628E-01  0.232E-01    7.63       1.0  T
   4  -1039.8090253 -0.421684E-02  0.910E-02    7.66       1.0  T
   5  -1039.8095520 -0.526701E-03  0.300E-02    7.71       1.0  T
   6  -1039.8095837 -0.317422E-04  0.137E-02    7.72       1.0  T
   7  -1039.8095888 -0.505942E-05  0.202E-03    7.72       2.0  T
   8  -1039.8095893 -0.528945E-06  0.651E-04    7.72       6.2  T
   9  -1039.8095893 -0.206076E-07  0.206E-04    7.72      19.6  T

   *** convergence criteria satisfied after 9 iterations ***

         #    Occupation            Energy/Eh            Energy/eV
      -------------------------------------------------------------
         1        2.0000           -0.7437123             -20.2374
       ...           ...                  ...                  ...
       807        2.0000           -0.4606855             -12.5359
       808        2.0000           -0.4600934             -12.5198
       809        2.0000           -0.4599237             -12.5152
       810        2.0000           -0.4564814             -12.4215
       811        2.0000           -0.4540760             -12.3560
       812        2.0000           -0.4517791             -12.2935
       813        2.0000           -0.4366969             -11.8831 (HOMO)
       814                         -0.1530454              -4.1646 (LUMO)
       815                         -0.1416415              -3.8543
       816                         -0.1285079              -3.4969
       817                         -0.1251313              -3.4050
       818                         -0.1134733              -3.0878
       ...                                ...                  ...
      1224                          0.3765385              10.2461
      -------------------------------------------------------------
                  HL-Gap            0.2836515 Eh            7.7186 eV
             Fermi-level           -0.2948712 Eh           -8.0239 eV

 SCC (total)                   0 d,  0 h,  0 min, 17.253 sec
 SCC setup                      ...        0 min,  0.035 sec (  0.204%)
 Dispersion                     ...        0 min,  0.087 sec (  0.507%)
 classical contributions        ...        0 min,  0.021 sec (  0.121%)
 integral evaluation            ...        0 min,  0.723 sec (  4.193%)
 iterations                     ...        0 min,  6.645 sec ( 38.517%)
 molecular gradient             ...        0 min,  9.666 sec ( 56.028%)
 printout                       ...        0 min,  0.074 sec (  0.430%)

         :::::::::::::::::::::::::::::::::::::::::::::::::::::
         ::                     SUMMARY                     ::
         :::::::::::::::::::::::::::::::::::::::::::::::::::::
         :: total energy           -1033.477773618697 Eh    ::
         :: gradient norm              0.000224251898 Eh/a0 ::
         :: HOMO-LUMO gap              7.718550002405 eV    ::
         ::.................................................::
         :: SCC energy             -1039.809589308494 Eh    ::
         :: -> isotropic ES            5.735485346704 Eh    ::
         :: -> anisotropic ES         -1.312905105351 Eh    ::
         :: -> anisotropic XC         -0.097452236247 Eh    ::
         :: -> dispersion             -0.637424514795 Eh    ::
         :: repulsion energy           6.207267109567 Eh    ::
         :: add. restraining           0.000000000000 Eh    ::
         :: total charge               1.000000000000 e     ::
         :::::::::::::::::::::::::::::::::::::::::::::::::::::

      ----------------------------------------------------------- 
     |                       L-ANC optimizer                     |
      ----------------------------------------------------------- 
          low memory version by Sebastian Ehlert

          ...................................................
          :                      SETUP                      :
          :.................................................:
          :   energy convergence        0.5000000E-05 Eh    :
          :   grad. convergence         0.1000000E-02 Eh/a0 :
          :   optimization log               true           :
          :   writing optlog all                1     steps :
          :   Hessian reset                    20     steps :
          :   maximium step len.        1.0000000     a0    :
          :   LBFGS images                     20           :
          ...................................................
 * calculating model hessian...
Using Lindh-Hessian (1995)
 Shifting diagonal of input Hessian by   1.011833129246952E-002
 Lowest  eigenvalues of input Hessian
    0.010000    0.000000    0.000000    0.000000    0.000000    0.000000
    0.000000    0.010123    0.010140    0.010168    0.010234    0.010252
    0.010297    0.010310    0.010318    0.010334    0.010340    0.010344
 Highest eigenvalues
    1.440674    1.440737    1.443129    1.443981    1.458068    1.503819
 

........................................................................
.............................. CYCLE    1 ..............................
........................................................................
   1  -1039.8094848 -0.103981E+04  0.890E-04    7.72       0.0  T
   2  -1039.8094848 -0.136806E-07  0.540E-04    7.72       7.5  T
   3  -1039.8094848 -0.407749E-08  0.658E-05    7.72      61.4  T
     SCC iter.                  ...        0 min,  1.988 sec
     gradient                   ...        0 min,  9.502 sec
 * total energy  : -1033.4777730 Eh     change        0.5735415E-06 Eh
   gradient norm :     0.0004375 Eh/a0  converged?    E=F G=T D=F
   step length   :     0.0116150 a0

........................................................................
.............................. CYCLE    2 ..............................
........................................................................
   1  -1039.8095282 -0.103981E+04  0.560E-04    7.72       0.0  T
   2  -1039.8095282 -0.583645E-08  0.340E-04    7.72      11.9  T
   3  -1039.8095282 -0.174373E-08  0.425E-05    7.72      95.0  T
     SCC iter.                  ...        0 min,  1.986 sec
     gradient                   ...        0 min,  9.482 sec
 * total energy  : -1033.4777741 Eh     change       -0.1036197E-05 Eh
   gradient norm :     0.0000787 Eh/a0  converged?    E=T G=T D=F
   step length   :     0.0068480 a0

   *** GEOMETRY OPTIMIZATION CONVERGED AFTER 2 CYCLES ***

------------------------------------------------------------------------
 total energy gain   :        -0.0000005 Eh       -0.0003 kcal/mol
 total RMSD          :         0.0003085 a0        0.0002 Å
 total power (kW/mol):        -0.0006074 (step)   -0.0000 (real)
------------------------------------------------------------------------

 L-ANCopt (total)              0 d,  0 h,  0 min, 31.363 sec
 setup                          ...        0 min,  0.022 sec (  0.071%)
 model hessian                  ...        0 min,  4.808 sec ( 15.331%)
 ANC generation                 ...        0 min,  1.725 sec (  5.500%)
 coordinate transformation      ...        0 min,  0.013 sec (  0.043%)
 Rational function              ...        0 min,  0.002 sec (  0.007%)
 singlepoint calculation        ...        0 min, 24.771 sec ( 78.983%)
 optimization log               ...        0 min,  0.016 sec (  0.051%)
 hessian update                 ...        0 min,  0.000 sec (  0.000%)

================
 final structure:
================
612
 xtb: 6.5.1 (579679a)
H           -1.01423252563289        1.33114460375938       -1.51916671939446
C           -0.18313121936366        1.10923114422795       -0.85091889211153
H            0.28302508471278        0.18361249874628       -1.17922349430950
C           -0.71352084185304        0.93785676792879        0.57426052653342
H            0.04649743237452        1.25604639349368        1.27720440409013
H           -0.95174107231419       -0.10448874789249        0.73930093087219
O            0.73368894207947        2.18077324166359       -0.94437914211541
H            1.64601209281489        1.81986807226970       -0.91596960946714
N           -1.90926870565716        1.76431111397757        0.79977094235590
H           -2.69258081711867        1.40861568841015        0.23753466438966
H           -1.68931073612164        2.74933998058223        0.49889919758172
H           -2.20933817124763        1.75232708131341        1.80219008157005
O            3.72914511695804        4.55889745365116        2.23602676527187
H            3.04834478900424        4.14526545539129        2.80913458881964
H            4.11984707271998        3.83954208035832        1.72323769024953
O            2.90986274122462        3.20736608644033       -2.95790127079669
H            3.04431912834450        4.01526478062750       -3.49328553199736
H            3.62122203254386        2.59194315113888       -3.17827029702684
O            7.75494945304852        2.64528220834601       -0.06708618320860
H            7.90237139347529        1.69842125804772        0.09592924597996
H            6.87078149758077        2.73903136251420       -0.47760663722686
O           -0.25486648352069        2.64174120553639        3.65034429512712
H           -0.45972260426818        1.68835955548114        3.61127803909013
H            0.71346514432988        2.75664586882951        3.61775985512130
O           -6.56358030393973        2.67088577306747       -1.67915438081183
H           -6.69997668242305        3.55843086815630       -2.05173546532369
H           -7.31320753539502        2.12355001089473       -2.03016779180840
O           -4.60966766622875       -5.04519014497856       -4.85160219061781
H           -5.47927046944050       -4.64733368396332       -5.09283947554878
H           -4.05304526048251       -4.95184802546373       -5.62631950855122
O            2.25531879977426        1.36523481976094        1.71485554649013
H            3.17913905299274        1.51480577530517        1.42081545190585
H            1.81645021388686        2.23285718226758        1.60512136474180
O            5.79573510042401        5.05246348333447        0.31640871761503
H            6.65260513797180        5.29343846002616       -0.07249712799565
H            5.37501057847925        5.86249683977453        0.62607153636649
O            1.32387849895118       -1.16883179112118        1.07774232994899
H            1.60299252492797       -0.23881810476966        1.13750385228564
H            1.98443420006971       -1.64024077650403        1.61929972818576
O           -4.14317338538140       -3.21528490302648       -2.87126900542543
H           -4.14525455933297       -3.86920924811115       -3.58644520831253
H           -3.71316457392573       -3.65054483142640       -2.10838663648872
O            0.89370397401791        5.87478543100259       -0.96842871857902
H            1.76384516118415        5.46382454110728       -0.81859421451563
H            1.02323116777746        6.61695639802466       -1.59740820117921
O            5.48617312407004        2.97573741322934       -1.50469295759257
H            5.66309919763790        3.85278042443730       -1.88732159952508
H            5.44510939258634        2.34450806018984       -2.23904059927424
O           -4.56102974557238        0.80061033752756        1.03842204662344
H           -3.93915931435843        0.10534728777213        1.32978196822019
H           -4.98326850894350        0.49097500845584        0.21884044721935
O            1.90269607829412        0.12545732128071        3.98716029015330
H            2.11246726838170        0.64118153552223        3.17117041558149
H            0.94022723592903       -0.02079070568343        3.95167724481937
O            2.29981156643922        3.23985338947411        4.02130190231300
H            2.19378042012422        3.80825554820283        4.81000676143570
H            3.11891526096909        2.72086824363732        4.14421917825665
O            3.92510377863604       -0.94335075254031        0.76996702288606
H            4.32724820396801       -0.69520553385769        1.61295782444525
H            4.07419452051453       -1.89005798178256        0.66323070124939
O           -3.79281704365045       -5.54296876745953        5.25042613124194
H           -2.92079244004513       -5.48967013404325        5.66298987605522
H           -4.18990545034582       -4.66152536065889        5.37229380705956
O           -0.28645989959395       -2.62271765998507        2.62788439427109
H            0.13955120157584       -1.97800101746856        2.03719493374546
H           -0.40460598962374       -3.43934876115186        2.09713562949908
O           -0.74516278399217       -0.01004664909891        3.64334357610449
H           -1.14998640340708        0.11316944437154        4.51644652673110
H           -1.42889589328137       -0.41908426925852        3.08502547110682
O           -1.25103433963850        0.82717631024770        6.16286471285353
H           -0.55262425825052        1.31707403382400        6.65459909375156
H           -2.10704978430799        0.99218734409238        6.56632767778283
O            6.78522217269389        2.86758949587762        5.50585785055759
H            6.37802812198889        3.37988176187012        6.21032271837013
H            6.02479109920142        2.61014323798871        4.93193805890757
O           -2.64309260031956        4.92847521001964       -1.83945053972853
H           -3.19485164042872        4.12356916212983       -1.73809760724217
H           -1.93450360567947        4.79033006799912       -1.18231197627308
O           -5.23192802449329        2.95019622530046        2.85231035465108
H           -5.87864841470784        2.66838570786143        2.17368169531057
H           -5.71860507891034        3.01963826609183        3.69766602396343
O           -1.95495975923822       -1.88287687561624       -0.25772452535746
H           -2.82905666103283       -2.31098498120791       -0.34656343634523
H           -1.31007244807403       -2.47005428602733       -0.69908223203167
O            2.09124521490433       -1.99907377353569       -1.33646484627822
H            1.75390091909762       -1.71650688611704       -0.45750247760816
H            2.07165143642960       -2.96346788482257       -1.35738410374418
O            9.52937082950619        3.40642378309143       -1.89468752764000
H            8.98278561330047        3.49317861638700       -2.70219114998528
H            8.89689235455127        3.10863767777353       -1.19328137112917
O           -2.95476904856949        1.76333450667166        3.32641448441650
H           -3.83581561485498        2.09865139746675        3.04839990328526
H           -3.08630338038710        0.87261112373891        3.70356843075080
O            3.06688571946078        0.92724139403720       -1.11502038025252
H            3.32107187768000        0.25880669578149       -0.46071871942334
H            2.95868975556145        0.47563207952428       -1.96147596586528
O           -0.55942992350893       -1.61734480224996        6.86167894090967
H           -0.76991510134356       -0.71448499175582        6.53355649858648
H           -1.42815909443671       -1.96676507419382        7.14135601024493
O           -2.42685470944891       -3.08698210720152        4.07211761891706
H           -2.06151865147434       -3.76110387543498        4.67000587036544
H           -1.66914074886327       -2.77084598400530        3.53547600951916
O           -0.18300592195724        0.31919777648126       -7.04539717104785
H            0.07753208417330        1.25463107901620       -6.86597745668092
H           -0.99899684635923        0.34297543329598       -7.55165754019292
O            3.96319701612995        6.92218239367445       -1.96664908879401
H            3.76582674159571        7.84757146768558       -2.11508485063113
H            3.85507289069999        6.78279961451815       -0.99355452142880
O            0.28467606665760        2.74007377655440       -6.11565995707075
H            1.15299219365547        3.04519316952332       -6.44380100990451
H            0.47554109707720        2.36251105719647       -5.21614606022889
O            4.65296980091158       -1.41886507172096       -1.81458604469180
H            3.69564326052159       -1.57286075377203       -1.67271347342919
H            5.09408196591674       -2.19204291538274       -1.44484203904059
O           -0.91809302862222       -4.77399565130894        1.25790993609350
H           -0.61850706318213       -5.68189950682093        1.11045236534180
H           -1.86809160790715       -4.81537783411004        1.44471843689066
O          -10.43811000828119       -2.00168454584638       -0.12295244290316
H          -11.07465944919698       -1.29811611573815       -0.33001545257332
H          -10.39187056377035       -2.08591584080581        0.83415035876393
O           -7.32084558690066       -1.75054472055560        1.06231680126274
H           -8.08737714075742       -2.16148179106830        1.52152294514016
H           -7.18659130976106       -2.29011305857000        0.24561820768165
O           -2.82880266029570       -0.98786894452676        2.06408278233056
H           -3.55164206170254       -1.53780504046001        2.39718525324812
H           -2.45026575292495       -1.45943012612734        1.29801482270824
O            0.93400588539935        1.65364440730754       -3.83265213235880
H            1.56567088760522        2.29181672920103       -3.45474431556095
H            1.41656832742345        0.81766054304861       -3.85952584607265
O           -1.69389401710325        7.93945956757005       -3.03687667547934
H           -2.40866214332333        7.88865275611752       -2.38356796741427
H           -1.83728403581003        7.21101028957414       -3.65226679704742
O           -6.49566846394112        0.32496330363957        2.69218320696035
H           -5.74730615857970        0.61137734333779        2.10176245446004
H           -6.88118250918856       -0.44152155949979        2.25043659261387
O            7.74054448093895        0.45325827889283        5.08531248255645
H            7.51928536122758        1.28941151024753        5.53047853692380
H            7.62497578853583        0.66164204232156        4.12278376484368
O           -2.96642904053305       -4.67504318762051       -0.91753919362350
H           -3.41149474784307       -4.55711271886491       -0.06790182363081
H           -3.12476191033783       -5.59728486117978       -1.19902162682603
O            1.22603608433744        3.79399544318785        1.26977271354872
H            1.25230167095086        4.55091190393523        1.88731322346460
H            1.90697789754325        3.96294504890573        0.59184318252648
O            4.68652906342419        2.10596714078176        0.94662191890901
H            4.58724069031341        2.47377412690964        0.05532155748312
H            5.27851137710560        1.34952816726938        0.78766127355721
O            0.21728930940656       -6.65666731206302        3.64018044573285
H            0.65503793393375       -5.82576899441127        3.35444706037589
H            0.87985838530140       -7.33092054234487        3.44232348677527
O           -5.46261482996166       -6.01967825178439        3.14110012754844
H           -5.43050765865123       -6.88707444148656        2.72916054298981
H           -4.97890979730633       -6.07024234090509        3.97987990590232
O            1.93355321453539       -6.76323651904531       -2.90181855554968
H            1.62946079317709       -5.83300303868788       -3.10732901334125
H            2.73129806805632       -6.88284141144686       -3.42485030145240
O            2.82052228910623        3.05207977688170       -6.83623099763484
H            3.61056877617330        3.48722218933771       -6.50082302978358
H            3.02864621811516        2.09515479280442       -6.83921178917296
O            3.10145798042154        4.35295229317927       -0.58105865341461
H            3.04712931649889        3.80278893079525       -1.39119564818543
H            4.03534387035862        4.50790841608430       -0.38964143523691
O            3.42047671122951       -2.72546317437857       -3.96752667676893
H            2.87937034903599       -3.24172919618599       -4.58526207666837
H            3.40437039229215       -3.24855807190853       -3.13712854503168
O           -2.16642050957354        2.44291935349666       -3.26147197695068
H           -1.80680293253826        1.71207596913475       -3.79543160581646
H           -1.43175810471235        3.06056488136908       -3.11877009568953
O            0.12645896769091       -3.87249701434950       -6.00514676075921
H           -0.77288430997367       -3.66204570767182       -6.27256430941568
H            0.59591560284133       -3.00685756500861       -6.01408248569508
O            5.28574450292170        5.29480770184230        4.27087590772375
H            5.00419730355025        4.72893443368287        5.00990883046173
H            4.70440947598615        5.06887066646505        3.51165327239469
O           -2.18998578177994        5.43659710040616       -4.44968364832713
H           -2.14706556547505        5.13109946196269       -3.51865964722043
H           -2.26416358865519        4.62235781873730       -4.98351025952257
O            5.25126827567852       -0.34198324836715        3.05840110632286
H            6.08530700243473       -0.01364549775369        2.68150763649894
H            5.48452186679863       -0.83103457171013        3.86631011320607
O           -3.25916197445665        3.13659113302136        5.62107281015891
H           -3.66245703851332        2.47879078730252        6.20091807757256
H           -3.05972252550001        2.66321379858940        4.77879931772999
O            4.37117762915022        3.69586062932326        6.40144760539401
H            3.60915073575349        4.23656795553754        6.64125526634854
H            4.01099527401224        2.80294791010431        6.25836593817045
O            0.53831334279283       -1.26415505158942       -3.37413804439196
H            1.12829305909195       -1.53796417303615       -2.64820641554548
H           -0.20596709881354       -1.91036801851643       -3.39033790770401
O           -1.28412448229984        0.27292037661391       -4.56014007476961
H           -0.59031048903186       -0.08351966270900       -3.97928283300773
H           -0.92123665478900        0.25876803203480       -5.46289835752857
O           -0.04980477419173        4.06250249913896       -2.64632130746314
H            0.32165728809982        3.26723959995414       -2.21395375148718
H            0.10896171128607        4.75801550720970       -1.97759735368760
O           -0.42246793329941       -3.77308776716012       -1.31295850166254
H           -1.25078870373563       -4.27870838311632       -1.23510677149182
H            0.14100030337458       -4.03592999545317       -0.56664529152328
O            8.18951193383789       -4.62744740306277        2.41530588686336
H            8.20630649176473       -3.96900496925352        3.14578916236178
H            8.90778221483043       -5.23234560023475        2.60513486407365
O            2.48570747967250       -7.76768979889251        2.46949511020009
H            2.67795120280139       -7.59062725148601        1.54135394599973
H            3.26058256964565       -7.49637620882368        2.96669674530970
O           -6.66655809273279        5.40500608760188        3.78576293650337
H           -5.69312029651897        5.48848559206140        3.83186366718897
H           -6.89612145029061        4.75755098877991        4.45872312994910
O            9.04313749842633        3.59512226518994        4.14193956063949
H            8.19355236560197        3.36325784743822        4.56946982586914
H            9.53079783621592        4.12448739137603        4.77158726864149
O            8.26517577972665        5.69972267622548       -0.79095843499692
H            8.62183376214090        5.60086747227342        0.11087480023169
H            8.84358949298673        5.11747158292652       -1.30867843649750
O            9.10258496312901        4.49228675484482        1.45910619213637
H            8.98967313182334        4.35649647472836        2.40765617384285
H            8.61055436690886        3.76898445619378        1.03334914084905
O           -3.07627744114837        0.27297566653670       -1.35505833561778
H           -3.25627135806908       -0.03154765456989       -2.26243695197219
H           -2.59114007372415       -0.46891132836282       -0.94977694945277
O            3.48004103757048        0.45587933766074       -6.52620418431229
H            3.10072785058488        0.21147682779898       -5.66511856764806
H            4.43931973561779        0.39663112520660       -6.41793093188123
O           -3.31311690773751       -0.54705167979458        4.70633281105075
H           -4.26852697480308       -0.55029263204425        4.84946889742965
H           -3.03777864241978       -1.46788098848632        4.56432772413279
O           -8.48831175534643       -1.06280512843445       -1.61981221710427
H           -9.17907860991824       -1.43059653763770       -1.02612515803242
H           -8.66821010182096       -1.44276420859933       -2.49920733475862
O           -8.38548631987362        0.73271604304739       -5.41794557067663
H           -8.05767742771683        1.66047788287931       -5.38514484900768
H           -9.32036718692501        0.80444306031898       -5.62727615901933
O            9.00112389459486       -4.19054847022002       -0.22482614582144
H            8.81588287448421       -3.29583116148964       -0.59334474292745
H            8.72039717548936       -4.17190688267219        0.70460601755235
O            8.74851575862286       -1.89075617621219       -1.57220139973066
H            7.96970386697279       -1.81252569141569       -2.16450134261204
H            9.51747860262286       -2.00731090955164       -2.18193079394546
O           -4.12849358648806        0.91186030948813        7.09492500150637
H           -4.57411858065741        0.98970013916949        7.93841494415074
H           -4.78779197200815        0.59026780756462        6.44893700587083
O            1.22681457180543        6.04595581473599        2.77002442056753
H            0.66587800042729        6.05801118149019        3.55721655480859
H            0.72839642034144        6.58187459556227        2.11558772226284
O           -7.92138746763116        5.05516316280249        1.46367847555210
H           -7.44346290415537        5.61085959576946        0.83387481711602
H           -7.50710134295459        5.23506402376369        2.33863349062692
O           -1.80023068532655        4.61101277832636        2.73342110782207
H           -1.35464488483052        3.79126216235620        3.02761462444645
H           -1.38453727793942        5.32347309417231        3.24726283211852
O            3.04903871542701        6.88295359193825        4.69186743070978
H            3.96799010388402        6.58835581260558        4.57232436167589
H            2.59708898968627        6.73674948357634        3.84520791011016
O            0.68257950165913       -3.07533750615409        5.08401753548993
H            0.25697035016562       -2.44665427736151        5.70924928867839
H            0.42346934285650       -2.81669222418374        4.17378950016505
O            6.76153554534180       -2.24097859348773        1.17213531611678
H            7.69100432563048       -2.13894098217530        1.46083535801600
H            6.28876868536018       -2.61536303472105        1.92610946951744
O           -2.29207377539905       -2.23954860125811       -6.29590204122735
H           -3.23363390001050       -2.43571797619427       -6.44750611366808
H           -2.22874920388342       -1.29103169686787       -6.47208929960693
O           -8.59198749222751        1.74588510360549        3.60098872849327
H           -7.88282833592306        1.35703113831451        3.05311721854232
H           -9.15117115506001        2.29685225881208        3.01275827067126
O            3.04947716551018       -0.07284943821795       -3.79858615872045
H            3.90048432627554        0.37970089414344       -3.74408052443863
H            3.20370659766267       -1.03847815445978       -3.80933886063872
O           -2.32036232185921        3.21394601423098       -6.06023784396034
H           -2.61886924754166        3.54634416398786       -6.90747793177949
H           -1.34695040173464        3.08407468626524       -6.11031235425819
O            6.08378351590365       -1.54994963429365        5.35535382013779
H            5.38298855938647       -1.43083626159288        6.01869911335555
H            6.69851085406547       -0.78211010280001        5.43338662694348
O            3.79145998233656       -1.33410095066460        6.79277919625868
H            3.10356271246776       -1.14082052553781        7.46393407109966
H            3.54658972935430       -2.21338855872655        6.45428979616718
O            2.83126691203085       -4.60752103696050       -5.93963263851716
H            1.87330013794567       -4.67012037499147       -6.04494637549729
H            3.14542696351765       -4.04079588340078       -6.65505354438356
O            5.14000823327895        4.04846049012862       -5.46094391935813
H            6.00243889257596        4.44094067179534       -5.59684210376067
H            4.57310538815885        4.71629603373725       -5.02965937799590
O            3.66048036960063       -4.37516908022104       -1.87745811837562
H            4.52315171700084       -4.14274628656440       -1.50604226301493
H            3.83787406488015       -5.05349213115961       -2.55800475681918
O            5.30444671754771       -3.30915487506075        3.38450207753043
H            5.67294593989508       -2.86484355053074        4.15957056882746
H            4.91202179440415       -4.15172170541138        3.70703543743200
O           -0.64354580352132       -7.33271279616492       -2.06678789488001
H            0.23242288586208       -7.34195383051543       -2.47998198779290
H           -0.48367764649569       -7.26981581383539       -1.11070213493168
O            2.76160159102812       -2.21744062478792        3.14986360729526
H            2.50512229097169       -1.39218718221647        3.61342224021474
H            3.70406825166506       -2.35759184875804        3.30434312316342
O            8.96500440343824        0.20727524448020        0.04897557997172
H            9.81978352960622        0.66176582800345       -0.03694332124202
H            8.93028955742933       -0.51329404151504       -0.61875783147597
O           -6.69314083051423        2.80270500535310        5.11088071740173
H           -6.36079514803414        1.96333502757810        5.45224514698755
H           -7.53196033541930        2.55502322587205        4.66414329386726
O           -3.18377188164406       -1.91263385606431        7.30075888867572
H           -3.38765016531405       -0.97912905345060        7.16133307321482
H           -3.71105842127946       -2.39850229375167        6.64884794643592
O          -10.35105319909028        2.73485197149978       -4.48025782921445
H          -10.18917695170610        3.16120066467674       -3.62403246756840
H           -9.67397033015187        3.09843712763660       -5.06054286485415
O           -1.58498284714033       -2.73333109860272       -3.73208245614687
H           -1.63887784408562       -3.69206455311062       -3.59828350253135
H           -1.79409491122594       -2.57407985847696       -4.67052745437596
O            1.96653979648694        4.93682747777978        6.08049123218841
H            1.04121384289417        5.09329082721101        6.27592962115865
H            2.32391265008637        5.75671385683458        5.64824724470007
O           -9.59139579800654        4.26302885649118       -2.26654159668886
H          -10.13554180234632        5.01441814374334       -2.03177264353825
H           -8.69494901605997        4.60266647870570       -2.43380991767555
O           -4.55234288693832       -2.34457838162889       -0.08146718412451
H           -5.12453784167934       -3.09731395678652       -0.27908551379164
H           -4.95488527629553       -1.58178583874722       -0.52592780226647
O           -8.59473333858907        1.36220007956208       -2.59216790715296
H           -8.64055438213007        0.49834356612200       -2.12538978874659
H           -8.52188434507783        1.15141120117607       -3.53119875363735
O           -0.73752039422682        3.90600867919042        5.93639324979694
H           -0.48625005580915        3.37912133094127        5.13749136141250
H           -1.68762084008662        3.69145022955250        6.03988366909759
O            6.09653172287201       -6.42884356607829        2.61313026744684
H            5.45433804595276       -6.17261897335680        3.28860799561574
H            6.79244774304463       -5.74658216573627        2.59466284456459
O            6.20494052653359       -3.55192281726055       -1.11829680391314
H            6.45846848508787       -3.11980860942101       -0.27443172650059
H            6.58956352888803       -4.44427925917236       -1.10334752908780
O           -7.21375052197815       -3.95509746547217        3.66455451694687
H           -6.93917860714564       -4.86617895705445        3.49399811113180
H           -6.51062382170758       -3.41340562818209        3.24615186588854
O            1.77039154769289        8.63858620786405       -0.04910543604374
H            1.56516897731822        8.61434140036431       -0.99037906185781
H            0.95342994389015        8.38642277697680        0.40646456255808
O           -9.36631710614370       -4.31987832518187       -4.18088879964083
H           -9.38490265065507       -3.33979822185965       -4.11288409228416
H          -10.24963243643076       -4.59313321115018       -4.42685628280365
O          -11.90785504912457        0.14530248653462       -1.15778555620697
H          -12.78377882874549        0.24897339971291       -0.78783141853545
H          -11.40191451674116        0.95524123029874       -0.91450273523735
O           -9.76238077273574       -0.63493624688822        4.08763214643271
H          -10.54066493390661       -0.43153982757050        3.53858880747927
H           -9.26397112091801        0.20941650119288        4.05625920669749
O           -7.72131236838064       -1.98920994086364        5.50346892665948
H           -8.54494796810896       -1.54644582005082        5.25679763927719
H           -7.66666663257684       -2.77071992555242        4.92710995925174
O           -3.54986094167341       -4.34976294194620        2.00085362608243
H           -3.12830228488966       -4.00170239721605        2.81728496601295
H           -4.18314966950428       -5.03236758268149        2.28161325102673
O           -4.95627137706917       -2.38050667842113       -6.69195529169327
H           -5.71145150665710       -2.91083506731369       -6.41068561915501
H           -5.22970844339115       -1.45401440351283       -6.60485531433854
O            8.66455329238166        1.05704309644527       -5.29429663978556
H            8.43180261386219        1.98999482818823       -5.24953576355905
H            9.19991218225102        0.89807858147225       -4.49660974334972
O           -1.87528249020341       -5.42259332338481       -3.59263845542274
H           -1.39723835654809       -6.07091985015085       -3.04742783293141
H           -2.72209188368699       -5.81324900576549       -3.80886558268817
O           -5.22812250975859       -2.43122820855339        2.62771473286368
H           -4.69268196150891       -3.11514819500227        2.16446415642413
H           -5.83562313353403       -2.09230972834553        1.93905341948258
O            9.92189883844831        0.88893581179539       -2.84674181658722
H           10.58012363435131        0.31728511935375       -2.40057905518018
H           10.07760285181236        1.80668574014464       -2.56227533915912
O           -3.38350249868150       -7.26849049545973       -1.59020616533131
H           -2.50964882433788       -7.61582481240018       -1.80270766274030
H           -3.59739839333507       -7.53267494996437       -0.66393871969235
O           -5.79502594375522        0.26833020587579       -6.31477943500602
H           -5.75601364083493        0.43952347761256       -5.34145373020446
H           -6.73813382324156        0.25361452378017       -6.51002415084310
O            0.97930603660343        7.80147060651085       -2.77591500861031
H            0.04321604413856        8.08162930527110       -2.77642856118406
H            1.01588992496499        7.17661284808742       -3.52585403640627
O            1.72594462607693       -4.41141881256460        0.23742396435323
H            2.60044156207579       -3.98539534135134        0.33499317278007
H            1.92900617603500       -5.30482521495587       -0.09722659215994
O           -1.14683957342160        4.26009703597216        0.22773231362825
H           -0.19724154880274        4.05074381357501        0.37423068700340
H           -1.47060552574605        4.59590903487755        1.08871041666164
O            3.52159017708358       -2.31946489875959       -7.37730216080303
H            3.66974825113827       -1.63721204832418       -8.03305314695752
H            2.82274550852798       -1.95645980078224       -6.79336758604737
O           -7.62662004185964        3.29511765317877       -5.27109662250976
H           -7.38326322774059        3.69257291415341       -4.43092048459834
H           -6.82014522056934        3.34033276712372       -5.83893547109585
O          -11.10816955662858        0.35497327977078        1.95979148866918
H          -11.32244706582569        1.26836118404956        2.16020557756606
H          -10.25303945999985        0.39271234024153        1.48761765974223
O            7.30688383931914        1.00975995289831       -2.49410321711115
H            8.27733385531875        0.89746304967054       -2.48824151039172
H            6.97608402118078        0.77147362656297       -1.60280623338633
O           -3.05329419821794        6.82666761031619        1.37795856540396
H           -3.38342513495033        5.91224447306128        1.23208526844815
H           -3.39524127723732        7.08702735322174        2.23399883688656
O           11.28507302637865       -2.45761339995247        0.30036963723463
H           10.60878064855360       -2.20794929091452        0.96096147466063
H           10.96487814046047       -3.27317799169462       -0.09647986375336
O            1.79015834335701       -4.68133349862818        2.84052618561909
H            1.63421779245574       -4.65282259833074        1.86904666098715
H            1.96229731389147       -3.75306985338737        3.08733929386560
O            9.24280365563193       -1.66011536322770        1.87892559659273
H            9.15346424716995       -0.85218023997652        1.32079380150309
H            9.53560220627985       -1.36152203713211        2.76029973703586
O           -5.68911019886878       -6.09781631103665       -2.43851850337045
H           -5.00051375794374       -6.73092357150129       -2.18369889769768
H           -5.39336945340171       -5.72683353125919       -3.27813732838487
O            5.09186058783096        1.80726836619405       -3.96165139146612
H            5.11646536496238        2.60164818866425       -4.53016521299780
H            5.54337194568672        1.12678978008596       -4.50861262128063
O           -5.94885288585642        0.03126514776787        5.24610496082587
H           -6.12344673161804        0.18454234422830        4.28391045456665
H           -6.58000030370262       -0.67420454303632        5.48772745051101
O           10.60926437407088       -2.40008852843615       -3.38976227561662
H           10.08847783780619       -2.11652560604877       -4.17275176640042
H           10.49149481922539       -3.36640289152573       -3.37811107872487
O            9.40246781707162       -4.82008722998313       -3.06185707052703
H            8.53756166284217       -4.62430935469919       -3.46344974452972
H            9.33223304177171       -4.63550003746897       -2.11887310407256
O            3.05467478842436        1.26959986438155        6.07130832099243
H            3.47797947500890        0.49280830291201        6.45934677616526
H            2.61211223207069        0.91421226665081        5.26676528663841
O            8.37281166476686       -3.02594693081074        4.54097910879578
H            9.12062381401865       -2.41815406496530        4.55666312822712
H            7.63714561623389       -2.57380638127329        4.97279675589693
O           -2.42569608267859       -6.72069156688232        2.95954772767954
H           -2.84582113540046       -6.42372466440240        3.77586049256929
H           -1.47275398446287       -6.76152223299528        3.14273941293314
O           -9.29792545926922       -2.76354532938616        2.47379990485508
H           -8.71148646714279       -3.36576297663381        2.97178716481051
H           -9.50831288338586       -2.03092613858095        3.08796689836219
O           -5.94587283640934       -0.17806677456563       -1.09162155704314
H           -5.80323077339739        0.32833594368254       -1.90378518635380
H           -6.85459093548832       -0.51634437426839       -1.14574303494655
O           -6.89967172475986       -3.77330212254473       -5.30123732487334
H           -7.74561499978023       -4.19738348556859       -5.10562255597237
H           -6.80161181099150       -3.07211092898078       -4.61555926204453
O            3.30463918207336        5.52655560591020       -4.20474036442421
H            3.42888958146877        6.09456422692700       -3.42476953543083
H            2.40690585451612        5.67867113035500       -4.54545286117734
O            6.75528636447813       -4.29519708031353       -3.83167118242238
H            6.57334976004458       -3.76084800249061       -3.04578460945831
H            6.57152594169570       -3.70878277794213       -4.58580880313091
O          -11.17319091171827        0.12900098752786       -3.84681806574981
H          -11.49555912025337        0.09634890899075       -2.93098045299420
H          -10.95246270698959        1.05856554128446       -4.02662630053210
O          -10.05613820142861        3.29099260632571        1.96238177649642
H          -10.25010417989694        2.97912711082326        1.05777578198636
H           -9.49887422113675        4.07304155881510        1.85867752178520
O           -4.13859415407901       -7.41777624803130        0.92763307235859
H           -4.64504617787239       -6.59240219061641        0.76363991027997
H           -3.45527941024517       -7.20720971879084        1.58519200446550
O           11.19066264317230        1.77135004414487       -0.08112959856433
H           11.77303566173455        1.18574337480737       -0.58119298911456
H           10.97643503887445        2.53584064314772       -0.62909710423788
O           -4.72221977468894        6.06432163980821       -3.76109332320799
H           -4.56033217273557        6.69747249010961       -3.05387051347425
H           -3.86168205954667        5.96491938598785       -4.21705444870131
O           -8.69286713260028        0.57477549033068        0.68782681035407
H           -8.19801964810913       -0.25987449274989        0.63043301929744
H           -8.03637901618023        1.28330822744857        0.86138812930975
O           -6.40124833334323       -1.96318250508847       -3.43461366635566
H           -6.29039264423741       -1.01674505476039       -3.56874439236364
H           -5.51806649970777       -2.32299168737994       -3.19376815068419
O           -0.76736455511478        6.19646522218242        4.67091508287176
H           -0.79463803055083        5.38002289298953        5.23517204934144
H           -1.39581130215418        6.81862560868693        5.03381671006865
O            7.33112516198407       -6.04524749519671       -1.23678518757029
H            7.62511011493353       -6.29394695030381       -2.11644187322666
H            8.08831014964750       -5.61555628187163       -0.79113711055680
O            0.66954340356836        5.73692129662755       -4.54624165472785
H            0.45733484639136        5.00723119946250       -3.91247069497606
H           -0.14843381638188        5.87399357175119       -5.03196906453930
O           -0.00550295524839       -7.27415582407063        0.61064760936922
H           -0.10933905302461       -7.91592024767251        1.31421107046087
H            0.94334613624553       -7.21915599084267        0.40824961452213
O           -8.16944296212632       -5.12460125474766        0.91587029720144
H           -8.44530000896030       -5.42205222844994        0.03958970114945
H           -8.79622042653893       -4.44603755788586        1.17946307752748
O            2.97443254733482       -3.86553984965675        6.06089992271270
H            2.69917484221736       -4.22037764281606        6.90621910664552
H            2.14458766304941       -3.56650329650329        5.60692112366685
O            3.95307136593462       -5.47375665307724        4.09606834773496
H            3.70210160121763       -5.10232170946656        4.95914756522857
H            3.14860252676306       -5.31617426011577        3.53968155698147
O            1.08575449151523       -4.35636689637736       -3.44849217942023
H            0.58392498641136       -4.30494176340046       -4.27735925495581
H            0.47044204477664       -4.10697982920862       -2.73140580391196
O            8.79662879276279       -1.78698686419727       -5.25343474694611
H            8.00263293095694       -1.77046916400519       -4.69473113729106
H            8.89301701420144       -0.90344922290176       -5.61918125714867
O           -6.01519438930734        6.00251624430872       -0.34816863619784
H           -5.39247846072552        6.67508648118672       -0.67352612684272
H           -5.43610562893053        5.37081297330776        0.14151662349084
O           -7.01878781751498        5.13154743193585       -2.63534526213323
H           -6.38524461364527        5.50351907031550       -3.26786472174461
H           -6.74221987926136        5.50570391700076       -1.76300205905625
O            7.49122906533627        1.05877027772030        2.51817272458958
H            7.16819723347673        1.97646626866663        2.43301044804846
H            8.44763973136459        1.10569062039591        2.32779370051187
O           10.13601505748437        1.54234940535759        2.55875531752932
H           10.60158461227321        1.78727807327560        1.74852079495568
H            9.93766545021458        2.35842429674286        3.04434016141009
O           -5.50180851840370       -5.18562096524612        0.23101178744650
H           -5.64413644601846       -5.37218901097013       -0.70937605790368
H           -6.38812978451859       -5.14815405018977        0.62672045013438
O            0.80415791959410        2.00439605966226        7.35096654181908
H            0.56724457520371        2.90656520044704        7.10280762818348
H            1.64981773921955        1.80350668926996        6.89276806369553
O           -5.29893928220144        3.03811161390622       -6.52561933631552
H           -4.83559331776969        3.12766958540821       -5.66702567977616
H           -5.36429407765637        2.08766621134162       -6.69581657946495
O           -7.03779056545574        2.61535035391477        0.93149973055165
H           -7.44397989302963        3.49336776573177        1.10834916940038
H           -6.76481139741852        2.62312086379308       -0.01081507466417
O           -9.26125336405041       -1.64269774777224       -4.12391773930398
H           -8.65875231271955       -1.15229793549538       -4.69358558381983
H          -10.05878569055579       -1.06090114500682       -4.03334706141685
O            5.04194715486092       -6.16129674963662        0.23584816338612
H            5.41407070091007       -6.38289215066956        1.12447517235373
H            5.76901973470799       -6.30565670907043       -0.38580093734063
O            6.15409473206191        5.37081932557624       -2.62747726198032
H            6.88416661742026        5.69590718094392       -2.08126409345205
H            5.40552297820726        5.97063555101021       -2.46724716477131
O            4.40982939706725       -5.82296444125385       -3.99905575788291
H            3.91249049036009       -5.45163974519995       -4.74709410092336
H            5.30326800121454       -5.44193612074108       -4.04970785799675
O          -10.36444636087371        2.23080245810234       -0.52956497003658
H          -10.01057693321634        2.78116059474328       -1.24515971873091
H           -9.66104508414364        1.58964838130649       -0.29974839849749
O            7.66855383652700        3.36467664810410       -3.85932127407112
H            7.08123975266119        4.08202154782704       -3.58720357609220
H            7.31553179484599        2.54868264788933       -3.45203101951542
O            1.62232210070352       -0.73472732014377        8.26369340073064
H            0.84937667659244       -1.16583686960841        7.85592666739148
H            1.40289628649106        0.20100882817884        8.30457860710280
O            6.19714623409075        0.14348016172903       -0.21134343575375
H            5.47035284576676       -0.26791388780016       -0.72091950889659
H            6.56643459914869       -0.57912134146022        0.31685973498569
O            4.20673701039265       -3.69019768923885        0.85470334603109
H            4.54402246375868       -4.55910352575451        0.55535299288121
H            4.46052878758453       -3.61022053380578        1.77903169630744
O           -5.61830970449400        0.77575718672374       -3.70520012112625
H           -5.37659639262329        1.72164018970388       -3.68861019806632
H           -4.76568286333491        0.28041266415506       -3.71915521301148
O            3.70588234761819        6.88094018469822        0.67614432007308
H            3.01576486781649        7.56903673423734        0.63171699072631
H            3.39285258619202        6.17719033999082        1.26598542518812
O           -3.73938719451218        7.22518240569928       -1.25691382339005
H           -3.45889080517163        7.42212553866200       -0.35109676903058
H           -3.34365281668107        6.33121604320460       -1.44322455656913
O           -3.97835607123275        5.38781758553081        4.14712417029228
H           -3.94038731831477        4.72584625817786        4.85193619936726
H           -3.35614698846876        5.04728996881984        3.47892820301918
O           -4.23955033042877        4.47588021028358        0.92574858335028
H           -4.54891530940482        4.01559259518210        1.73007600765724
H           -4.05739454237844        3.78042933480187        0.26564078861395
O            1.41089665967223       -1.55046386618211       -5.84739607443946
H            0.92106680112917       -0.88675178006588       -6.35553891697591
H            1.19284211081646       -1.40316267659911       -4.89348127490622
O            4.75185484138707        2.13867023891010        3.88181498889592
H            4.75669078768816        1.19844207466230        3.61946366524324
H            5.19094416872895        2.61224506146192        3.14916988875885
O           -0.35695287853610        7.19509949359692        0.97759633420239
H           -1.31247159454912        7.08346276940863        1.11365187617787
H           -0.09183422530673        6.59857055374915        0.24681688521462
O           -2.94423253536066        0.55113272777355       -6.84203601587219
H           -3.88757200802222        0.36725278811063       -6.81545182169590
H           -2.81463515906100        1.39933645778296       -6.38730488255826
O           11.73561965833013       -0.59910017818003       -1.57367774004315
H           11.82780824724293       -1.19142851838882       -2.33082267085714
H           11.60315481995219       -1.21439171888304       -0.81597317006527
O            5.53660146735286       -2.52593091770283       -5.54588057247660
H            5.06525614732344       -2.58525940109807       -6.39147737703260
H            4.81050953670012       -2.57201172137164       -4.88150079227101
O           -3.98157438533869        2.77334091832410       -1.11580268223886
H           -4.91767832526137        2.67255267106125       -1.36284592467375
H           -3.54940896384731        1.94397045148257       -1.38595919494934
O           -4.55895638720070        3.22499377382070       -3.94762458867236
H           -4.63769117926887        4.16488881937780       -3.74196692764213
H           -3.62932729840774        2.95717374067446       -3.72686934291149
O            6.54065353660357        3.59882391548777        2.48770861857715
H            6.30914707488056        4.01496424102798        1.63451071932947
H            6.46127405475866        4.29235953069409        3.16084244056710
O            6.81972576786979       -1.40126720719234       -3.35247217346036
H            5.91051950980911       -1.51264022008540       -3.03146545725685
H            6.98894431280480       -0.43974163581212       -3.22717625053221
O           -6.93875814053404       -3.24036819098876       -1.07442729590968
H           -7.52758944609942       -3.99065462143406       -1.26571563339509
H           -6.90480946813400       -2.70351015064586       -1.88085798635116
O           -3.54261388878272       -0.74115530016272       -3.77305309399472
H           -3.43979924184771       -1.67826976589040       -3.52088504343608
H           -2.69947903674397       -0.44939228447492       -4.18347037422398
O           -8.30805812668930       -5.42383698472283       -1.87476977045154
H           -7.48466247158158       -5.86114999295014       -2.14413084517982
H           -8.73746558025070       -5.11240519275272       -2.68855892796973
O            2.53461585874046       -6.91105009659574       -0.32938109138918
H            3.48190749750623       -6.68939983623455       -0.23198798291049
H            2.35681689944776       -6.92667662616854       -1.30122873260410
O           -4.91904550698887       -3.00802375974760        5.39103473710770
H           -5.80967428495942       -2.89767372409504        5.73427550772671
H           -4.94528943083912       -2.75945243388069        4.45207480858697
O            6.10248758912580        0.09407505179476       -5.68021035925881
H            7.04247682786764        0.33433154836655       -5.69684649808744
H            6.04103708198394       -0.88307231349146       -5.58265799663324
O           10.04575658732436       -0.66521522509999        4.25350706178033
H            9.30781845083107       -0.25663940951613        4.74279173766508
H           10.45840740108390        0.06940868588710        3.77717541569212
O           -1.07556559729167       -5.04720644331539        5.47806156389909
H           -0.36170059518215       -4.37632949462229        5.48547392833432
H           -0.70110783731998       -5.78388555734443        4.97321203314852
 
 Bond Distances (Angstroems)
 ---------------------------
H1-C2=1.0893         C2-H1=1.0893         C2-H3=1.0871         C2-C4=1.5303         C2-O7=1.4133         H3-C2=1.0871         
C4-C2=1.5303         C4-H5=1.0831         C4-H6=1.0819         C4-N9=1.4710         H5-C4=1.0831         H6-C4=1.0819         
O7-C2=1.4133         O7-H8=0.9815         H8-O7=0.9815         N9-C4=1.4710         N9-H10=1.0277        N9-H11=1.0532        
N9-H12=1.0464        H10-N9=1.0277        H11-N9=1.0532        H12-N9=1.0464        O13-H14=0.9813       O13-H15=0.9660       
H14-O13=0.9813       H15-O13=0.9660       O16-H17=0.9785       O16-H18=0.9661       H17-O16=0.9785       H18-O16=0.9661       
O19-H20=0.9720       O19-H21=0.9793       H20-O19=0.9720       H21-O19=0.9793       O22-H23=0.9759       O22-H24=0.9757       
H23-O22=0.9759       H24-O22=0.9757       O25-H26=0.9722       O25-H27=0.9923       H26-O25=0.9722       H27-O25=0.9923       
O28-H29=0.9863       O28-H30=0.9585       H29-O28=0.9863       H30-O28=0.9585       O31-H32=0.9810       O31-H33=0.9785       
H32-O31=0.9810       H33-O31=0.9785       O34-H35=0.9714       O34-H36=0.9639       H35-O34=0.9714       H36-O34=0.9639       
O37-H38=0.9728       O37-H39=0.9756       H38-O37=0.9728       H39-O37=0.9756       O40-H41=0.9691       O40-H42=0.9779       
H41-O40=0.9691       H42-O40=0.9779       O43-H44=0.9739       O43-H45=0.9814       H44-O43=0.9739       H45-O43=0.9814       
O46-H47=0.9731       O46-H48=0.9692       H47-O46=0.9731       H48-O46=0.9692       O49-H50=0.9772       O49-H51=0.9726       
H50-O49=0.9772       H51-O49=0.9726       O52-H53=0.9878       O52-H54=0.9742       H53-O52=0.9878       H54-O52=0.9742       
O55-H56=0.9779       O55-H57=0.9774       H56-O55=0.9779       H57-O55=0.9774       O58-H59=0.9664       O58-H60=0.9643       
H59-O58=0.9664       H60-O58=0.9643       O61-H62=0.9662       O61-H63=0.9744       H62-O61=0.9662       H63-O61=0.9744       
O64-H65=0.9727       O64-H66=0.9811       H65-O64=0.9727       H66-O64=0.9811       O67-H68=0.9702       O67-H69=0.9729       
H68-O67=0.9702       H69-O67=0.9729       O70-H71=0.9847       O70-H72=0.9606       H71-O70=0.9847       H72-O70=0.9606       
O73-H74=0.9615       O73-H75=0.9869       H74-O73=0.9615       H75-O73=0.9869       O76-H77=0.9811       O76-H78=0.9762       
H77-O76=0.9811       H78-O76=0.9762       O79-H80=0.9789       O79-H81=0.9779       H80-O79=0.9789       H81-O79=0.9779       
O82-H83=0.9774       O82-H84=0.9775       H83-O82=0.9774       H84-O82=0.9775       O85-H86=0.9830       O85-H87=0.9648       
H86-O85=0.9830       H87-O85=0.9648       O88-H89=0.9790       O88-H90=0.9903       H89-O88=0.9790       H90-O88=0.9903       
O91-H92=0.9828       O91-H93=0.9762       H92-O91=0.9828       H93-O91=0.9762       O94-H95=0.9693       O94-H96=0.9655       
H95-O94=0.9693       H96-O94=0.9655       O97-H98=0.9834       O97-H99=0.9772       H98-O97=0.9834       H99-O97=0.9772       
O100-H101=0.9723     O100-H102=0.9808     H101-O100=0.9723     H102-O100=0.9808     O103-H104=0.9875     O103-H105=0.9606     
H104-O103=0.9875     H105-O103=0.9606     O106-H107=0.9578     O106-H108=0.9890     H107-O106=0.9578     H108-O106=0.9890     
O109-H110=0.9771     O109-H111=0.9940     H110-O109=0.9771     H111-O109=0.9940     O112-H113=0.9800     O112-H114=0.9639     
H113-O112=0.9800     H114-O112=0.9639     O115-H116=0.9674     O115-H117=0.9691     H116-O115=0.9674     H117-O115=0.9691     
O118-H119=0.9711     O118-H120=0.9619     H119-O118=0.9711     H120-O118=0.9619     O121-H122=0.9835     O121-H123=0.9880     
H122-O121=0.9835     H123-O121=0.9880     O124-H125=0.9674     O124-H126=0.9760     H125-O124=0.9674     H126-O124=0.9760     
O127-H128=0.9742     O127-H129=0.9656     H128-O127=0.9742     H129-O127=0.9656     O130-H131=0.9697     O130-H132=0.9643     
H131-O130=0.9697     H132-O130=0.9643     O133-H134=0.9953     O133-H135=0.9650     H134-O133=0.9953     H135-O133=0.9650     
O136-H137=0.9728     O136-H138=0.9916     H137-O136=0.9728     H138-O136=0.9916     O139-H140=0.9664     O139-H141=0.9772     
H140-O139=0.9664     H141-O139=0.9772     O142-H143=0.9772     O142-H144=0.9756     H143-O142=0.9772     H144-O142=0.9756     
O145-H146=0.9693     O145-H147=0.9736     H146-O145=0.9693     H147-O145=0.9736     O148-H149=0.9817     O148-H150=0.9658     
H149-O148=0.9817     H150-O148=0.9658     O151-H152=0.9608     O151-H153=0.9696     H152-O151=0.9608     H153-O151=0.9696     
O154-H155=1.0000     O154-H156=0.9614     H155-O154=1.0000     H156-O154=0.9614     O157-H158=0.9623     O157-H159=0.9793     
H158-O157=0.9623     H159-O157=0.9793     O160-H161=0.9808     O160-H162=0.9658     H161-O160=0.9808     H162-O160=0.9658     
O163-H164=0.9700     O163-H165=0.9816     H164-O163=0.9700     H165-O163=0.9816     O166-H167=0.9739     O166-H168=0.9703     
H167-O166=0.9739     H168-O166=0.9703     O169-H170=0.9616     O169-H171=0.9848     H170-O169=0.9616     H171-O169=0.9848     
O172-H173=0.9724     O172-H174=0.9826     H173-O172=0.9724     H174-O172=0.9826     O175-H176=0.9808     O175-H177=0.9765     
H176-O175=0.9808     H177-O175=0.9765     O178-H179=0.9724     O178-H180=0.9728     H179-O178=0.9724     H180-O178=0.9728     
O181-H182=0.9652     O181-H183=0.9866     H182-O181=0.9652     H183-O181=0.9866     O184-H185=0.9647     O184-H186=0.9734     
H185-O184=0.9647     H186-O184=0.9734     O187-H188=0.9747     O187-H189=0.9858     H188-O187=0.9747     H189-O187=0.9858     
O190-H191=0.9725     O190-H192=0.9731     H191-O190=0.9725     H192-O190=0.9731     O193-H194=0.9785     O193-H195=0.9778     
H194-O193=0.9785     H195-O193=0.9778     O196-H197=0.9736     O196-H198=0.9714     H197-O196=0.9736     H198-O196=0.9714     
O199-H200=0.9836     O199-H201=0.9580     H200-O199=0.9836     H201-O199=0.9580     O202-H203=0.9642     O202-H204=0.9598     
H203-O202=0.9642     H204-O202=0.9598     O205-H206=0.9781     O205-H207=0.9617     H206-O205=0.9781     H207-O205=0.9617     
O208-H209=0.9789     O208-H210=0.9563     H209-O208=0.9789     H210-O208=0.9563     O211-H212=0.9748     O211-H213=0.9704     
H212-O211=0.9748     H213-O211=0.9704     O214-H215=0.9648     O214-H216=0.9729     H215-O214=0.9648     H216-O214=0.9729     
O217-H218=0.9739     O217-H219=0.9747     H218-O217=0.9739     H219-O217=0.9747     O220-H221=0.9722     O220-H222=0.9672     
H221-O220=0.9722     H222-O220=0.9672     O223-H224=0.9661     O223-H225=0.9715     H224-O223=0.9661     H225-O223=0.9715     
O226-H227=0.9823     O226-H228=0.9747     H227-O226=0.9823     H228-O226=0.9747     O229-H230=0.9845     O229-H231=0.9607     
H230-O229=0.9845     H231-O229=0.9607     O232-H233=0.9852     O232-H234=0.9711     H233-O232=0.9852     H234-O232=0.9711     
O235-H236=0.9816     O235-H237=0.9883     H236-O235=0.9816     H237-O235=0.9883     O238-H239=0.9571     O238-H240=0.9774     
H239-O238=0.9571     H240-O238=0.9774     O241-H242=0.9667     O241-H243=0.9818     H242-O241=0.9667     H243-O241=0.9818     
O244-H245=0.9664     O244-H246=0.9847     H245-O244=0.9664     H246-O244=0.9847     O247-H248=0.9783     O247-H249=0.9718     
H248-O247=0.9783     H249-O247=0.9718     O250-H251=0.9724     O250-H252=0.9708     H251-O250=0.9724     H252-O250=0.9708     
O253-H254=0.9835     O253-H255=0.9811     H254-O253=0.9835     H255-O253=0.9811     O256-H257=0.9786     O256-H258=0.9655     
H257-O256=0.9786     H258-O256=0.9655     O259-H260=0.9737     O259-H261=0.9668     H260-O259=0.9737     H261-O259=0.9668     
O262-H263=0.9769     O262-H264=0.9810     H263-O262=0.9769     H264-O262=0.9810     O265-H266=0.9654     O265-H267=0.9779     
H266-O265=0.9654     H267-O265=0.9779     O268-H269=0.9578     O268-H270=0.9833     H269-O268=0.9578     H270-O268=0.9833     
O271-H272=0.9723     O271-H273=0.9867     H272-O271=0.9723     H273-O271=0.9867     O274-H275=0.9803     O274-H276=0.9735     
H275-O274=0.9803     H276-O274=0.9735     O277-H278=0.9658     O277-H279=0.9652     H278-O277=0.9658     H279-O277=0.9652     
O280-H281=0.9572     O280-H282=0.9764     H281-O280=0.9572     H282-O280=0.9764     O283-H284=0.9676     O283-H285=0.9771     
H284-O283=0.9676     H285-O283=0.9771     O286-H287=0.9664     O286-H288=0.9838     H287-O286=0.9664     H288-O286=0.9838     
O289-H290=0.9686     O289-H291=0.9714     H290-O289=0.9686     H291-O289=0.9714     O292-H293=0.9807     O292-H294=0.9653     
H293-O292=0.9807     H294-O292=0.9653     O295-H296=0.9719     O295-H297=0.9830     H296-O295=0.9719     H297-O295=0.9830     
O298-H299=0.9652     O298-H300=0.9821     H299-O298=0.9652     H300-O298=0.9821     O301-H302=0.9656     O301-H303=0.9691     
H302-O301=0.9656     H303-O301=0.9691     O304-H305=0.9701     O304-H306=0.9630     H305-O304=0.9701     H306-O304=0.9630     
O307-H308=0.9695     O307-H309=0.9746     H308-O307=0.9695     H309-O307=0.9746     O310-H311=0.9586     O310-H312=0.9934     
H311-O310=0.9586     H312-O310=0.9934     O313-H314=0.9570     O313-H315=0.9731     H314-O313=0.9570     H315-O313=0.9731     
O316-H317=0.9660     O316-H318=0.9703     H317-O316=0.9660     H318-O316=0.9703     O319-H320=0.9830     O319-H321=0.9652     
H320-O319=0.9830     H321-O319=0.9652     O322-H323=0.9894     O322-H324=0.9795     H323-O322=0.9894     H324-O322=0.9795     
O325-H326=0.9666     O325-H327=0.9747     H326-O325=0.9666     H327-O325=0.9747     O328-H329=0.9814     O328-H330=0.9718     
H329-O328=0.9814     H330-O328=0.9718     O331-H332=0.9667     O331-H333=0.9813     H332-O331=0.9667     H333-O331=0.9813     
O334-H335=0.9637     O334-H336=0.9688     H335-O334=0.9637     H336-O334=0.9688     O337-H338=0.9826     O337-H339=0.9568     
H338-O337=0.9826     H339-O337=0.9568     O340-H341=0.9565     O340-H342=0.9855     H341-O340=0.9565     H342-O340=0.9855     
O343-H344=0.9739     O343-H345=0.9810     H344-O343=0.9739     H345-O343=0.9810     O346-H347=0.9671     O346-H348=0.9726     
H347-O346=0.9671     H348-O346=0.9726     O349-H350=0.9826     O349-H351=0.9725     H350-O349=0.9826     H351-O349=0.9725     
O352-H353=0.9647     O352-H354=0.9699     H353-O352=0.9647     H354-O352=0.9699     O355-H356=0.9626     O355-H357=0.9737     
H356-O355=0.9626     H357-O355=0.9737     O358-H359=0.9727     O358-H360=0.9573     H359-O358=0.9727     H360-O358=0.9573     
O361-H362=0.9844     O361-H363=0.9789     H362-O361=0.9844     H363-O361=0.9789     O364-H365=0.9793     O364-H366=0.9734     
H365-O364=0.9793     H366-O364=0.9734     O367-H368=0.9641     O367-H369=0.9867     H368-O367=0.9641     H369-O367=0.9867     
O370-H371=0.9890     O370-H372=0.9632     H371-O370=0.9890     H372-O370=0.9632     O373-H374=0.9771     O373-H375=0.9768     
H374-O373=0.9771     H375-O373=0.9768     O376-H377=0.9776     O376-H378=0.9754     H377-O376=0.9776     H378-O376=0.9754     
O379-H380=0.9834     O379-H381=0.9792     H380-O379=0.9834     H381-O379=0.9792     O382-H383=0.9578     O382-H384=0.9804     
H383-O382=0.9578     H384-O382=0.9804     O385-H386=0.9608     O385-H387=0.9874     H386-O385=0.9608     H387-O385=0.9874     
O388-H389=0.9594     O388-H390=0.9776     H389-O388=0.9594     H390-O388=0.9776     O391-H392=0.9769     O391-H393=0.9801     
H392-O391=0.9769     H393-O391=0.9801     O394-H395=0.9831     O394-H396=0.9579     H395-O394=0.9831     H396-O394=0.9579     
O397-H398=0.9778     O397-H399=0.9619     H398-O397=0.9778     H399-O397=0.9619     O400-H401=0.9843     O400-H402=0.9758     
H401-O400=0.9843     H402-O400=0.9758     O403-H404=0.9860     O403-H405=0.9756     H404-O403=0.9860     H405-O403=0.9756     
O406-H407=0.9695     O406-H408=0.9644     H407-O406=0.9695     H408-O406=0.9644     O409-H410=0.9772     O409-H411=0.9829     
H410-O409=0.9772     H411-O409=0.9829     O412-H413=0.9898     O412-H414=0.9769     H413-O412=0.9898     H414-O412=0.9769     
O415-H416=0.9822     O415-H417=0.9735     H416-O415=0.9822     H417-O415=0.9735     O418-H419=0.9735     O418-H420=0.9634     
H419-O418=0.9735     H420-O418=0.9634     O421-H422=0.9660     O421-H423=0.9846     H422-O421=0.9660     H423-O421=0.9846     
O424-H425=0.9638     O424-H426=0.9655     H425-O424=0.9638     H426-O424=0.9655     O427-H428=0.9649     O427-H429=0.9712     
H428-O427=0.9649     H429-O427=0.9712     O430-H431=0.9770     O430-H432=0.9789     H431-O430=0.9770     H432-O430=0.9789     
O433-H434=0.9677     O433-H435=0.9711     H434-O433=0.9677     H435-O433=0.9711     O436-H437=0.9663     O436-H438=0.9856     
H437-O436=0.9663     H438-O436=0.9856     O439-H440=0.9728     O439-H441=0.9722     H440-O439=0.9728     H441-O439=0.9722     
O442-H443=0.9676     O442-H444=0.9728     H443-O442=0.9676     H444-O442=0.9728     O445-H446=0.9715     O445-H447=0.9722     
H446-O445=0.9715     H447-O445=0.9722     O448-H449=0.9763     O448-H450=0.9659     H449-O448=0.9763     H450-O448=0.9659     
O451-H452=0.9822     O451-H453=0.9714     H452-O451=0.9822     H453-O451=0.9714     O454-H455=0.9655     O454-H456=0.9647     
H455-O454=0.9655     H456-O454=0.9647     O457-H458=0.9629     O457-H459=0.9789     H458-O457=0.9629     H459-O457=0.9789     
O460-H461=0.9720     O460-H462=0.9814     H461-O460=0.9720     H462-O460=0.9814     O463-H464=0.9623     O463-H465=0.9836     
H464-O463=0.9623     H465-O463=0.9836     O466-H467=0.9928     O466-H468=0.9559     H467-O466=0.9928     H468-O466=0.9559     
O469-H470=0.9602     O469-H471=0.9780     H470-O469=0.9602     H471-O469=0.9780     O472-H473=0.9895     O472-H474=0.9611     
H473-O472=0.9895     H474-O472=0.9611     O475-H476=0.9579     O475-H477=0.9718     H476-O475=0.9579     H477-O475=0.9718     
O478-H479=0.9656     O478-H480=0.9606     H479-O478=0.9656     H480-O478=0.9606     O481-H482=0.9572     O481-H483=0.9920     
H482-O481=0.9572     H483-O481=0.9920     O484-H485=0.9726     O484-H486=0.9907     H485-O484=0.9726     H486-O484=0.9907     
O487-H488=0.9703     O487-H489=0.9772     H488-O487=0.9703     H489-O487=0.9772     O490-H491=0.9710     O490-H492=0.9611     
H491-O490=0.9710     H492-O490=0.9611     O493-H494=0.9726     O493-H495=0.9870     H494-O493=0.9726     H495-O493=0.9870     
O496-H497=0.9694     O496-H498=0.9887     H497-O496=0.9694     H498-O496=0.9887     O499-H500=0.9766     O499-H501=0.9763     
H500-O499=0.9766     H501-O499=0.9763     O502-H503=0.9660     O502-H504=0.9701     H503-O502=0.9660     H504-O502=0.9701     
O505-H506=0.9692     O505-H507=0.9714     H506-O505=0.9692     H507-O505=0.9714     O508-H509=0.9652     O508-H510=0.9826     
H509-O508=0.9652     H510-O508=0.9826     O511-H512=0.9797     O511-H513=0.9678     H512-O511=0.9797     H513-O511=0.9678     
O514-H515=0.9835     O514-H516=0.9811     H515-O514=0.9835     H516-O514=0.9811     O517-H518=0.9633     O517-H519=0.9913     
H518-O517=0.9633     H519-O517=0.9913     O520-H521=0.9886     O520-H522=0.9674     H521-O520=0.9886     H522-O520=0.9674     
O523-H524=0.9680     O523-H525=0.9725     H524-O523=0.9680     H525-O523=0.9725     O526-H527=0.9720     O526-H528=0.9726     
H527-O526=0.9720     H528-O526=0.9726     O529-H530=0.9696     O529-H531=0.9791     H530-O529=0.9696     H531-O529=0.9791     
O532-H533=0.9662     O532-H534=0.9779     H533-O532=0.9662     H534-O532=0.9779     O535-H536=0.9745     O535-H537=0.9620     
H536-O535=0.9745     H537-O535=0.9620     O538-H539=0.9783     O538-H540=0.9683     H539-O538=0.9783     H540-O538=0.9683     
O541-H542=0.9790     O541-H543=0.9619     H542-O541=0.9790     H543-O541=0.9619     O544-H545=0.9764     O544-H546=0.9862     
H545-O544=0.9764     H546-O544=0.9862     O547-H548=0.9756     O547-H549=0.9701     H548-O547=0.9756     H549-O547=0.9701     
O550-H551=0.9685     O550-H552=0.9952     H551-O550=0.9685     H552-O550=0.9952     O553-H554=0.9677     O553-H555=0.9745     
H554-O553=0.9677     H555-O553=0.9745     O556-H557=0.9770     O556-H558=0.9760     H557-O556=0.9770     H558-O556=0.9760     
O559-H560=0.9688     O559-H561=0.9895     H560-O559=0.9688     H561-O559=0.9895     O562-H563=0.9762     O562-H564=0.9766     
H563-O562=0.9762     H564-O562=0.9766     O565-H566=0.9716     O565-H567=0.9799     H566-O565=0.9716     H567-O565=0.9799     
O568-H569=0.9615     O568-H570=0.9711     H569-O568=0.9615     H570-O568=0.9711     O571-H572=0.9657     O571-H573=0.9850     
H572-O571=0.9657     H573-O571=0.9850     O574-H575=0.9699     O574-H576=0.9853     H575-O574=0.9699     H576-O574=0.9853     
O577-H578=0.9734     O577-H579=0.9735     H578-O577=0.9734     H579-O577=0.9735     O580-H581=0.9653     O580-H582=0.9923     
H581-O580=0.9653     H582-O580=0.9923     O583-H584=0.9771     O583-H585=0.9697     H584-O583=0.9771     H585-O583=0.9697     
O586-H587=0.9706     O586-H588=0.9843     H587-O586=0.9706     H588-O586=0.9843     O589-H590=0.9728     O589-H591=0.9694     
H590-O589=0.9728     H591-O589=0.9694     O592-H593=0.9759     O592-H594=0.9821     H593-O592=0.9759     H594-O592=0.9821     
O595-H596=0.9705     O595-H597=0.9714     H596-O595=0.9705     H597-O595=0.9714     O598-H599=0.9777     O598-H600=0.9881     
H599-O598=0.9777     H600-O598=0.9881     O601-H602=0.9608     O601-H603=0.9717     H602-O601=0.9608     H603-O601=0.9717     
O604-H605=0.9704     O604-H606=0.9839     H605-O604=0.9704     H606-O604=0.9839     O607-H608=0.9751     O607-H609=0.9679     
H608-O607=0.9751     H609-O607=0.9679     O610-H611=0.9797     O610-H612=0.9684     H611-O610=0.9797     H612-O610=0.9684     
 C  H  Rav=1.0853 sigma=0.0030  Rmin=1.0819  Rmax=1.0893     4
 C  C  Rav=1.5303 sigma=0.0000  Rmin=1.5303  Rmax=1.5303     1
 N  H  Rav=1.0424 sigma=0.0108  Rmin=1.0277  Rmax=1.0532     3
 N  C  Rav=1.4710 sigma=0.0000  Rmin=1.4710  Rmax=1.4710     1
 O  H  Rav=0.9738 sigma=0.0086  Rmin=0.9559  Rmax=1.0000   401
 O  C  Rav=1.4133 sigma=0.0000  Rmin=1.4133  Rmax=1.4133     1
 
 selected bond angles (degree)
 --------------------
H3-C2-H1=108.38                C4-C2-H1=109.25                C4-C2-H3=109.54                O7-C2-H1=107.45                
O7-C2-H3=110.33                O7-C2-C4=111.80                H5-C4-C2=109.17                H6-C4-C2=109.04                
H6-C4-H5=109.79                N9-C4-C2=111.20                N9-C4-H5=107.81                N9-C4-H6=109.81                
H8-O7-C2=108.80                H10-N9-C4=109.95               H11-N9-C4=108.17               H11-N9-H10=109.06              
H12-N9-C4=111.93               H12-N9-H10=107.55              H12-N9-H11=110.14              
 
 selected dihedral angles (degree)
 ---------------------------------
H5-C4-C2-H1=210.86            H5-C4-C2-H3= 92.28            H5-C4-C2-O7=329.67            H6-C4-C2-H1= 90.92            
H6-C4-C2-H3=332.34            H6-C4-C2-O7=209.72            N9-C4-C2-H1=329.69            N9-C4-C2-H3=211.11            
N9-C4-C2-O7= 88.49            H8-O7-C2-H1=218.66            H8-O7-C2-H3=336.63            H8-O7-C2-C4= 98.79            
H10-N9-C4-C2= 67.88           H10-N9-C4-H5=187.52           H10-N9-C4-H6=307.10           H11-N9-C4-C2=308.88           
H11-N9-C4-H5= 68.51           H11-N9-C4-H6=188.10           H12-N9-C4-C2=187.36           H12-N9-C4-H5=306.99           
H12-N9-C4-H6= 66.58           
 
 CMA Distance (Angstroems)
 ---------------------------
R(CMA):  1.6029
           -------------------------------------------------
          |                Final Singlepoint                |
           -------------------------------------------------

          ...................................................
          :                      SETUP                      :
          :.................................................:
          :  # basis functions                1224          :
          :  # atomic orbitals                1224          :
          :  # shells                          816          :
          :  # electrons                      1626          :
          :  max. iterations                   250          :
          :  Hamiltonian                  GFN2-xTB          :
          :  restarted?                      false          :
          :  GBSA solvation                  false          :
          :  PC potential                    false          :
          :  electronic temp.          300.0000000     K    :
          :  accuracy                    1.0000000          :
          :  -> integral cutoff          0.2500000E+02      :
          :  -> integral neglect         0.1000000E-07      :
          :  -> SCF convergence          0.1000000E-05 Eh   :
          :  -> wf. convergence          0.1000000E-03 e    :
          :  Broyden damping             0.4000000          :
          ...................................................

 iter      E             dE          RMSdq      gap      omega  full diag
   1  -1039.8095282 -0.103981E+04  0.111E-05    7.72       0.0  T
   2  -1039.8095282 -0.109139E-10  0.664E-06    7.72     609.2  T
   3  -1039.8095282 -0.272848E-11  0.130E-06    7.72    3119.9  T

   *** convergence criteria satisfied after 3 iterations ***

         #    Occupation            Energy/Eh            Energy/eV
      -------------------------------------------------------------
         1        2.0000           -0.7436937             -20.2369
       ...           ...                  ...                  ...
       807        2.0000           -0.4606698             -12.5355
       808        2.0000           -0.4600913             -12.5197
       809        2.0000           -0.4598976             -12.5144
       810        2.0000           -0.4564769             -12.4214
       811        2.0000           -0.4540731             -12.3560
       812        2.0000           -0.4517459             -12.2926
       813        2.0000           -0.4366561             -11.8820 (HOMO)
       814                         -0.1530335              -4.1643 (LUMO)
       815                         -0.1416304              -3.8540
       816                         -0.1285026              -3.4967
       817                         -0.1251217              -3.4047
       818                         -0.1134633              -3.0875
       ...                                ...                  ...
      1224                          0.3765671              10.2469
      -------------------------------------------------------------
                  HL-Gap            0.2836226 Eh            7.7178 eV
             Fermi-level           -0.2948448 Eh           -8.0231 eV

 SCC (total)                   0 d,  0 h,  0 min, 12.475 sec
 SCC setup                      ...        0 min,  0.032 sec (  0.260%)
 Dispersion                     ...        0 min,  0.082 sec (  0.655%)
 classical contributions        ...        0 min,  0.021 sec (  0.165%)
 integral evaluation            ...        0 min,  0.704 sec (  5.640%)
 iterations                     ...        0 min,  1.944 sec ( 15.582%)
 molecular gradient             ...        0 min,  9.622 sec ( 77.130%)
 printout                       ...        0 min,  0.071 sec (  0.567%)

         :::::::::::::::::::::::::::::::::::::::::::::::::::::
         ::                     SUMMARY                     ::
         :::::::::::::::::::::::::::::::::::::::::::::::::::::
         :: total energy           -1033.477774081517 Eh    ::
         :: gradient norm              0.000077822971 Eh/a0 ::
         :: HOMO-LUMO gap              7.717764341368 eV    ::
         ::.................................................::
         :: SCC energy             -1039.809528172123 Eh    ::
         :: -> isotropic ES            5.735572460305 Eh    ::
         :: -> anisotropic ES         -1.312894661552 Eh    ::
         :: -> anisotropic XC         -0.097448150422 Eh    ::
         :: -> dispersion             -0.637426136114 Eh    ::
         :: repulsion energy           6.207205565014 Eh    ::
         :: add. restraining           0.000000000000 Eh    ::
         :: total charge               1.000000000000 e     ::
         :::::::::::::::::::::::::::::::::::::::::::::::::::::

           ------------------------------------------------- 
          |                Numerical Hessian                |
           ------------------------------------------------- 
step length          :   0.00500
SCC accuracy         :   0.30000
Hessian scale factor :   1.00000
frozen atoms in %    :   0.00000    0
RMS gradient         :   0.00008
estimated CPU  time    757.41 min
estimated wall time    759.29 min
