612
 energy: -1033.477773618697 gnorm: 0.000224251898 xtb: 6.5.1 (579679a)
H           -1.01419305680000        1.33106319940000       -1.51915289310000
C           -0.18309221680000        1.10919870410000       -0.85089112870000
H            0.28310596000000        0.18359559750000       -1.17917036780000
C           -0.71348056950000        0.93781849370000        0.57428219140000
H            0.04653358140000        1.25601396630000        1.27722791240000
H           -0.95170717780000       -0.10452403180000        0.73932709100000
O            0.73369135960000        2.18076973630000       -0.94436190220000
H            1.64602367550000        1.81988475630000       -0.91593898870000
N           -1.90923682380000        1.76426705390000        0.79977341640000
H           -2.69252276260000        1.40858067580000        0.23749417800000
H           -1.68927688730000        2.74929854970000        0.49892428020000
H           -2.20932571930000        1.75225100550000        1.80218245850000
O            3.72917528890000        4.55889172570000        2.23603442080000
H            3.04835055840000        4.14528579370000        2.80912670420000
H            4.11984633860000        3.83952185630000        1.72323764280000
O            2.90986644210000        3.20739981650000       -2.95793770230000
H            3.04430463070000        4.01531120950000       -3.49330515360000
H            3.62123494130000        2.59199505450000       -3.17831902620000
O            7.75491885890000        2.64531447190000       -0.06711648560000
H            7.90235558510000        1.69845707720000        0.09590029190000
H            6.87073939520000        2.73904972340000       -0.47762041120000
O           -0.25482329430000        2.64170044220000        3.65033835070000
H           -0.45957559730000        1.68830275520000        3.61111799910000
H            0.71349084280000        2.75672618320000        3.61766989890000
O           -6.56357922870000        2.67090438940000       -1.67915020490000
H           -6.69992943770000        3.55847220090000       -2.05169958960000
H           -7.31315087200000        2.12359072010000       -2.03030202860000
O           -4.60961690810000       -5.04517256940000       -4.85158558440000
H           -5.47923600040000       -4.64737095620000       -5.09285212560000
H           -4.05299482950000       -4.95185477720000       -5.62630521740000
O            2.25529877890000        1.36520312150000        1.71496839120000
H            3.17910061900000        1.51478829350000        1.42088229090000
H            1.81638815220000        2.23279140040000        1.60513755590000
O            5.79572376440000        5.05248289580000        0.31637266990000
H            6.65260519710000        5.29348360730000       -0.07248436260000
H            5.37498573810000        5.86249318560000        0.62607421360000
O            1.32400343000000       -1.16893092040000        1.07792485850000
H            1.60299250540000       -0.23887461600000        1.13755203910000
H            1.98466901790000       -1.64019053190000        1.61947174850000
O           -4.14318572320000       -3.21530348940000       -2.87125406450000
H           -4.14524061060000       -3.86923860600000       -3.58641747500000
H           -3.71319003150000       -3.65054788580000       -2.10835312220000
O            0.89368842870000        5.87477847860000       -0.96841848050000
H            1.76382269320000        5.46381228830000       -0.81855907690000
H            1.02323789710000        6.61693193590000       -1.59741135880000
O            5.48614927820000        2.97573379960000       -1.50470512750000
H            5.66306130610000        3.85276552960000       -1.88736292510000
H            5.44510973020000        2.34447784570000       -2.23902458210000
O           -4.56103625830000        0.80055695460000        1.03847302020000
H           -3.93920735010000        0.10525734680000        1.32981825890000
H           -4.98325439580000        0.49098132760000        0.21886220320000
O            1.90268309150000        0.12543651590000        3.98727061980000
H            2.11243931620000        0.64117473890000        3.17128666030000
H            0.94022231370000       -0.02084855960000        3.95177859090000
O            2.29979378770000        3.23990922410000        4.02133306830000
H            2.19382771560000        3.80840179890000        4.80997229320000
H            3.11886233950000        2.72087736890000        4.14427027820000
O            3.92470384450000       -0.94333081590000        0.77024701270000
H            4.32707988290000       -0.69514263650000        1.61311977940000
H            4.07402928590000       -1.88998634920000        0.66339296080000
O           -3.79281370720000       -5.54303434070000        5.25021579540000
H           -2.92088749620000       -5.48974733850000        5.66298143350000
H           -4.19009527440000       -4.66171263600000        5.37234982250000
O           -0.28646641360000       -2.62284078010000        2.62801397730000
H            0.13952758550000       -1.97793787860000        2.03751482480000
H           -0.40465511740000       -3.43928047860000        2.09699032570000
O           -0.74521370500000       -0.01009407850000        3.64346167190000
H           -1.14988149740000        0.11261233930000        4.51671715150000
H           -1.42893474880000       -0.41912617610000        3.08512167620000
O           -1.25106136040000        0.82690057540000        6.16285375220000
H           -0.55270491170000        1.31684682930000        6.65461982900000
H           -2.10711534600000        0.99180531760000        6.56627653460000
O            6.78524512220000        2.86767851410000        5.50583401130000
H            6.37804848550000        3.37996406490000        6.21029973610000
H            6.02478984640000        2.61003157580000        4.93203566500000
O           -2.64308526440000        4.92847261110000       -1.83942887120000
H           -3.19487184770000        4.12358652510000       -1.73806259280000
H           -1.93450019790000        4.79029780900000       -1.18228949310000
O           -5.23189319370000        2.95014119140000        2.85233253500000
H           -5.87860736810000        2.66829939550000        2.17371412110000
H           -5.71855982720000        3.01959191260000        3.69769019000000
O           -1.95490968960000       -1.88289504620000       -0.25770922530000
H           -2.82904283960000       -2.31090444720000       -0.34664588600000
H           -1.31006443410000       -2.47008516420000       -0.69910496200000
O            2.09124186810000       -1.99908426030000       -1.33635180200000
H            1.75391922550000       -1.71652323510000       -0.45738115800000
H            2.07170684060000       -2.96347885010000       -1.35724794060000
O            9.52931660090000        3.40645405400000       -1.89474657930000
H            8.98269933570000        3.49322617230000       -2.70222483120000
H            8.89685258900000        3.10873080580000       -1.19330123360000
O           -2.95472722040000        1.76327804110000        3.32644432500000
H           -3.83569958940000        2.09870573740000        3.04834154530000
H           -3.08641513030000        0.87256349890000        3.70355599240000
O            3.06693464410000        0.92728402300000       -1.11497455300000
H            3.32103296030000        0.25884377080000       -0.46064335220000
H            2.95868551820000        0.47565025720000       -1.96140974460000
O           -0.55946371420000       -1.61757792880000        6.86182442430000
H           -0.76994147200000       -0.71474609420000        6.53361911920000
H           -1.42823856030000       -1.96706308090000        7.14123456090000
O           -2.42696645810000       -3.08709856470000        4.07211240200000
H           -2.06161210970000       -3.76119032140000        4.67002694160000
H           -1.66921327490000       -2.77093822010000        3.53551509290000
O           -0.18299126770000        0.31913025820000       -7.04530991410000
H            0.07759404700000        1.25455007700000       -6.86589679250000
H           -0.99899198650000        0.34294381770000       -7.55155244060000
O            3.96322357650000        6.92219906620000       -1.96663324220000
H            3.76574594410000        7.84755189530000       -2.11513701140000
H            3.85483643770000        6.78281122960000       -0.99357040040000
O            0.28466049360000        2.74003098960000       -6.11564929590000
H            1.15296581130000        3.04514695250000       -6.44382217240000
H            0.47554772460000        2.36248803330000       -5.21613175120000
O            4.65295271020000       -1.41884814300000       -1.81451607750000
H            3.69562965880000       -1.57281657400000       -1.67259137550000
H            5.09407682980000       -2.19197265790000       -1.44467684480000
O           -0.91816876370000       -4.77410352280000        1.25808814320000
H           -0.61851778430000       -5.68197446270000        1.11055956960000
H           -1.86814377880000       -4.81557711970000        1.44497803430000
O          -10.43814759520000       -2.00156895000000       -0.12310039000000
H          -11.07461615770000       -1.29793336880000       -0.33019145620000
H          -10.39192777460000       -2.08576461420000        0.83400303540000
O           -7.32085997740000       -1.75050868630000        1.06224851940000
H           -8.08752557660000       -2.16127271550000        1.52139086810000
H           -7.18664168560000       -2.29011533060000        0.24557367740000
O           -2.82882163390000       -0.98794072670000        2.06416601770000
H           -3.55166326460000       -1.53795532040000        2.39712404370000
H           -2.45017711050000       -1.45936707400000        1.29806155380000
O            0.93402880100000        1.65364634720000       -3.83263542400000
H            1.56567083990000        2.29181580310000       -3.45468676810000
H            1.41655961180000        0.81764278560000       -3.85940528760000
O           -1.69395639480000        7.93951567250000       -3.03691950880000
H           -2.40859284160000        7.88858672130000       -2.38347803230000
H           -1.83724983950000        7.21095858970000       -3.65220109710000
O           -6.49571931270000        0.32493619120000        2.69216040410000
H           -5.74742813100000        0.61140677250000        2.10168054960000
H           -6.88107610930000       -0.44168907230000        2.25051948960000
O            7.74060169830000        0.45329588820000        5.08531075640000
H            7.51937838660000        1.28948270920000        5.53042491130000
H            7.62507082990000        0.66163521740000        4.12277040210000
O           -2.96647806780000       -4.67505946640000       -0.91745143130000
H           -3.41162863090000       -4.55711484170000       -0.06786491190000
H           -3.12483409940000       -5.59728718370000       -1.19896127870000
O            1.22605207430000        3.79397162800000        1.26979559000000
H            1.25234711480000        4.55090379340000        1.88731099630000
H            1.90697125980000        3.96289425990000        0.59184101730000
O            4.68650603870000        2.10599371620000        0.94666047090000
H            4.58710557980000        2.47374310450000        0.05535073680000
H            5.27848457950000        1.34955543730000        0.78768243470000
O            0.21735607960000       -6.65676300840000        3.64015227400000
H            0.65509725520000       -5.82585453500000        3.35447160490000
H            0.88004877050000       -7.33095515670000        3.44252894540000
O           -5.46255672150000       -6.01976596520000        3.14105963450000
H           -5.43062153390000       -6.88723154820000        2.72924671170000
H           -4.97928184930000       -6.07040616850000        3.98007849860000
O            1.93355100470000       -6.76324511430000       -2.90173950750000
H            1.62944665330000       -5.83302176740000       -3.10729532800000
H            2.73128193210000       -6.88287439890000       -3.42478391650000
O            2.82048692810000        3.05205722020000       -6.83624827150000
H            3.61052925140000        3.48719182910000       -6.50082253840000
H            3.02857360130000        2.09512526520000       -6.83918186310000
O            3.10144315130000        4.35293814220000       -0.58106433550000
H            3.04712131200000        3.80278912580000       -1.39120702070000
H            4.03532499010000        4.50789198310000       -0.38963243680000
O            3.42050232690000       -2.72545526580000       -3.96743602150000
H            2.87932806110000       -3.24168880160000       -4.58513409650000
H            3.40440499050000       -3.24854120980000       -3.13702992920000
O           -2.16644816490000        2.44291366560000       -3.26145486190000
H           -1.80679365900000        1.71203592550000       -3.79534100410000
H           -1.43178714730000        3.06054863370000       -3.11870841480000
O            0.12640244490000       -3.87257010790000       -6.00501078160000
H           -0.77291286460000       -3.66201455470000       -6.27243026510000
H            0.59598086100000       -3.00699663440000       -6.01401780780000
O            5.28581255170000        5.29486046400000        4.27080281350000
H            5.00424405040000        4.72903910090000        5.00986413630000
H            4.70445238060000        5.06891236540000        3.51159907020000
O           -2.18997414810000        5.43658417320000       -4.44968551720000
H           -2.14707573430000        5.13109781370000       -3.51865897150000
H           -2.26419206730000        4.62234056100000       -4.98349927010000
O            5.25126881080000       -0.34194521080000        3.05848759890000
H            6.08529116830000       -0.01361634310000        2.68155236590000
H            5.48454961510000       -0.83095574590000        3.86641344740000
O           -3.25901931610000        3.13650805250000        5.62113346730000
H           -3.66247544170000        2.47869788520000        6.20085431970000
H           -3.05972206200000        2.66325926980000        4.77875382090000
O            4.37118833620000        3.69602393530000        6.40140744260000
H            3.60913953950000        4.23675025020000        6.64111781030000
H            4.01101628660000        2.80309480250000        6.25842778960000
O            0.53835010530000       -1.26415220620000       -3.37405904670000
H            1.12831253120000       -1.53794438160000       -2.64810713350000
H           -0.20608563940000       -1.91018758060000       -3.39007247670000
O           -1.28412617110000        0.27286119360000       -4.56003633960000
H           -0.59036213920000       -0.08359516710000       -3.97912978270000
H           -0.92118251250000        0.25870093620000       -5.46277162300000
O           -0.04981606890000        4.06248625740000       -2.64631474120000
H            0.32161851450000        3.26721790030000       -2.21393473000000
H            0.10897215060000        4.75800365320000       -1.97759917840000
O           -0.42239564700000       -3.77312305310000       -1.31288695320000
H           -1.25076353730000       -4.27865183420000       -1.23497062740000
H            0.14106027970000       -4.03587718390000       -0.56653529550000
O            8.18952846480000       -4.62744539890000        2.41520234000000
H            8.20635780510000       -3.96898206570000        3.14566154340000
H            8.90781157320000       -5.23233381010000        2.60500902780000
O            2.48571666260000       -7.76774546820000        2.46939350690000
H            2.67797630090000       -7.59065798270000        1.54125834760000
H            3.26064202100000       -7.49660027280000        2.96660507650000
O           -6.66645712100000        5.40495959750000        3.78580334940000
H           -5.69301942160000        5.48841313850000        3.83191514440000
H           -6.89604242400000        4.75752420330000        4.45877376030000
O            9.04313602110000        3.59518398900000        4.14188195640000
H            8.19357309150000        3.36324395530000        4.56941517370000
H            9.53080153790000        4.12450588500000        4.77156038070000
O            8.26513702950000        5.69973142650000       -0.79103996030000
H            8.62180137190000        5.60095009210000        0.11079594150000
H            8.84357016690000        5.11747076910000       -1.30872678860000
O            9.10248691500000        4.49237849210000        1.45905167870000
H            8.98964120180000        4.35654275590000        2.40760025690000
H            8.61061101300000        3.76897359850000        1.03329159470000
O           -3.07639599950000        0.27289568650000       -1.35498881110000
H           -3.25600587690000       -0.03154149110000       -2.26247061180000
H           -2.59117588230000       -0.46892005050000       -0.94967383910000
O            3.47994289120000        0.45585819150000       -6.52615361660000
H            3.10066022680000        0.21140633130000       -5.66507019930000
H            4.43922267770000        0.39656941550000       -6.41792689310000
O           -3.31321979120000       -0.54703840900000        4.70616348830000
H           -4.26851750280000       -0.55035705340000        4.85010246180000
H           -3.03782413070000       -1.46790116250000        4.56448621750000
O           -8.48830141410000       -1.06271375650000       -1.61990081050000
H           -9.17906261930000       -1.43040547180000       -1.02615033490000
H           -8.66826871420000       -1.44272351230000       -2.49925929290000
O           -8.38538888490000        0.73271533600000       -5.41809102180000
H           -8.05759066810000        1.66046686460000       -5.38500188910000
H           -9.32027514170000        0.80450306120000       -5.62736875180000
O            9.00115358800000       -4.19052981040000       -0.22495069660000
H            8.81582563960000       -3.29583426690000       -0.59348289930000
H            8.72048291910000       -4.17188357660000        0.70449686790000
O            8.74851256900000       -1.89071409220000       -1.57226177550000
H            7.96966459200000       -1.81244939660000       -2.16451057990000
H            9.51744298820000       -2.00723477810000       -2.18203938070000
O           -4.12849729040000        0.91189106750000        7.09492471760000
H           -4.57433181250000        0.98951110920000        7.93831994190000
H           -4.78738211370000        0.58959171540000        6.44885816370000
O            1.22688287180000        6.04597324950000        2.76998459430000
H            0.66599259080000        6.05795686250000        3.55720542690000
H            0.72839298450000        6.58185159510000        2.11556933150000
O           -7.92134664330000        5.05518473680000        1.46374109940000
H           -7.44345614440000        5.61086728920000        0.83390079680000
H           -7.50701682640000        5.23509793220000        2.33866863670000
O           -1.80015914260000        4.61102526760000        2.73349244770000
H           -1.35458696510000        3.79123388040000        3.02757925100000
H           -1.38437040880000        5.32343476240000        3.24732781640000
O            3.04920188610000        6.88317297060000        4.69165095810000
H            3.96811729910000        6.58847807930000        4.57208357430000
H            2.59718650140000        6.73692984320000        3.84503303850000
O            0.68252006000000       -3.07545238610000        5.08418980150000
H            0.25677701700000       -2.44670618480000        5.70926307480000
H            0.42355417700000       -2.81695769750000        4.17388294490000
O            6.76156092580000       -2.24094363020000        1.17218589630000
H            7.69104651770000       -2.13888641690000        1.46083089250000
H            6.28882568660000       -2.61529336170000        1.92619319920000
O           -2.29208354660000       -2.23958006430000       -6.29577631650000
H           -3.23362924520000       -2.43573610420000       -6.44748646280000
H           -2.22872847780000       -1.29105713620000       -6.47191132840000
O           -8.59197961220000        1.74595269580000        3.60096544770000
H           -7.88293818210000        1.35690611510000        3.05307225970000
H           -9.15117556540000        2.29688284120000        3.01271722510000
O            3.04949783690000       -0.07282662120000       -3.79852336330000
H            3.90053485840000        0.37967469910000       -3.74410235850000
H            3.20366623120000       -1.03846603920000       -3.80922448960000
O           -2.32036696320000        3.21389847960000       -6.06021084580000
H           -2.61881219050000        3.54631510050000       -6.90746494450000
H           -1.34693058990000        3.08415473920000       -6.11015505300000
O            6.08386409070000       -1.54997890310000        5.35539742640000
H            5.38297034140000       -1.43095952590000        6.01865963520000
H            6.69826621980000       -0.78187218290000        5.43327923070000
O            3.79142082160000       -1.33412489160000        6.79261483570000
H            3.10351716960000       -1.14102376750000        7.46381818810000
H            3.54679019640000       -2.21350878790000        6.45422090120000
O            2.83124511660000       -4.60758033350000       -5.93954847470000
H            1.87327995240000       -4.67016249950000       -6.04485915940000
H            3.14540396280000       -4.04082025770000       -6.65494174800000
O            5.13994896980000        4.04847296880000       -5.46099837460000
H            6.00234578230000        4.44099255730000       -5.59698570670000
H            4.57304316650000        4.71630452720000       -5.02970988300000
O            3.66044686190000       -4.37519138030000       -1.87736981590000
H            4.52310141690000       -4.14268137550000       -1.50596537290000
H            3.83790126300000       -5.05349968940000       -2.55791279430000
O            5.30447949500000       -3.30916424890000        3.38454488630000
H            5.67298637160000       -2.86484724070000        4.15960778900000
H            4.91207847820000       -4.15174570600000        3.70707519890000
O           -0.64354645850000       -7.33273931380000       -2.06674354360000
H            0.23243349350000       -7.34204742080000       -2.47991159600000
H           -0.48370130580000       -7.26992568500000       -1.11064929510000
O            2.76158162800000       -2.21751618560000        3.14998570080000
H            2.50513843080000       -1.39225056240000        3.61354449210000
H            3.70405141210000       -2.35768468740000        3.30443905550000
O            8.96500963260000        0.20731515920000        0.04890813970000
H            9.81979109310000        0.66180345420000       -0.03699823970000
H            8.93028776130000       -0.51324738450000       -0.61883180270000
O           -6.69314298100000        2.80270520380000        5.11086687910000
H           -6.36079337460000        1.96337706670000        5.45233325520000
H           -7.53200463700000        2.55497165040000        4.66424020620000
O           -3.18396199000000       -1.91280030680000        7.30093085430000
H           -3.38752246780000       -0.97926886760000        7.16125985450000
H           -3.71107759040000       -2.39859051880000        6.64883546840000
O          -10.35106482480000        2.73500221000000       -4.48039231070000
H          -10.18901713380000        3.16118360570000       -3.62411896560000
H           -9.67386849940000        3.09843619100000       -5.06063874950000
O           -1.58496328600000       -2.73334926850000       -3.73196604230000
H           -1.63876799880000       -3.69209078730000       -3.59820494250000
H           -1.79405868460000       -2.57409041410000       -4.67041097540000
O            1.96668755000000        4.93714583100000        6.08034185790000
H            1.04147575830000        5.09376079130000        6.27615864090000
H            2.32403733720000        5.75699102810000        5.64798838460000
O           -9.59137703760000        4.26314393660000       -2.26663996650000
H          -10.13557107470000        5.01452461520000       -2.03195455390000
H           -8.69491344230000        4.60274451380000       -2.43387989920000
O           -4.55233325680000       -2.34459078730000       -0.08150319160000
H           -5.12454770360000       -3.09730194260000       -0.27915239470000
H           -4.95488233460000       -1.58176135430000       -0.52589345160000
O           -8.59468094010000        1.36222976820000       -2.59230000370000
H           -8.64064086920000        0.49832980860000       -2.12561821990000
H           -8.52188825370000        1.15153829500000       -3.53135586990000
O           -0.73738837860000        3.90585504900000        5.93641526460000
H           -0.48615049480000        3.37900506540000        5.13747571970000
H           -1.68747651520000        3.69125124320000        6.03995253940000
O            6.09653769570000       -6.42883288430000        2.61310056640000
H            5.45438735890000       -6.17257361650000        3.28860523200000
H            6.79249952120000       -5.74662062060000        2.59462099740000
O            6.20487824890000       -3.55186902210000       -1.11822445260000
H            6.45851356640000       -3.11968765560000       -0.27442429370000
H            6.58956841270000       -4.44419527480000       -1.10330483220000
O           -7.21379034300000       -3.95510067390000        3.66452366830000
H           -6.93912369260000       -4.86614131870000        3.49390768580000
H           -6.51085417490000       -3.41329454570000        3.24597014290000
O            1.77035491020000        8.63862691980000       -0.04908753970000
H            1.56516001510000        8.61430219370000       -0.99036263760000
H            0.95341645120000        8.38638531950000        0.40647780620000
O           -9.36626673880000       -4.31983581550000       -4.18100010390000
H           -9.38487051130000       -3.33975403530000       -4.11304707020000
H          -10.24956856940000       -4.59310394900000       -4.42699660510000
O          -11.90785283650000        0.14549328550000       -1.15796377810000
H          -12.78379898320000        0.24904097420000       -0.78796691510000
H          -11.40186223200000        0.95528106090000       -0.91427793540000
O           -9.76249736090000       -0.63481750460000        4.08747206510000
H          -10.54079951080000       -0.43119666850000        3.53853255190000
H           -9.26391324800000        0.20942998720000        4.05613250360000
O           -7.72141701150000       -1.98918353810000        5.50340727730000
H           -8.54501393840000       -1.54641121330000        5.25662328890000
H           -7.66671680260000       -2.77071147360000        4.92707891480000
O           -3.54990221840000       -4.34974443150000        2.00076537950000
H           -3.12833609870000       -4.00168912450000        2.81719869770000
H           -4.18332495200000       -5.03221085100000        2.28152938050000
O           -4.95622718160000       -2.38051286960000       -6.69196384750000
H           -5.71140672040000       -2.91087076680000       -6.41075219730000
H           -5.22972785940000       -1.45403021150000       -6.60495390480000
O            8.66447426850000        1.05706513810000       -5.29440398240000
H            8.43163220250000        1.98998793320000       -5.24954423840000
H            9.19975674530000        0.89804731780000       -4.49667869990000
O           -1.87529188530000       -5.42258684380000       -3.59249274130000
H           -1.39723592800000       -6.07100030290000       -3.04739400520000
H           -2.72207723420000       -5.81323640280000       -3.80882396890000
O           -5.22815310920000       -2.43126734900000        2.62781971830000
H           -4.69267565310000       -3.11499660410000        2.16438105730000
H           -5.83567958200000       -2.09212448910000        1.93926863000000
O            9.92185972570000        0.88897922000000       -2.84684335050000
H           10.58009090380000        0.31732571330000       -2.40069786100000
H           10.07755569250000        1.80672127200000       -2.56235456620000
O           -3.38356273250000       -7.26850168100000       -1.59014779110000
H           -2.50970599690000       -7.61583716340000       -1.80263521280000
H           -3.59741464020000       -7.53254135850000       -0.66382754620000
O           -5.79501286730000        0.26830507860000       -6.31488717100000
H           -5.75607335270000        0.43969633950000       -5.34159398480000
H           -6.73810686860000        0.25365348020000       -6.51020470350000
O            0.97929127280000        7.80148124210000       -2.77591546410000
H            0.04318613280000        8.08157513250000       -2.77640921750000
H            1.01588009050000        7.17654346250000       -3.52578749130000
O            1.72598250250000       -4.41140138160000        0.23756117160000
H            2.60047538070000       -3.98533677060000        0.33504415080000
H            1.92904748030000       -5.30478592410000       -0.09713873910000
O           -1.14684467610000        4.26007548790000        0.22775591990000
H           -0.19725604530000        4.05068050890000        0.37425412610000
H           -1.47061125580000        4.59587332580000        1.08873511050000
O            3.52152370070000       -2.31953187910000       -7.37724852710000
H            3.66963158980000       -1.63732509750000       -8.03305499450000