 Entering Gaussian System
 *********************************************
 Gaussian 98:
 frequency output generated by the xtb code
 *********************************************
                         Standard orientation:
 --------------------------------------------------------------------
  Center     Atomic     Atomic              Coordinates (Angstroms)
  Number     Number      Type              X           Y           Z
 --------------------------------------------------------------------
    1          6             0       -0.434279   -1.241471    0.243551
    2          6             0        1.526236    0.116200    0.271267
    3          6             0        1.019112    1.399268   -0.252699
    4          6             0       -1.489522   -0.285516   -0.330122
    5          1             0       -0.449271   -1.172831    1.344058
    6          1             0        1.483140    0.107266    1.371962
    7          1             0        0.864741    1.504231   -1.308170
    8          1             0       -1.334676   -0.203449   -1.407384
    9          1             0       -0.688549   -2.264517   -0.048535
   10          1             0        2.576653   -0.056328   -0.024973
   11          1             0        1.090841    2.282174    0.348785
   12          1             0       -2.485123   -0.727087   -0.153268
   13          8             0        0.864458   -1.038548   -0.237968
   14          7             0       -1.346637    1.036928    0.246098
   15          1             0       -1.519648    1.029956    1.244793
   16          1             0       -1.953276    1.713647   -0.199378
 --------------------------------------------------------------------
     1 basis functions        1 primitive gaussians
     1 alpha electrons        1 beta electrons
 
 Harmonic frequencies (cm**-1), IR intensities (km*mol⁻¹),
 Raman scattering activities (A**4/amu), Raman depolarization ratios,
 reduced masses (AMU), force constants (mDyne/A) and normal coordinates:
                      1                      2                      3
                        a                      a                      a 
 Frequencies --    97.9996               146.8922               199.0217
 Red. masses --     8.1039                 8.2634                11.0461
 Frc consts  --     0.0000                 0.0000                 0.0000
 IR Inten    --     0.1533                 6.4471                14.6305
 Raman Activ --     0.0000                 0.0000                 0.0000
 Depolar     --     0.0000                 0.0000                 0.0000
 Atom AN      X      Y      Z        X      Y      Z        X      Y      Z
   1   6    -0.05  -0.11  -0.22     0.02   0.17   0.10    -0.01  -0.08   0.00
   2   6    -0.23   0.12   0.19     0.19  -0.09  -0.20    -0.13   0.05  -0.10
   3   6    -0.03  -0.06  -0.44    -0.16  -0.15  -0.01    -0.67  -0.03   0.16
   4   6     0.11   0.14  -0.09     0.22   0.19  -0.25     0.17   0.09  -0.03
   5   1    -0.08  -0.14  -0.06    -0.02   0.14   0.02    -0.02  -0.04   0.00
   6   1    -0.22   0.13   0.05     0.19  -0.01  -0.05     0.06  -0.01  -0.02
   7   1    -0.01  -0.16  -0.14    -0.14  -0.03   0.01    -0.10   0.05   0.04
   8   1     0.08   0.14  -0.01     0.25   0.15  -0.04     0.05   0.00  -0.01
   9   1    -0.01   0.00  -0.18    -0.03   0.04   0.11    -0.03  -0.01  -0.02
  10   1    -0.02   0.03   0.23     0.02   0.00  -0.19    -0.06   0.09  -0.13
  11   1     0.06   0.07  -0.26    -0.06  -0.05   0.01    -0.06  -0.01   0.04
  12   1     0.02   0.04  -0.11     0.05   0.00  -0.29     0.02   0.09   0.00
  13   8     0.09  -0.03   0.19     0.11  -0.21   0.16     0.03  -0.16   0.11
  14   7     0.12  -0.05   0.37    -0.35   0.05   0.26     0.50   0.08  -0.11
  15   1     0.04  -0.11   0.10    -0.28  -0.09   0.04     0.18   0.06  -0.02
  16   1     0.02   0.02   0.17    -0.05   0.02   0.02     0.20   0.07  -0.03
                      4                      5                      6
                        a                      a                      a 
 Frequencies --   280.8099               302.0680               340.1116
 Red. masses --     5.1813                 7.0539                 2.1401
 Frc consts  --     0.0000                 0.0000                 0.0000
 IR Inten    --    19.3181                 7.1237                 8.1470
 Raman Activ --     0.0000                 0.0000                 0.0000
 Depolar     --     0.0000                 0.0000                 0.0000
 Atom AN      X      Y      Z        X      Y      Z        X      Y      Z
   1   6     0.08   0.10  -0.14     0.22   0.01  -0.12    -0.00   0.04   0.10
   2   6     0.12  -0.08   0.08    -0.01  -0.11   0.17    -0.07  -0.04   0.00
   3   6    -0.14  -0.19   0.04    -0.21  -0.25   0.02    -0.05   0.06   0.14
   4   6    -0.04   0.10   0.04     0.01   0.09   0.26     0.04  -0.07  -0.09
   5   1     0.00  -0.02  -0.04     0.11  -0.08  -0.03     0.02   0.09   0.02
   6   1     0.05  -0.03   0.03    -0.11  -0.06   0.05    -0.01  -0.03   0.01
   7   1    -0.08  -0.10   0.01    -0.12  -0.17   0.00    -0.33  -0.09   0.08
   8   1    -0.13   0.01  -0.01    -0.10  -0.01   0.06     0.07  -0.02  -0.02
   9   1     0.00   0.05  -0.08     0.02   0.03  -0.10     0.01  -0.01   0.10
  10   1     0.04   0.02   0.02     0.04   0.03   0.16    -0.01   0.01   0.02
  11   1    -0.00  -0.03  -0.04     0.09  -0.01  -0.11     0.83   0.12  -0.20
  12   1     0.02  -0.02   0.12     0.04  -0.02   0.17    -0.00  -0.01  -0.08
  13   8     0.21  -0.10   0.07     0.23  -0.02  -0.22    -0.08   0.10  -0.08
  14   7    -0.21   0.24  -0.19    -0.19   0.27  -0.02     0.01  -0.09  -0.04
  15   1     0.48  -0.01   0.04    -0.38   0.21  -0.06     0.06  -0.05  -0.00
  16   1    -0.51  -0.12   0.29     0.18   0.08  -0.30    -0.04  -0.03   0.04
                      7                      8                      9
                        a                      a                      a 
 Frequencies --   371.7241               422.1184               499.2494
 Red. masses --     7.4843                 8.7851                 3.9144
 Frc consts  --     0.0000                 0.0000                 0.0000
 IR Inten    --    13.2457                 2.5290                10.8276
 Raman Activ --     0.0000                 0.0000                 0.0000
 Depolar     --     0.0000                 0.0000                 0.0000
 Atom AN      X      Y      Z        X      Y      Z        X      Y      Z
   1   6    -0.16  -0.10  -0.27    -0.02   0.32  -0.02    -0.04  -0.20   0.09
   2   6     0.31   0.12  -0.10     0.25  -0.03   0.21    -0.01   0.01   0.04
   3   6     0.08   0.07   0.03    -0.12  -0.32  -0.01     0.23   0.03  -0.00
   4   6    -0.29  -0.02   0.01    -0.24  -0.04  -0.18     0.21   0.00   0.06
   5   1    -0.18  -0.22  -0.07     0.00   0.25  -0.02    -0.00  -0.17   0.03
   6   1     0.29   0.08  -0.02     0.07  -0.03   0.06     0.01   0.00   0.01
   7   1    -0.21  -0.03   0.04    -0.15  -0.28  -0.00    -0.71  -0.17   0.11
   8   1    -0.21  -0.00  -0.01    -0.13  -0.01  -0.06     0.17  -0.02   0.03
   9   1     0.02   0.01  -0.28     0.04   0.03   0.15    -0.01  -0.03  -0.09
  10   1     0.03  -0.00  -0.22     0.06  -0.02   0.05    -0.01  -0.06   0.02
  11   1     0.14   0.04  -0.04    -0.22  -0.01  -0.11    -0.34   0.01   0.02
  12   1    -0.06  -0.01   0.12    -0.06  -0.01   0.01     0.02   0.04  -0.08
  13   8     0.10  -0.00   0.43    -0.04   0.32  -0.10    -0.18   0.14  -0.08
  14   7    -0.01  -0.05  -0.00     0.20  -0.25   0.06     0.08   0.12  -0.09
  15   1    -0.11   0.03  -0.02     0.06  -0.12   0.02     0.01   0.04  -0.02
  16   1     0.15   0.06  -0.09     0.18   0.08   0.06    -0.09  -0.07  -0.03
                     10                     11                     12
                        a                      a                      a 
 Frequencies --   545.3388               817.7230               832.8680
 Red. masses --     7.6011                 3.6291                 6.8484
 Frc consts  --     0.0000                 0.0000                 0.0000
 IR Inten    --    12.2075                28.2770                28.5675
 Raman Activ --     0.0000                 0.0000                 0.0000
 Depolar     --     0.0000                 0.0000                 0.0000
 Atom AN      X      Y      Z        X      Y      Z        X      Y      Z
   1   6     0.08   0.21  -0.11     0.01  -0.03  -0.13     0.07   0.28  -0.04
   2   6    -0.23  -0.02  -0.11    -0.16   0.03   0.13    -0.07  -0.17  -0.20
   3   6     0.18   0.21   0.00     0.05   0.09   0.07    -0.06  -0.25  -0.09
   4   6    -0.17   0.02  -0.08     0.20  -0.04  -0.09     0.21  -0.03   0.02
   5   1     0.03   0.27  -0.04    -0.02   0.15  -0.04    -0.09  -0.09   0.00
   6   1    -0.22   0.04  -0.03     0.20  -0.10   0.04    -0.16   0.11  -0.05
   7   1    -0.40   0.14   0.08     0.10  -0.22  -0.02    -0.07   0.28   0.02
   8   1    -0.23   0.00  -0.05    -0.23  -0.08  -0.07    -0.08  -0.09  -0.02
   9   1    -0.03   0.01   0.18    -0.02  -0.04   0.12     0.07   0.12  -0.20
  10   1    -0.01   0.02   0.16    -0.12   0.03  -0.24     0.02  -0.13   0.12
  11   1    -0.08  -0.03   0.15    -0.06   0.15  -0.16     0.11  -0.26   0.25
  12   1    -0.00  -0.03   0.15     0.09   0.04   0.27     0.10  -0.05   0.17
  13   8     0.27  -0.42   0.07    -0.11  -0.06   0.00    -0.14   0.31   0.22
  14   7     0.07  -0.06   0.04     0.23   0.15   0.05     0.12  -0.06  -0.02
  15   1    -0.02  -0.05   0.00    -0.40  -0.23  -0.05    -0.20  -0.15  -0.04
  16   1     0.09   0.06   0.03    -0.30  -0.23   0.04    -0.14  -0.15   0.01
                     13                     14                     15
                        a                      a                      a 
 Frequencies --   875.3840               936.8733               960.2021
 Red. masses --     7.1884                 8.8694                 5.2761
 Frc consts  --     0.0000                 0.0000                 0.0000
 IR Inten    --    36.1701                17.4991                 8.6235
 Raman Activ --     0.0000                 0.0000                 0.0000
 Depolar     --     0.0000                 0.0000                 0.0000
 Atom AN      X      Y      Z        X      Y      Z        X      Y      Z
   1   6     0.18   0.32  -0.12     0.23  -0.39  -0.04    -0.18  -0.06  -0.37
   2   6    -0.39  -0.14   0.02    -0.30  -0.11  -0.05     0.19   0.09   0.04
   3   6     0.14   0.04   0.04     0.09  -0.20  -0.05    -0.06  -0.01  -0.03
   4   6     0.23   0.02   0.10    -0.15  -0.04  -0.19     0.26  -0.12   0.14
   5   1     0.00  -0.03  -0.02     0.04   0.15  -0.02    -0.12   0.34  -0.11
   6   1     0.17  -0.13   0.01     0.11   0.02   0.00    -0.03   0.10   0.01
   7   1     0.03  -0.17  -0.01    -0.02   0.06   0.01    -0.03   0.09   0.00
   8   1     0.00   0.04   0.02    -0.09   0.10  -0.05    -0.03   0.25   0.04
   9   1    -0.01   0.13  -0.14     0.27  -0.22   0.22    -0.02  -0.12   0.25
  10   1    -0.17  -0.02  -0.27    -0.11  -0.04  -0.17     0.05  -0.10   0.08
  11   1    -0.07   0.08  -0.09     0.03  -0.15   0.12     0.03  -0.03   0.03
  12   1     0.15  -0.19   0.06    -0.04   0.03  -0.03     0.09  -0.10   0.02
  13   8    -0.11   0.03   0.12     0.08   0.33   0.16    -0.17   0.00   0.05
  14   7    -0.20  -0.24  -0.03    -0.05   0.27   0.09    -0.02  -0.06   0.11
  15   1     0.27   0.14   0.03     0.07   0.09   0.03     0.13   0.40   0.05
  16   1     0.23   0.12  -0.08     0.06   0.15   0.05    -0.05  -0.23  -0.23
                     16                     17                     18
                        a                      a                      a 
 Frequencies --   972.4955              1069.8097              1098.2655
 Red. masses --     6.6262                 6.8321                10.2624
 Frc consts  --     0.0000                 0.0000                 0.0000
 IR Inten    --    29.2559                14.3858                26.5554
 Raman Activ --     0.0000                 0.0000                 0.0000
 Depolar     --     0.0000                 0.0000                 0.0000
 Atom AN      X      Y      Z        X      Y      Z        X      Y      Z
   1   6     0.08  -0.21   0.10     0.24   0.05  -0.01     0.46   0.12  -0.16
   2   6     0.25   0.09   0.03     0.12  -0.25  -0.34     0.13   0.08   0.34
   3   6    -0.07   0.07  -0.01    -0.09   0.23   0.21    -0.08   0.08  -0.18
   4   6     0.31   0.09  -0.24    -0.13  -0.13  -0.09    -0.21  -0.11   0.01
   5   1    -0.07  -0.02   0.03    -0.07  -0.03   0.01     0.20  -0.05  -0.02
   6   1    -0.07   0.06  -0.00    -0.27  -0.12  -0.09     0.13   0.09   0.08
   7   1    -0.01   0.04  -0.00     0.09  -0.23  -0.00    -0.08   0.22  -0.02
   8   1    -0.28  -0.13  -0.12     0.00   0.09  -0.01     0.13   0.01   0.03
   9   1    -0.04  -0.05   0.05     0.26  -0.02  -0.07     0.05   0.04  -0.04
  10   1     0.07  -0.10   0.13     0.08  -0.19   0.20    -0.07  -0.19  -0.09
  11   1     0.00   0.03  -0.02    -0.14   0.26  -0.23     0.06  -0.05   0.06
  12   1     0.19  -0.08   0.33    -0.02  -0.06  -0.08    -0.05  -0.07  -0.15
  13   8    -0.29  -0.07  -0.04    -0.16   0.02   0.20    -0.41  -0.26   0.01
  14   7    -0.26   0.06   0.01     0.07   0.14   0.07     0.08   0.12  -0.00
  15   1     0.13  -0.15   0.02    -0.02   0.10   0.02    -0.05  -0.02  -0.01
  16   1     0.23   0.33   0.11    -0.05  -0.04  -0.01    -0.03   0.03   0.06
                     19                     20                     21
                        a                      a                      a 
 Frequencies --  1117.4897              1126.7686              1156.9582
 Red. masses --     9.9645                 8.7837                 5.5382
 Frc consts  --     0.0000                 0.0000                 0.0000
 IR Inten    --    21.4922                14.8125                 1.3720
 Raman Activ --     0.0000                 0.0000                 0.0000
 Depolar     --     0.0000                 0.0000                 0.0000
 Atom AN      X      Y      Z        X      Y      Z        X      Y      Z
   1   6    -0.12  -0.03   0.06    -0.27   0.19  -0.16     0.05   0.11   0.33
   2   6     0.11  -0.59   0.27    -0.01  -0.01   0.01    -0.01   0.11   0.10
   3   6    -0.18   0.40  -0.31     0.01  -0.01  -0.01     0.06  -0.07  -0.07
   4   6     0.04   0.03  -0.02     0.08  -0.56  -0.02    -0.05  -0.17  -0.31
   5   1    -0.06   0.02   0.01    -0.07   0.05  -0.05    -0.30  -0.17   0.08
   6   1     0.12  -0.25   0.08     0.01  -0.03   0.00     0.03  -0.13   0.01
   7   1    -0.09   0.29  -0.06    -0.00   0.00  -0.00    -0.03   0.03  -0.00
   8   1    -0.04   0.00  -0.01     0.21  -0.41   0.01    -0.22   0.23  -0.09
   9   1     0.01  -0.01   0.01    -0.01   0.03  -0.02     0.14   0.06  -0.16
  10   1     0.02   0.00  -0.02     0.01   0.06  -0.01     0.03   0.35  -0.03
  11   1    -0.04   0.09  -0.03    -0.01  -0.01   0.01     0.04  -0.09   0.08
  12   1     0.01   0.02   0.04     0.03  -0.14  -0.04     0.08  -0.20   0.02
  13   8     0.16   0.16  -0.00     0.09  -0.00  -0.02    -0.06  -0.14  -0.17
  14   7    -0.01  -0.03   0.01    -0.00   0.42   0.17     0.09   0.10   0.17
  15   1     0.00   0.02   0.00     0.04   0.01   0.05     0.03   0.30   0.05
  16   1    -0.00  -0.02  -0.02     0.08   0.23   0.12    -0.06  -0.14  -0.10
                     22                     23                     24
                        a                      a                      a 
 Frequencies --  1227.6100              1253.5986              1283.2327
 Red. masses --     4.0374                 2.7128                 3.3459
 Frc consts  --     0.0000                 0.0000                 0.0000
 IR Inten    --    21.9055                12.8080                10.5050
 Raman Activ --     0.0000                 0.0000                 0.0000
 Depolar     --     0.0000                 0.0000                 0.0000
 Atom AN      X      Y      Z        X      Y      Z        X      Y      Z
   1   6     0.08  -0.04  -0.19     0.09   0.09  -0.05    -0.09   0.10   0.06
   2   6     0.09  -0.00  -0.04     0.01   0.04   0.01    -0.05   0.12   0.09
   3   6     0.06  -0.03  -0.07     0.02  -0.01  -0.02    -0.02  -0.00  -0.00
   4   6     0.02   0.10   0.24     0.08   0.03  -0.16     0.05   0.05   0.19
   5   1    -0.12   0.12  -0.04     0.05  -0.01  -0.01    -0.51   0.07   0.01
   6   1    -0.09  -0.35  -0.02    -0.02  -0.09   0.00     0.05   0.05   0.02
   7   1    -0.02  -0.02  -0.01    -0.01   0.00  -0.00    -0.01   0.03   0.00
   8   1     0.12   0.01   0.08     0.02  -0.44  -0.08     0.07   0.04   0.06
   9   1     0.23  -0.10   0.07     0.18  -0.01  -0.04     0.59  -0.11  -0.04
  10   1     0.13   0.64   0.05     0.00   0.06  -0.01    -0.09  -0.35  -0.06
  11   1     0.03  -0.07   0.07     0.01  -0.02   0.02     0.01   0.01  -0.01
  12   1    -0.01   0.01  -0.04    -0.23   0.64   0.11    -0.03   0.08   0.01
  13   8    -0.26  -0.04   0.13    -0.08  -0.07   0.03     0.11  -0.15  -0.21
  14   7    -0.03  -0.03  -0.15    -0.14  -0.11   0.20    -0.04  -0.03  -0.11
  15   1    -0.04  -0.20  -0.04     0.14   0.21   0.07    -0.02  -0.15  -0.03
  16   1     0.04   0.12   0.09    -0.00  -0.17  -0.19     0.03   0.08   0.06
                     25                     26                     27
                        a                      a                      a 
 Frequencies --  1325.2749              1340.3975              1354.4578
 Red. masses --     2.8878                 3.7688                 3.9200
 Frc consts  --     0.0000                 0.0000                 0.0000
 IR Inten    --    10.5162                16.6942                 7.8236
 Raman Activ --     0.0000                 0.0000                 0.0000
 Depolar     --     0.0000                 0.0000                 0.0000
 Atom AN      X      Y      Z        X      Y      Z        X      Y      Z
   1   6    -0.06   0.05  -0.01     0.29  -0.02   0.02     0.28  -0.15  -0.02
   2   6    -0.02  -0.34   0.02    -0.02  -0.09  -0.01    -0.01  -0.05  -0.01
   3   6     0.04  -0.01   0.12     0.01  -0.01   0.02     0.01  -0.02   0.03
   4   6     0.02   0.03   0.00     0.09  -0.34   0.11    -0.21   0.31  -0.02
   5   1     0.07  -0.02  -0.01    -0.42   0.11  -0.01    -0.50   0.15  -0.02
   6   1     0.13   0.75   0.02     0.01   0.13  -0.00    -0.00   0.09  -0.01
   7   1     0.02   0.07   0.03     0.00   0.02   0.01     0.00   0.04   0.01
   8   1     0.01  -0.01  -0.00    -0.09   0.28   0.04     0.24  -0.46   0.00
   9   1     0.23  -0.05  -0.02    -0.42   0.13  -0.05    -0.26   0.04   0.03
  10   1     0.06   0.37   0.02     0.01   0.07  -0.01    -0.00   0.02  -0.02
  11   1    -0.07   0.13  -0.15    -0.02   0.03  -0.03    -0.01   0.03  -0.05
  12   1     0.01   0.00   0.02    -0.21   0.42  -0.06     0.10  -0.26   0.02
  13   8    -0.09  -0.06  -0.09     0.01   0.06  -0.04     0.01   0.05  -0.05
  14   7    -0.01  -0.01  -0.00    -0.06   0.04  -0.08     0.06  -0.05   0.09
  15   1     0.01  -0.01   0.00    -0.02  -0.09  -0.02     0.01   0.12   0.02
  16   1     0.01  -0.00  -0.01     0.04   0.12   0.08    -0.05  -0.11  -0.05
                     28                     29                     30
                        a                      a                      a 
 Frequencies --  1389.2141              1434.2652              1448.5854
 Red. masses --     2.7968                 1.9013                 1.8784
 Frc consts  --     0.0000                 0.0000                 0.0000
 IR Inten    --     0.9273                 0.4023                 0.2991
 Raman Activ --     0.0000                 0.0000                 0.0000
 Depolar     --     0.0000                 0.0000                 0.0000
 Atom AN      X      Y      Z        X      Y      Z        X      Y      Z
   1   6    -0.02   0.00  -0.00     0.02  -0.03   0.01    -0.05  -0.21   0.17
   2   6    -0.01   0.12   0.00    -0.21   0.08  -0.15     0.04   0.01   0.03
   3   6     0.11  -0.35   0.12    -0.00  -0.04   0.00     0.00  -0.00  -0.00
   4   6     0.00  -0.01  -0.01    -0.01  -0.00   0.01     0.01  -0.01   0.01
   5   1     0.04  -0.02   0.01     0.02   0.09  -0.01     0.18   0.65  -0.03
   6   1    -0.13  -0.19  -0.01     0.67  -0.13   0.03    -0.09   0.01   0.00
   7   1    -0.07   0.62   0.10     0.01   0.10   0.01    -0.00  -0.00   0.00
   8   1     0.01   0.03   0.00     0.01  -0.01   0.00    -0.01  -0.02  -0.00
   9   1    -0.01  -0.00   0.01     0.00   0.02  -0.08     0.07   0.15  -0.64
  10   1    -0.03   0.02  -0.11     0.17  -0.05   0.62    -0.02   0.00  -0.08
  11   1    -0.12   0.31  -0.51    -0.03   0.04  -0.07     0.00  -0.00   0.00
  12   1     0.00   0.01   0.03    -0.00  -0.00  -0.00     0.00  -0.02  -0.02
  13   8     0.01   0.01   0.03    -0.05  -0.03  -0.00    -0.03  -0.02   0.01
  14   7    -0.00  -0.00  -0.00     0.00   0.00   0.00     0.01  -0.01  -0.01
  15   1    -0.00  -0.00  -0.00    -0.00  -0.01  -0.00    -0.02   0.04  -0.00
  16   1     0.00   0.01   0.00    -0.00  -0.00  -0.00    -0.01   0.02   0.05
                     31                     32                     33
                        a                      a                      a 
 Frequencies --  1464.4378              1538.3687              2783.0944
 Red. masses --     1.8604                 2.1557                 1.7824
 Frc consts  --     0.0000                 0.0000                 0.0000
 IR Inten    --     0.8726                27.3056                44.0910
 Raman Activ --     0.0000                 0.0000                 0.0000
 Depolar     --     0.0000                 0.0000                 0.0000
 Atom AN      X      Y      Z        X      Y      Z        X      Y      Z
   1   6    -0.02  -0.01  -0.00    -0.02   0.01  -0.02     0.00   0.00   0.01
   2   6    -0.00  -0.00  -0.00    -0.00   0.00  -0.00     0.23  -0.03  -0.13
   3   6     0.00   0.01  -0.00    -0.00   0.00   0.00     0.01  -0.01   0.00
   4   6    -0.16  -0.09  -0.20     0.09   0.03  -0.00     0.00   0.00  -0.00
   5   1     0.03   0.01  -0.00     0.01  -0.05  -0.00    -0.00  -0.00  -0.04
   6   1     0.00  -0.00  -0.00     0.01  -0.00  -0.00     0.03  -0.01   0.18
   7   1    -0.00  -0.03  -0.00     0.00  -0.00  -0.00     0.00   0.00   0.01
   8   1     0.59   0.29   0.10    -0.06  -0.09  -0.02     0.00  -0.00   0.00
   9   1    -0.01   0.00  -0.02     0.03  -0.02   0.05    -0.00  -0.00   0.00
  10   1     0.00   0.00   0.00     0.00  -0.00   0.01    -0.90   0.13   0.26
  11   1     0.00  -0.01   0.02    -0.00   0.00  -0.00     0.00  -0.01  -0.01
  12   1     0.08   0.10   0.67    -0.01   0.06  -0.03    -0.01  -0.00   0.00
  13   8     0.01   0.00   0.00    -0.00  -0.00   0.00     0.01   0.01  -0.00
  14   7    -0.02  -0.05  -0.03     0.07  -0.25  -0.12    -0.00   0.00   0.00
  15   1    -0.03   0.05  -0.01    -0.32   0.59  -0.05    -0.00   0.00  -0.00
  16   1    -0.01   0.03   0.05    -0.13   0.26   0.59     0.00   0.00   0.00
                     34                     35                     36
                        a                      a                      a 
 Frequencies --  2823.3314              2838.0370              2844.6352
 Red. masses --     1.7165                 1.7029                 1.5868
 Frc consts  --     0.0000                 0.0000                 0.0000
 IR Inten    --   121.9960                61.3982                81.5497
 Raman Activ --     0.0000                 0.0000                 0.0000
 Depolar     --     0.0000                 0.0000                 0.0000
 Atom AN      X      Y      Z        X      Y      Z        X      Y      Z
   1   6     0.01  -0.00   0.02     0.01   0.03   0.25    -0.00  -0.00   0.02
   2   6    -0.00   0.00   0.00    -0.01   0.00  -0.02     0.02  -0.02   0.22
   3   6    -0.00  -0.00   0.00    -0.00   0.00  -0.00     0.00  -0.01   0.00
   4   6     0.23   0.09  -0.07    -0.02  -0.01   0.01    -0.00  -0.00  -0.00
   5   1     0.00  -0.01  -0.09     0.01  -0.07  -0.95     0.01  -0.01  -0.10
   6   1    -0.00  -0.00  -0.00    -0.01  -0.01   0.09     0.06   0.00  -0.94
   7   1    -0.00  -0.00  -0.00     0.00   0.00  -0.00     0.00  -0.01   0.02
   8   1     0.03   0.01   0.05    -0.01  -0.01   0.04    -0.00  -0.00   0.01
   9   1     0.01   0.02   0.01    -0.01  -0.04   0.03     0.00   0.01   0.01
  10   1     0.01  -0.00  -0.00     0.06  -0.01  -0.02    -0.18   0.02   0.09
  11   1    -0.00   0.00   0.00    -0.00   0.00   0.00     0.00   0.01   0.00
  12   1    -0.87  -0.38   0.17     0.08   0.03  -0.02     0.01   0.00  -0.00
  13   8    -0.00  -0.00   0.00    -0.02  -0.00   0.01     0.01   0.01   0.01
  14   7     0.01   0.02   0.01    -0.00  -0.00  -0.00    -0.00   0.00  -0.00
  15   1    -0.00  -0.00  -0.00     0.00  -0.00   0.00     0.00  -0.00   0.00
  16   1    -0.00   0.00   0.00     0.00  -0.00   0.00     0.00  -0.00   0.00
                     37                     38                     39
                        a                      a                      a 
 Frequencies --  2957.0865              2994.6271              3140.4504
 Red. masses --     1.7076                 1.7074                 1.4268
 Frc consts  --     0.0000                 0.0000                 0.0000
 IR Inten    --    39.2852                26.3648                18.1368
 Raman Activ --     0.0000                 0.0000                 0.0000
 Depolar     --     0.0000                 0.0000                 0.0000
 Atom AN      X      Y      Z        X      Y      Z        X      Y      Z
   1   6    -0.05  -0.24  -0.07    -0.00  -0.01  -0.02    -0.00   0.00   0.00
   2   6     0.00   0.00  -0.00    -0.00   0.00  -0.00     0.00  -0.00  -0.00
   3   6    -0.00   0.00  -0.00     0.00   0.00   0.00    -0.03   0.17  -0.10
   4   6    -0.01  -0.01   0.00     0.03   0.02  -0.25     0.00   0.00  -0.00
   5   1    -0.00  -0.04  -0.05     0.00   0.00   0.04    -0.00  -0.00  -0.00
   6   1     0.00   0.00   0.02     0.00   0.00   0.00    -0.00   0.00   0.01
   7   1     0.00   0.00   0.00    -0.00   0.00  -0.01     0.12  -0.05   0.72
   8   1     0.00   0.00  -0.02    -0.15  -0.08   0.95    -0.00  -0.00   0.01
   9   1     0.22   0.90   0.27     0.01   0.02   0.00    -0.00  -0.00  -0.00
  10   1     0.00  -0.00  -0.00     0.00   0.00  -0.00     0.01  -0.00  -0.00
  11   1     0.00  -0.00  -0.00    -0.00  -0.00  -0.00    -0.04  -0.52  -0.39
  12   1     0.02   0.01  -0.00     0.05   0.03  -0.04    -0.00  -0.00   0.00
  13   8    -0.01  -0.01   0.00     0.00  -0.00   0.00    -0.00  -0.00  -0.00
  14   7     0.00   0.00   0.00    -0.00  -0.00  -0.00     0.00  -0.00   0.00
  15   1     0.00   0.00  -0.00     0.00  -0.00  -0.02     0.00  -0.00   0.00
  16   1    -0.00   0.00  -0.00    -0.00  -0.00   0.00    -0.00   0.00  -0.00
                     40                     41                     42
                        a                      a                      a 
 Frequencies --  3186.2849              3391.5600              3434.8081
 Red. masses --     2.1475                 1.5064                 2.0888
 Frc consts  --     0.0000                 0.0000                 0.0000
 IR Inten    --    39.2466                 6.1073                 3.1425
 Raman Activ --     0.0000                 0.0000                 0.0000
 Depolar     --     0.0000                 0.0000                 0.0000
 Atom AN      X      Y      Z        X      Y      Z        X      Y      Z
   1   6    -0.00  -0.00   0.00     0.00  -0.00   0.00     0.00   0.00  -0.00
   2   6     0.00   0.00   0.01     0.00   0.00   0.00     0.00   0.00  -0.00
   3   6     0.04   0.15   0.28    -0.00   0.00   0.00    -0.00   0.00  -0.00
   4   6    -0.00  -0.00   0.00    -0.01   0.00   0.01    -0.00   0.00  -0.01
   5   1     0.00   0.00  -0.00    -0.00   0.00   0.00     0.00  -0.00   0.00
   6   1     0.00  -0.00  -0.02     0.00   0.00  -0.00     0.00  -0.00   0.00
   7   1    -0.10   0.08  -0.61     0.00   0.00  -0.00     0.00  -0.00   0.01
   8   1     0.00   0.00  -0.01     0.00   0.00  -0.01    -0.00  -0.00   0.01
   9   1    -0.00  -0.00  -0.00    -0.00  -0.00  -0.00    -0.00   0.00   0.00
  10   1     0.00   0.00   0.00     0.00  -0.00  -0.00    -0.00  -0.00   0.00
  11   1    -0.04  -0.60  -0.39    -0.00  -0.01  -0.00     0.00   0.00   0.00
  12   1     0.00  -0.00  -0.00    -0.00  -0.01  -0.00    -0.00  -0.00   0.00
  13   8    -0.00   0.00  -0.00    -0.00  -0.00   0.00    -0.00  -0.00  -0.00
  14   7    -0.00  -0.00  -0.00    -0.10   0.09   0.14    -0.10   0.14  -0.23
  15   1     0.00   0.00   0.01     0.10   0.02  -0.80    -0.10   0.01   0.52
  16   1     0.00  -0.00   0.00     0.30  -0.37   0.28     0.47  -0.54   0.35
