      -----------------------------------------------------------      
     |                   =====================                   |     
     |                           x T B                           |     
     |                   =====================                   |     
     |                         S. Grimme                         |     
     |          Mulliken Center for Theoretical Chemistry        |     
     |                    University of Bonn                     |     
      -----------------------------------------------------------      

   * xtb version 6.5.1 (579679a) compiled by 'ehlert@majestix' on 2022-07-11

   xtb is free software: you can redistribute it and/or modify it under
   the terms of the GNU Lesser General Public License as published by
   the Free Software Foundation, either version 3 of the License, or
   (at your option) any later version.
   
   xtb is distributed in the hope that it will be useful,
   but WITHOUT ANY WARRANTY; without even the implied warranty of
   MERCHANTABILITY or FITNESS FOR A PARTICULAR PURPOSE.  See the
   GNU Lesser General Public License for more details.
   
   Cite this work as:
   * C. Bannwarth, E. Caldeweyher, S. Ehlert, A. Hansen, P. Pracht,
     J. Seibert, S. Spicher, S. Grimme, WIREs Comput. Mol. Sci., 2020, 11,
     e01493. DOI: 10.1002/wcms.1493
   
   for GFN2-xTB:
   * C. Bannwarth, S. Ehlert and S. Grimme., J. Chem. Theory Comput., 2019,
     15, 1652-1671. DOI: 10.1021/acs.jctc.8b01176
   for GFN1-xTB:
   * S. Grimme, C. Bannwarth, P. Shushkov, J. Chem. Theory Comput., 2017,
     13, 1989-2009. DOI: 10.1021/acs.jctc.7b00118
   for GFN0-xTB:
   * P. Pracht, E. Caldeweyher, S. Ehlert, S. Grimme, ChemRxiv, 2019, preprint.
     DOI: 10.26434/chemrxiv.8326202.v1
   for GFN-FF:
   * S. Spicher and S. Grimme, Angew. Chem. Int. Ed., 2020, 59, 15665-15673.
     DOI: 10.1002/anie.202004239
   
   for ALPB and GBSA implicit solvation:
   * S. Ehlert, M. Stahn, S. Spicher, S. Grimme, J. Chem. Theory Comput.,
     2021, 17, 4250-4261. DOI: 10.1021/acs.jctc.1c00471
   
   for DFT-D4:
   * E. Caldeweyher, C. Bannwarth and S. Grimme, J. Chem. Phys., 2017,
     147, 034112. DOI: 10.1063/1.4993215
   * E. Caldeweyher, S. Ehlert, A. Hansen, H. Neugebauer, S. Spicher,
     C. Bannwarth and S. Grimme, J. Chem. Phys., 2019, 150, 154122.
     DOI: 10.1063/1.5090222
   * E. Caldeweyher, J.-M. Mewes, S. Ehlert and S. Grimme, Phys. Chem. Chem. Phys.
     2020, 22, 8499-8512. DOI: 10.1039/D0CP00502A
   
   for sTDA-xTB:
   * S. Grimme and C. Bannwarth, J. Chem. Phys., 2016, 145, 054103.
     DOI: 10.1063/1.4959605
   
   in the mass-spec context:
   * V. Asgeirsson, C. Bauer and S. Grimme, Chem. Sci., 2017, 8, 4879.
     DOI: 10.1039/c7sc00601b
   * J. Koopman and S. Grimme, ACS Omega 2019, 4, 12, 15120-15133.
     DOI: 10.1021/acsomega.9b02011
   
   for metadynamics refer to:
   * S. Grimme, J. Chem. Theory Comput., 2019, 155, 2847-2862
     DOI: 10.1021/acs.jctc.9b00143
   
   for SPH calculations refer to:
   * S. Spicher and S. Grimme, J. Chem. Theory Comput., 2021, 17, 1701-1714
     DOI: 10.1021/acs.jctc.0c01306
   
   with help from (in alphabetical order)
   P. Atkinson, C. Bannwarth, F. Bohle, G. Brandenburg, E. Caldeweyher
   M. Checinski, S. Dohm, S. Ehlert, S. Ehrlich, I. Gerasimov, C. Hölzer
   A. Katbashev, J. Koopman, C. Lavigne, S. Lehtola, F. März, M. Müller,
   F. Musil, H. Neugebauer, J. Pisarek, C. Plett, P. Pracht, F. Pultar,
   J. Seibert, P. Shushkov, S. Spicher, M. Stahn, M. Steiner, T. Strunk,
   J. Stückrath, T. Rose, and J. Unsleber
   
 * started run on 2022/10/12 at 03:15:58.182     

           -------------------------------------------------
          |                Calculation Setup                |
           -------------------------------------------------

          program call               : xtb solute.coord --gfn2 --ohess
          hostname                   : cn1257
          coordinate file            : solute.coord
          omp threads                :                    40

   ID    Z sym.   atoms
    1    6 c      1-4
    2    1 h      5-12, 15, 16
    3    8 o      13
    4    7 n      14

           -------------------------------------------------
          |                 G F N 2 - x T B                 |
           -------------------------------------------------

        Reference                      10.1021/acs.jctc.8b01176
      * Hamiltonian:
        H0-scaling (s, p, d)           1.850000    2.230000    2.230000
        zeta-weighting                 0.500000
      * Dispersion:
        s8                             2.700000
        a1                             0.520000
        a2                             5.000000
        s9                             5.000000
      * Repulsion:
        kExp                           1.500000    1.000000
        rExp                           1.000000
      * Coulomb:
        alpha                          2.000000
        third order                    shell-resolved
        anisotropic                    true
        a3                             3.000000
        a5                             4.000000
        cn-shift                       1.200000
        cn-exp                         4.000000
        max-rad                        5.000000


          ...................................................
          :                      SETUP                      :
          :.................................................:
          :  # basis functions                  34          :
          :  # atomic orbitals                  34          :
          :  # shells                           22          :
          :  # electrons                        37          :
          :  max. iterations                   250          :
          :  Hamiltonian                  GFN2-xTB          :
          :  restarted?                      false          :
          :  GBSA solvation                  false          :
          :  PC potential                    false          :
          :  electronic temp.          300.0000000     K    :
          :  accuracy                    1.0000000          :
          :  -> integral cutoff          0.2500000E+02      :
          :  -> integral neglect         0.1000000E-07      :
          :  -> SCF convergence          0.1000000E-05 Eh   :
          :  -> wf. convergence          0.1000000E-03 e    :
          :  Broyden damping             0.4000000          :
          ...................................................

 iter      E             dE          RMSdq      gap      omega  full diag
   1    -20.6972047 -0.206972E+02  0.382E+00    8.87       0.0  T
   2    -20.7591747 -0.619700E-01  0.236E+00    8.17       1.0  T
   3    -20.7631829 -0.400822E-02  0.119E+00    8.73       1.0  T
   4    -20.7636862 -0.503212E-03  0.211E-01    8.50       1.0  T
   5    -20.7637251 -0.389505E-04  0.691E-02    8.50       1.0  T
   6    -20.7637269 -0.176167E-05  0.270E-02    8.51       1.0  T
   7    -20.7637276 -0.703484E-06  0.499E-03    8.51       5.0  T
   8    -20.7637276 -0.160342E-07  0.777E-04    8.51      32.2  T
   9    -20.7637276 -0.623604E-09  0.340E-04    8.51      73.6  T

   *** convergence criteria satisfied after 9 iterations ***

         #    Occupation            Energy/Eh            Energy/eV
      -------------------------------------------------------------
         1        2.0000           -0.6838536             -18.6086
       ...           ...                  ...                  ...
        13        2.0000           -0.4627350             -12.5917
        14        2.0000           -0.4590190             -12.4905
        15        2.0000           -0.4443267             -12.0907
        16        2.0000           -0.4251260             -11.5683
        17        2.0000           -0.3942865             -10.7291
        18        2.0000           -0.3796062             -10.3296
        19        1.0000           -0.2811119              -7.6494 (HOMO)
        20                          0.0316967               0.8625 (LUMO)
        21                          0.0435783               1.1858
        22                          0.0908042               2.4709
        23                          0.1158859               3.1534
        24                          0.1276056               3.4723
       ...                                ...                  ...
        34                          0.3762255              10.2376
      -------------------------------------------------------------
                  HL-Gap            0.3128086 Eh            8.5120 eV
             Fermi-level           -0.2275333 Eh           -6.1915 eV

 SCC (total)                   0 d,  0 h,  0 min,  0.017 sec
 SCC setup                      ...        0 min,  0.000 sec (  2.859%)
 Dispersion                     ...        0 min,  0.001 sec (  6.148%)
 classical contributions        ...        0 min,  0.000 sec (  2.146%)
 integral evaluation            ...        0 min,  0.001 sec (  5.761%)
 iterations                     ...        0 min,  0.011 sec ( 63.676%)
 molecular gradient             ...        0 min,  0.003 sec ( 15.990%)
 printout                       ...        0 min,  0.000 sec (  1.735%)

         :::::::::::::::::::::::::::::::::::::::::::::::::::::
         ::                     SUMMARY                     ::
         :::::::::::::::::::::::::::::::::::::::::::::::::::::
         :: total energy             -20.536524530962 Eh    ::
         :: gradient norm              0.000688068772 Eh/a0 ::
         :: HOMO-LUMO gap              8.511954586404 eV    ::
         ::.................................................::
         :: SCC energy               -20.763727594167 Eh    ::
         :: -> isotropic ES            0.028986450809 Eh    ::
         :: -> anisotropic ES          0.007149271175 Eh    ::
         :: -> anisotropic XC          0.009699110686 Eh    ::
         :: -> dispersion             -0.009500476880 Eh    ::
         :: repulsion energy           0.227180146983 Eh    ::
         :: add. restraining           0.000000000000 Eh    ::
         :: total charge              -0.000000000000 e     ::
         :::::::::::::::::::::::::::::::::::::::::::::::::::::

      ----------------------------------------------------------- 
     |                   =====================                   |
     |                        A N C O P T                        |
     |                   =====================                   |
     |               Approximate Normal Coordinate               |
     |                Rational Function Optimizer                |
      ----------------------------------------------------------- 

          ...................................................
          :                      SETUP                      :
          :.................................................:
          :   optimization level            normal          :
          :   max. optcycles                   200          :
          :   ANC micro-cycles                  20          :
          :   degrees of freedom                42          :
          :.................................................:
          :   RF solver                   davidson          :
          :   write xtbopt.log                true          :
          :   linear?                        false          :
          :   energy convergence         0.5000000E-05 Eh   :
          :   grad. convergence          0.1000000E-02 Eh/α :
          :   maximium RF displ.         1.0000000          :
          :   Hlow (freq-cutoff)         0.1000000E-01      :
          :   Hmax (freq-cutoff)         5.0000000          :
          :   S6 in model hess.         20.0000000          :
          ...................................................

generating ANC from model Hessian ...
Using Lindh-Hessian (1995)
 Shifting diagonal of input Hessian by   7.768878826753177E-003
 Lowest  eigenvalues of input Hessian
    0.000000    0.000000    0.000000    0.000000    0.000000    0.000000
    0.010000    0.013311    0.014734    0.020615    0.022532    0.023984
    0.032807    0.035119    0.051756    0.061138    0.063879    0.066832
 Highest eigenvalues
    1.195007    1.305511    1.389309    1.423838    1.491823    1.585821
 

........................................................................
.............................. CYCLE    1 ..............................
........................................................................
   1    -20.7637276 -0.207637E+02  0.108E-04    8.51       0.0  T
   2    -20.7637276 -0.249258E-10  0.624E-05    8.51     400.6  T
   3    -20.7637276 -0.270006E-11  0.317E-05    8.51     788.0  T
     SCC iter.                  ...        0 min,  0.004 sec
     gradient                   ...        0 min,  0.003 sec
 * total energy  :   -20.5365245 Eh     change       -0.1248033E-09 Eh
   gradient norm :     0.0006875 Eh/α   predicted     0.0000000E+00 (-100.00%)
   displ. norm   :     0.0107434 α      lambda       -0.1693214E-05
   maximum displ.:     0.0051327 α      in ANC's #5, #4, #1, ...

   *** GEOMETRY OPTIMIZATION CONVERGED AFTER 1 ITERATIONS ***

------------------------------------------------------------------------
 total energy gain   :        -0.0000000 Eh       -0.0000 kcal/mol
 total RMSD          :         0.0000001 a0        0.0000 Å
 total power (kW/mol):        -0.0000003 (step)   -0.0000 (real)
------------------------------------------------------------------------

 ANCopt (total)                0 d,  0 h,  0 min,  0.028 sec
 optimizer setup                ...        0 min,  0.000 sec (  1.662%)
 model hessian                  ...        0 min,  0.015 sec ( 54.422%)
 ANC generation                 ...        0 min,  0.001 sec (  4.806%)
 coordinate transformation      ...        0 min,  0.000 sec (  0.224%)
 single point calculation       ...        0 min,  0.009 sec ( 31.266%)
 optimization log               ...        0 min,  0.001 sec (  3.853%)
 hessian update                 ...        0 min,  0.000 sec (  0.102%)
 rational function              ...        0 min,  0.000 sec (  1.675%)

================
 final structure:
================
$coord
       -0.82065810773700       -2.34604423282200        0.46023793351000      c
        2.88416415877500        0.21960050529500        0.51263086317000      c
        1.92582932497400        2.64424465974100       -0.47752046280800      c
       -2.81478385757600       -0.53956092002300       -0.62385039894000      c
       -0.84899702298500       -2.21633768745400        2.53989403460700      h
        2.80271725464500        0.20271443057100        2.59264267239300      h
        1.63411784855300        2.84259674579900       -2.47207255424300      h
       -2.52216050422400       -0.38447069493700       -2.65958000609700      h
       -1.30114689480000       -4.27932348967700       -0.09173056752600      h
        4.86916903443900       -0.10641932404300       -0.04717610454100      h
        2.06136637979700        4.31269280996500        0.65912304469400      h
       -4.69619413095100       -1.37401913022100       -0.28965388844400      h
        1.63360070480200       -1.96256127613600       -0.44969266803800      o
       -2.54478757004900        1.95949593030900        0.46505148119900      n
       -2.87173652114700        1.94631475224600        2.35231070683600      h
       -3.69117289440100        3.23830382302800       -0.37677788057400      h
$end
 
 Bond Distances (Angstroems)
 ---------------------------
C1-C4=1.5351         C1-H5=1.1027         C1-H9=1.0939         C1-O13=1.3999        C2-C3=1.4758         C2-H6=1.1016         
C2-H10=1.1049        C2-O13=1.4250        C3-C2=1.4758         C3-H7=1.0719         C3-H11=1.0707        C4-C1=1.5351         
C4-H8=1.0914         C4-H12=1.1034        C4-N14=1.4496        H5-C1=1.1027         H6-C2=1.1016         H7-C3=1.0719         
H8-C4=1.0914         H9-C1=1.0939         H10-C2=1.1049        H11-C3=1.0707        H12-C4=1.1034        O13-C1=1.3999        
O13-C2=1.4250        N14-C4=1.4496        N14-H15=1.0136       N14-H16=1.0121       H15-N14=1.0136       H16-N14=1.0121       
 C  H  Rav=1.0926 sigma=0.0131  Rmin=1.0707  Rmax=1.1049     8
 C  C  Rav=1.5054 sigma=0.0296  Rmin=1.4758  Rmax=1.5351     2
 N  H  Rav=1.0129 sigma=0.0007  Rmin=1.0121  Rmax=1.0136     2
 N  C  Rav=1.4496 sigma=0.0000  Rmin=1.4496  Rmax=1.4496     1
 O  C  Rav=1.4125 sigma=0.0126  Rmin=1.3999  Rmax=1.4250     2
 
 selected bond angles (degree)
 --------------------
H5-C1-C4=108.96                H9-C1-C4=108.83                H9-C1-H5=108.76                O13-C1-C4=114.77               
O13-C1-H5=110.30               O13-C1-H9=105.03               H6-C2-C3=110.39                H10-C2-C3=111.55               
H10-C2-H6=107.69               O13-C2-C3=114.71               O13-C2-H6=109.41               O13-C2-H10=102.66              
H7-C3-C2=118.96                H11-C3-C2=119.63               H11-C3-H7=118.82               H8-C4-C1=108.55                
H12-C4-C1=108.13               H12-C4-H8=108.44               N14-C4-C1=110.60               N14-C4-H8=108.05               
N14-C4-H12=112.97              
 
 selected dihedral angles (degree)
 ---------------------------------
H7-C3-C2-H6=188.83            H7-C3-C2-H10= 69.15           H7-C3-C2-O13=312.98           H11-C3-C2-H6= 27.27           
H11-C3-C2-H10=267.58          H11-C3-C2-O13=151.41          H8-C4-C1-H5=168.59            H8-C4-C1-H9=287.04            
H8-C4-C1-O13= 44.38           H12-C4-C1-H5=286.04           H12-C4-C1-H9= 44.49           H12-C4-C1-O13=161.82          
N14-C4-C1-H5= 50.22           N14-C4-C1-H9=168.67           N14-C4-C1-O13=286.00          
           -------------------------------------------------
          |                Final Singlepoint                |
           -------------------------------------------------

          ...................................................
          :                      SETUP                      :
          :.................................................:
          :  # basis functions                  34          :
          :  # atomic orbitals                  34          :
          :  # shells                           22          :
          :  # electrons                        37          :
          :  max. iterations                   250          :
          :  Hamiltonian                  GFN2-xTB          :
          :  restarted?                      false          :
          :  GBSA solvation                  false          :
          :  PC potential                    false          :
          :  electronic temp.          300.0000000     K    :
          :  accuracy                    1.0000000          :
          :  -> integral cutoff          0.2500000E+02      :
          :  -> integral neglect         0.1000000E-07      :
          :  -> SCF convergence          0.1000000E-05 Eh   :
          :  -> wf. convergence          0.1000000E-03 e    :
          :  Broyden damping             0.4000000          :
          ...................................................

 iter      E             dE          RMSdq      gap      omega  full diag
   1    -20.7637276 -0.207637E+02  0.658E-06    8.51       0.0  T
   2    -20.7637276 -0.319744E-13  0.413E-06    8.51    6051.1  T
   3    -20.7637276 -0.213163E-13  0.951E-07    8.51   26276.8  T

   *** convergence criteria satisfied after 3 iterations ***

         #    Occupation            Energy/Eh            Energy/eV
      -------------------------------------------------------------
         1        2.0000           -0.6838523             -18.6086
       ...           ...                  ...                  ...
        13        2.0000           -0.4627347             -12.5917
        14        2.0000           -0.4590177             -12.4905
        15        2.0000           -0.4443268             -12.0907
        16        2.0000           -0.4251261             -11.5683
        17        2.0000           -0.3942864             -10.7291
        18        2.0000           -0.3796055             -10.3296
        19        1.0000           -0.2811116              -7.6494 (HOMO)
        20                          0.0316976               0.8625 (LUMO)
        21                          0.0435791               1.1858
        22                          0.0908048               2.4709
        23                          0.1158867               3.1534
        24                          0.1276061               3.4723
       ...                                ...                  ...
        34                          0.3762252              10.2376
      -------------------------------------------------------------
                  HL-Gap            0.3128092 Eh            8.5120 eV
             Fermi-level           -0.2275327 Eh           -6.1915 eV

 SCC (total)                   0 d,  0 h,  0 min,  0.009 sec
 SCC setup                      ...        0 min,  0.000 sec (  4.134%)
 Dispersion                     ...        0 min,  0.000 sec (  4.696%)
 classical contributions        ...        0 min,  0.000 sec (  2.695%)
 integral evaluation            ...        0 min,  0.001 sec (  8.383%)
 iterations                     ...        0 min,  0.004 sec ( 41.757%)
 molecular gradient             ...        0 min,  0.003 sec ( 32.502%)
 printout                       ...        0 min,  0.000 sec (  2.866%)

         :::::::::::::::::::::::::::::::::::::::::::::::::::::
         ::                     SUMMARY                     ::
         :::::::::::::::::::::::::::::::::::::::::::::::::::::
         :: total energy             -20.536524531088 Eh    ::
         :: gradient norm              0.000687385570 Eh/a0 ::
         :: HOMO-LUMO gap              8.511971181459 eV    ::
         ::.................................................::
         :: SCC energy               -20.763727594294 Eh    ::
         :: -> isotropic ES            0.028986157779 Eh    ::
         :: -> anisotropic ES          0.007149274949 Eh    ::
         :: -> anisotropic XC          0.009699053209 Eh    ::
         :: -> dispersion             -0.009500481634 Eh    ::
         :: repulsion energy           0.227180146983 Eh    ::
         :: add. restraining           0.000000000000 Eh    ::
         :: total charge              -0.000000000000 e     ::
         :::::::::::::::::::::::::::::::::::::::::::::::::::::

           ------------------------------------------------- 
          |                Numerical Hessian                |
           ------------------------------------------------- 
step length          :   0.00500
SCC accuracy         :   0.30000
Hessian scale factor :   1.00000
frozen atoms in %    :   0.00000    0
RMS gradient         :   0.00069
estimated CPU  time      0.09 min
estimated wall time      0.00 min

writing file <hessian>.

 projected vibrational frequencies (cm⁻¹)
eigval :       -0.00    -0.00     0.00     0.00     0.00     0.00
eigval :       98.00   146.89   199.02   280.81   302.07   340.11
eigval :      371.72   422.12   499.25   545.34   817.72   832.87
eigval :      875.38   936.87   960.20   972.50  1069.81  1098.27
eigval :     1117.49  1126.77  1156.96  1227.61  1253.60  1283.23
eigval :     1325.27  1340.40  1354.46  1389.21  1434.27  1448.59
eigval :     1464.44  1538.37  2783.09  2823.33  2838.04  2844.64
eigval :     2957.09  2994.63  3140.45  3186.28  3391.56  3434.81
           -------------------------------------------------
          |                Property Printout                |
           -------------------------------------------------

    * Orbital Energies and Occupations

         #    Occupation            Energy/Eh            Energy/eV
      -------------------------------------------------------------
         1        2.0000           -0.6838523             -18.6086
       ...           ...                  ...                  ...
         7        2.0000           -0.5455010             -14.8438
         8        2.0000           -0.5396914             -14.6858
         9        2.0000           -0.5171443             -14.0722
        10        2.0000           -0.5140106             -13.9869
        11        2.0000           -0.5082658             -13.8306
        12        2.0000           -0.4796976             -13.0532
        13        2.0000           -0.4627347             -12.5917
        14        2.0000           -0.4590177             -12.4905
        15        2.0000           -0.4443268             -12.0907
        16        2.0000           -0.4251261             -11.5683
        17        2.0000           -0.3942864             -10.7291
        18        2.0000           -0.3796055             -10.3296
        19        1.0000           -0.2811116              -7.6494 (HOMO)
        20                          0.0316976               0.8625 (LUMO)
        21                          0.0435791               1.1858
        22                          0.0908048               2.4709
        23                          0.1158867               3.1534
        24                          0.1276061               3.4723
        25                          0.1381818               3.7601
        26                          0.1575750               4.2878
        27                          0.1669165               4.5420
        28                          0.1821529               4.9566
        29                          0.2044271               5.5627
        30                          0.2232905               6.0760
       ...                                ...                  ...
        34                          0.3762252              10.2376
      -------------------------------------------------------------
                  HL-Gap            0.3128092 Eh            8.5120 eV
             Fermi-level           -0.2275327 Eh           -6.1915 eV

     #   Z          covCN         q      C6AA      α(0)
     1   6 c        3.695     0.080    19.405     6.302
     2   6 c        3.692     0.090    19.259     6.279
     3   6 c        2.834    -0.130    31.307     9.169
     4   6 c        3.729     0.010    20.512     6.466
     5   1 h        0.923     0.020     2.737     2.587
     6   1 h        0.923     0.020     2.733     2.585
     7   1 h        0.926     0.038     2.469     2.457
     8   1 h        0.924     0.055     2.253     2.348
     9   1 h        0.924     0.046     2.376     2.411
    10   1 h        0.922     0.050     2.325     2.385
    11   1 h        0.926     0.029     2.599     2.521
    12   1 h        0.923     0.009     2.909     2.667
    13   8 o        1.700    -0.318    19.317     5.934
    14   7 n        2.633    -0.294    27.570     7.798
    15   1 h        0.860     0.146     1.425     1.870
    16   1 h        0.860     0.148     1.411     1.861

 Mol. C6AA /au·bohr⁶  :       1902.052152
 Mol. C8AA /au·bohr⁸  :      39358.489755
 Mol. α(0) /au        :         65.640361


Wiberg/Mayer (AO) data.
largest (>0.10) Wiberg bond orders for each atom

 ---------------------------------------------------------------------------
     #   Z sym  total        # sym  WBO       # sym  WBO       # sym  WBO
 ---------------------------------------------------------------------------
     1   6 c    3.962 --    13 o    1.004     4 c    0.988     9 h    0.968
                             5 h    0.963
     2   6 c    3.945 --     3 c    1.068     6 h    0.962    13 o    0.958
                            10 h    0.931
     3   6 c    3.144 --     2 c    1.068    11 h    0.985     7 h    0.984
     4   6 c    3.983 --    14 n    1.025     1 c    0.988     8 h    0.973
                            12 h    0.967
     5   1 h    1.000 --     1 c    0.963
     6   1 h    0.994 --     2 c    0.962
     7   1 h    0.997 --     3 c    0.984
     8   1 h    0.997 --     4 c    0.973
     9   1 h    0.997 --     1 c    0.968
    10   1 h    0.952 --     2 c    0.931
    11   1 h    0.999 --     3 c    0.985
    12   1 h    0.998 --     4 c    0.967
    13   8 o    2.066 --     1 c    1.004     2 c    0.958
    14   7 n    3.068 --     4 c    1.025    15 h    0.963    16 h    0.963
    15   1 h    0.977 --    14 n    0.963
    16   1 h    0.976 --    14 n    0.963
 ---------------------------------------------------------------------------

Topologies differ in total number of bonds
Writing topology from bond orders to xtbtopo.mol

molecular dipole:
                 x           y           z       tot (Debye)
 q only:       -0.663       0.259       0.304
   full:       -1.016       0.287       0.508       2.977
molecular quadrupole (traceless):
                xx          xy          yy          xz          yz          zz
 q only:        1.711       0.420      -1.239       0.603      -0.268      -0.472
  q+dip:        2.333      -0.495      -3.341       0.448      -0.718       1.008
   full:        2.746      -0.194      -2.992       0.427      -0.532       0.247

           -------------------------------------------------
          |                Geometry Summary                 |
           -------------------------------------------------

      molecular mass/u    :       88.1284592
   center of mass at/Å    :       -0.0000030       0.0000010       0.0000007
  moments of inertia/u·Å² :        0.1088074E+03   0.1470756E+03   0.2266488E+03
rotational constants/cm⁻¹ :        0.1549310E+00   0.1146188E+00   0.7437776E-01

 * 15 selected distances

     #   Z          #   Z                                           value/Å
     2   6 c        3   6 c                                       1.4757979
     1   6 c        4   6 c                                       1.5350854 (max)
     1   6 c        5   1 h                                       1.1027471
     2   6 c        6   1 h                                       1.1015747
     3   6 c        7   1 h                                       1.0718521
     4   6 c        8   1 h                                       1.0914243
     1   6 c        9   1 h                                       1.0938886
     2   6 c       10   1 h                                       1.1049441
     3   6 c       11   1 h                                       1.0707242
     4   6 c       12   1 h                                       1.1033964
     1   6 c       13   8 o                                       1.3999133
     2   6 c       13   8 o                                       1.4250308
     4   6 c       14   7 n                                       1.4495874
    14   7 n       15   1 h                                       1.0135944
    14   7 n       16   1 h                                       1.0121303 (min)

 * 5 distinct bonds (by element types)

   Z      Z             #   av. dist./Å        max./Å        min./Å
   1 H    6 C           8     1.0925689     1.1049441     1.0707242
   6 C    6 C           2     1.5054417     1.5350854     1.4757979
   1 H    7 N           2     1.0128623     1.0135944     1.0121303
   6 C    7 N           1     1.4495874     1.4495874     1.4495874
   6 C    8 O           2     1.4124721     1.4250308     1.3999133

           -------------------------------------------------
          |               Frequency Printout                |
           -------------------------------------------------
 projected vibrational frequencies (cm⁻¹)
eigval :       -0.00    -0.00     0.00     0.00     0.00     0.00
eigval :       98.00   146.89   199.02   280.81   302.07   340.11
eigval :      371.72   422.12   499.25   545.34   817.72   832.87
eigval :      875.38   936.87   960.20   972.50  1069.81  1098.27
eigval :     1117.49  1126.77  1156.96  1227.61  1253.60  1283.23
eigval :     1325.27  1340.40  1354.46  1389.21  1434.27  1448.59
eigval :     1464.44  1538.37  2783.09  2823.33  2838.04  2844.64
eigval :     2957.09  2994.63  3140.45  3186.28  3391.56  3434.81
 reduced masses (amu)
   1: 10.56   2: 11.78   3: 11.90   4:  9.58   5: 11.21   6: 11.34   7:  8.10   8:  8.26
   9: 11.05  10:  5.18  11:  7.05  12:  2.14  13:  7.48  14:  8.79  15:  3.91  16:  7.60
  17:  3.63  18:  6.85  19:  7.19  20:  8.87  21:  5.28  22:  6.63  23:  6.83  24: 10.26
  25:  9.96  26:  8.78  27:  5.54  28:  4.04  29:  2.71  30:  3.35  31:  2.89  32:  3.77
  33:  3.92  34:  2.80  35:  1.90  36:  1.88  37:  1.86  38:  2.16  39:  1.78  40:  1.72
  41:  1.70  42:  1.59  43:  1.71  44:  1.71  45:  1.43  46:  2.15  47:  1.51  48:  2.09
 IR intensities (km·mol⁻¹)
   1:  1.53   2:  0.20   3:  0.79   4:  0.53   5:  0.80   6:  0.71   7:  0.15   8:  6.45
   9: 14.63  10: 19.32  11:  7.12  12:  8.15  13: 13.25  14:  2.53  15: 10.83  16: 12.21
  17: 28.28  18: 28.57  19: 36.17  20: 17.50  21:  8.62  22: 29.26  23: 14.39  24: 26.56
  25: 21.49  26: 14.81  27:  1.37  28: 21.91  29: 12.81  30: 10.51  31: 10.52  32: 16.69
  33:  7.82  34:  0.93  35:  0.40  36:  0.30  37:  0.87  38: 27.31  39: 44.09  40:122.00
  41: 61.40  42: 81.55  43: 39.29  44: 26.36  45: 18.14  46: 39.25  47:  6.11  48:  3.14
 Raman intensities (amu)
   1:  0.00   2:  0.00   3:  0.00   4:  0.00   5:  0.00   6:  0.00   7:  0.00   8:  0.00
   9:  0.00  10:  0.00  11:  0.00  12:  0.00  13:  0.00  14:  0.00  15:  0.00  16:  0.00
  17:  0.00  18:  0.00  19:  0.00  20:  0.00  21:  0.00  22:  0.00  23:  0.00  24:  0.00
  25:  0.00  26:  0.00  27:  0.00  28:  0.00  29:  0.00  30:  0.00  31:  0.00  32:  0.00
  33:  0.00  34:  0.00  35:  0.00  36:  0.00  37:  0.00  38:  0.00  39:  0.00  40:  0.00
  41:  0.00  42:  0.00  43:  0.00  44:  0.00  45:  0.00  46:  0.00  47:  0.00  48:  0.00
 output can be read by thermo (or use thermo option).
 writing <g98.out> molden fake output.
 recommended (thermochemical) frequency scaling factor: 1.0
           -------------------------------------------------
          |             Thermodynamic Functions             |
           -------------------------------------------------

Molecule has no symmetry elements
It seems to be the C1 point group
c1  symmetry found (for desy threshold:  0.10E+00) used in thermo

          ...................................................
          :                      SETUP                      :
          :.................................................:
          :  # frequencies                          42      :
          :  # imaginary freq.                       0      :
          :  linear?                             false      :
          :  only rotor calc.                    false      :
          :  symmetry                               c1      :
          :  rotational number                       1      :
          :  scaling factor                  1.0000000      :
          :  rotor cutoff                   50.0000000 cm⁻¹ :
          :  imag. cutoff                  -20.0000000 cm⁻¹ :
          :.................................................:

    mode    ω/cm⁻¹     T·S(HO)/kcal·mol⁻¹    T·S(FR)/kcal·mol⁻¹   T·S(vib)
   ------------------------------------------------------------------------
       1     98.00    -1.04165 ( 93.65%)    -0.85688 (  6.35%)    -1.02992
       2    146.89    -0.80861 ( 98.68%)    -0.73709 (  1.32%)    -0.80766
       3    199.02    -0.63867 ( 99.60%)    -0.64717 (  0.40%)    -0.63871
       4    280.81    -0.45579 ( 99.90%)    -0.54523 (  0.10%)    -0.45588
   ------------------------------------------------------------------------

   temp. (K)  partition function   enthalpy   heat capacity  entropy
                                   cal/mol     cal/K/mol   cal/K/mol   J/K/mol
 298.15  VIB   34.0                 2998.857     21.684     17.027
         ROT  0.145E+06              888.752      2.981     26.605
         INT  0.495E+07             3887.609     24.665     43.632
         TR   0.800E+27             1481.254      4.968     39.323
         TOT                        5368.8630    29.6329    82.9553   347.0851

       T/K    H(0)-H(T)+PV         H(T)/Eh          T*S/Eh         G(T)/Eh
   ------------------------------------------------------------------------
    298.15    0.855583E-02    0.144388E+00    0.394147E-01    0.104973E+00
   ------------------------------------------------------------------------

         :::::::::::::::::::::::::::::::::::::::::::::::::::::
         ::                  THERMODYNAMIC                  ::
         :::::::::::::::::::::::::::::::::::::::::::::::::::::
         :: total free energy         -20.431551058566 Eh   ::
         ::.................................................::
         :: total energy              -20.536524531088 Eh   ::
         :: zero point energy           0.135832393616 Eh   ::
         :: G(RRHO) w/o ZPVE           -0.030858921093 Eh   ::
         :: G(RRHO) contrib.            0.104973472522 Eh   ::
         :::::::::::::::::::::::::::::::::::::::::::::::::::::

optimized geometry written to: xtbopt.coord


           -------------------------------------------------
          | TOTAL ENERGY              -20.536524531088 Eh   |
          | TOTAL ENTHALPY            -20.392136309629 Eh   |
          | TOTAL FREE ENERGY         -20.431551058566 Eh   |
          | GRADIENT NORM               0.000687376364 Eh/α |
          | HOMO-LUMO GAP               8.511971349898 eV   |
           -------------------------------------------------

------------------------------------------------------------------------
 * finished run on 2022/10/12 at 03:15:58.419     
------------------------------------------------------------------------
 total:
 * wall-time:     0 d,  0 h,  0 min,  0.238 sec
 *  cpu-time:     0 d,  0 h,  0 min,  5.949 sec
 * ratio c/w:    25.014 speedup
 SCF:
 * wall-time:     0 d,  0 h,  0 min,  0.017 sec
 *  cpu-time:     0 d,  0 h,  0 min,  0.513 sec
 * ratio c/w:    29.713 speedup
 ANC optimizer:
 * wall-time:     0 d,  0 h,  0 min,  0.041 sec
 *  cpu-time:     0 d,  0 h,  0 min,  1.077 sec
 * ratio c/w:    26.595 speedup
 analytical hessian:
 * wall-time:     0 d,  0 h,  0 min,  0.100 sec
 *  cpu-time:     0 d,  0 h,  0 min,  2.577 sec
 * ratio c/w:    25.753 speedup

