16
 energy: -20.536524531087 gnorm: 0.000687453058 xtb: 6.5.1 (579679a)
c           -0.43427356855842       -1.24147314378332        0.24354742600727
c            1.52623394533126        0.11620758290523        0.27127257039586
c            1.01910499086782        1.39927401399084       -0.25269294665856
c           -1.48951947105106       -0.28552334277083       -0.33012741413272
h           -0.44926987668942       -1.17283539586942        1.34405404122629
h            1.48313409976694        0.10727185697965        1.37196741824890
h            0.86473792538653        1.50423741766810       -1.30816445940786
h           -1.33466986107872       -0.20345313002127       -1.40738912980376
h           -0.68853728476731       -2.26452046882535       -0.04854172587809
h            2.57665328906695       -0.05631468108342       -0.02496451942235
h            1.09082811151327        2.28217875266514        0.34879289443405
h           -2.48511891208270       -0.72709961105977       -0.15327823681444
o            0.86446426469874       -1.03854270233481       -0.23796711183655
n           -1.34664358866295        1.03692059117962        0.24609464574789
h           -1.51965752271314        1.02994541213581        1.24478921902425
h           -1.95328457722538        1.71363658513131       -0.19938226797266
