      -----------------------------------------------------------      
     |                   =====================                   |     
     |                           x T B                           |     
     |                   =====================                   |     
     |                         S. Grimme                         |     
     |          Mulliken Center for Theoretical Chemistry        |     
     |                    University of Bonn                     |     
      -----------------------------------------------------------      

   * xtb version 6.5.1 (579679a) compiled by 'ehlert@majestix' on 2022-07-11

   xtb is free software: you can redistribute it and/or modify it under
   the terms of the GNU Lesser General Public License as published by
   the Free Software Foundation, either version 3 of the License, or
   (at your option) any later version.
   
   xtb is distributed in the hope that it will be useful,
   but WITHOUT ANY WARRANTY; without even the implied warranty of
   MERCHANTABILITY or FITNESS FOR A PARTICULAR PURPOSE.  See the
   GNU Lesser General Public License for more details.
   
   Cite this work as:
   * C. Bannwarth, E. Caldeweyher, S. Ehlert, A. Hansen, P. Pracht,
     J. Seibert, S. Spicher, S. Grimme, WIREs Comput. Mol. Sci., 2020, 11,
     e01493. DOI: 10.1002/wcms.1493
   
   for GFN2-xTB:
   * C. Bannwarth, S. Ehlert and S. Grimme., J. Chem. Theory Comput., 2019,
     15, 1652-1671. DOI: 10.1021/acs.jctc.8b01176
   for GFN1-xTB:
   * S. Grimme, C. Bannwarth, P. Shushkov, J. Chem. Theory Comput., 2017,
     13, 1989-2009. DOI: 10.1021/acs.jctc.7b00118
   for GFN0-xTB:
   * P. Pracht, E. Caldeweyher, S. Ehlert, S. Grimme, ChemRxiv, 2019, preprint.
     DOI: 10.26434/chemrxiv.8326202.v1
   for GFN-FF:
   * S. Spicher and S. Grimme, Angew. Chem. Int. Ed., 2020, 59, 15665-15673.
     DOI: 10.1002/anie.202004239
   
   for ALPB and GBSA implicit solvation:
   * S. Ehlert, M. Stahn, S. Spicher, S. Grimme, J. Chem. Theory Comput.,
     2021, 17, 4250-4261. DOI: 10.1021/acs.jctc.1c00471
   
   for DFT-D4:
   * E. Caldeweyher, C. Bannwarth and S. Grimme, J. Chem. Phys., 2017,
     147, 034112. DOI: 10.1063/1.4993215
   * E. Caldeweyher, S. Ehlert, A. Hansen, H. Neugebauer, S. Spicher,
     C. Bannwarth and S. Grimme, J. Chem. Phys., 2019, 150, 154122.
     DOI: 10.1063/1.5090222
   * E. Caldeweyher, J.-M. Mewes, S. Ehlert and S. Grimme, Phys. Chem. Chem. Phys.
     2020, 22, 8499-8512. DOI: 10.1039/D0CP00502A
   
   for sTDA-xTB:
   * S. Grimme and C. Bannwarth, J. Chem. Phys., 2016, 145, 054103.
     DOI: 10.1063/1.4959605
   
   in the mass-spec context:
   * V. Asgeirsson, C. Bauer and S. Grimme, Chem. Sci., 2017, 8, 4879.
     DOI: 10.1039/c7sc00601b
   * J. Koopman and S. Grimme, ACS Omega 2019, 4, 12, 15120-15133.
     DOI: 10.1021/acsomega.9b02011
   
   for metadynamics refer to:
   * S. Grimme, J. Chem. Theory Comput., 2019, 155, 2847-2862
     DOI: 10.1021/acs.jctc.9b00143
   
   for SPH calculations refer to:
   * S. Spicher and S. Grimme, J. Chem. Theory Comput., 2021, 17, 1701-1714
     DOI: 10.1021/acs.jctc.0c01306
   
   with help from (in alphabetical order)
   P. Atkinson, C. Bannwarth, F. Bohle, G. Brandenburg, E. Caldeweyher
   M. Checinski, S. Dohm, S. Ehlert, S. Ehrlich, I. Gerasimov, C. Hölzer
   A. Katbashev, J. Koopman, C. Lavigne, S. Lehtola, F. März, M. Müller,
   F. Musil, H. Neugebauer, J. Pisarek, C. Plett, P. Pracht, F. Pultar,
   J. Seibert, P. Shushkov, S. Spicher, M. Stahn, M. Steiner, T. Strunk,
   J. Stückrath, T. Rose, and J. Unsleber
   
 * started run on 2022/11/03 at 00:49:15.949     

           -------------------------------------------------
          |                Calculation Setup                |
           -------------------------------------------------

          program call               : xtb cluster.xyz --gfn2 --ohess
          hostname                   : cn0272
          coordinate file            : cluster.xyz
          omp threads                :                     1

   ID    Z sym.   atoms
    1    1 H      1, 3, 5, 6, 8, 10-12, 14, 15, 17, 18, 20, 21, 23, 24, 26,
                  27, 29, 30, 32, 33, 35, 36, 38, 39, 41, 42, 44, 45, 47, 48,
                  50, 51, 53, 54, 56, 57, 59, 60, 62, 63, 65, 66, 68, 69, 71,
                  72, 74, 75, 77, 78, 80, 81, 83, 84, 86, 87, 89, 90, 92, 93,
                  95, 96, 98, 99, 101, 102, 104, 105, 107, 108, 110, 111,
                  113, 114, 116, 117, 119, 120, 122, 123, 125, 126, 128, 129,
                  131, 132, 134, 135, 137, 138, 140, 141, 143, 144, 146, 147,
                  149, 150, 152, 153, 155, 156, 158, 159, 161, 162, 164, 165,
                  167, 168, 170, 171, 173, 174, 176, 177, 179, 180, 182, 183,
                  185, 186, 188, 189, 191, 192, 194, 195, 197, 198, 200, 201,
                  203, 204, 206, 207, 209, 210, 212, 213, 215, 216, 218, 219,
                  221, 222, 224, 225, 227, 228, 230, 231, 233, 234, 236, 237,
                  239, 240, 242, 243, 245, 246, 248, 249, 251, 252, 254, 255,
                  257, 258, 260, 261, 263, 264, 266, 267, 269, 270, 272, 273,
                  275, 276, 278, 279, 281, 282, 284, 285, 287, 288, 290, 291,
                  293, 294, 296, 297, 299, 300, 302, 303, 305, 306, 308, 309,
                  311, 312, 314, 315, 317, 318, 320, 321, 323, 324, 326, 327,
                  329, 330, 332, 333, 335, 336, 338, 339, 341, 342, 344, 345,
                  347, 348, 350, 351, 353, 354, 356, 357, 359, 360, 362, 363,
                  365, 366, 368, 369, 371, 372, 374, 375, 377, 378, 380, 381,
                  383, 384, 386, 387, 389, 390, 392, 393, 395, 396, 398, 399,
                  401, 402, 404, 405, 407, 408, 410, 411, 413, 414, 416, 417,
                  419, 420, 422, 423, 425, 426, 428, 429, 431, 432, 434, 435,
                  437, 438, 440, 441, 443, 444, 446, 447, 449, 450, 452, 453,
                  455, 456, 458, 459, 461, 462, 464, 465, 467, 468, 470, 471,
                  473, 474, 476, 477, 479, 480, 482, 483, 485, 486, 488, 489,
                  491, 492, 494, 495, 497, 498, 500, 501, 503, 504, 506, 507,
                  509, 510, 512, 513, 515, 516, 518, 519, 521, 522, 524, 525,
                  527, 528, 530, 531, 533, 534, 536, 537, 539, 540, 542, 543,
                  545, 546, 548, 549, 551, 552, 554, 555, 557, 558, 560, 561,
                  563, 564, 566, 567, 569, 570, 572, 573, 575, 576, 578, 579,
                  581, 582, 584, 585, 587, 588, 590, 591, 593, 594, 596, 597,
                  599, 600, 602, 603, 605, 606, 608, 609, 611, 612
    2    6 C      2, 4
    3    8 O      7, 13, 16, 19, 22, 25, 28, 31, 34, 37, 40, 43, 46, 49, 52,
                  55, 58, 61, 64, 67, 70, 73, 76, 79, 82, 85, 88, 91, 94, 97,
                  100, 103, 106, 109, 112, 115, 118, 121, 124, 127, 130, 133,
                  136, 139, 142, 145, 148, 151, 154, 157, 160, 163, 166, 169,
                  172, 175, 178, 181, 184, 187, 190, 193, 196, 199, 202, 205,
                  208, 211, 214, 217, 220, 223, 226, 229, 232, 235, 238, 241,
                  244, 247, 250, 253, 256, 259, 262, 265, 268, 271, 274, 277,
                  280, 283, 286, 289, 292, 295, 298, 301, 304, 307, 310, 313,
                  316, 319, 322, 325, 328, 331, 334, 337, 340, 343, 346, 349,
                  352, 355, 358, 361, 364, 367, 370, 373, 376, 379, 382, 385,
                  388, 391, 394, 397, 400, 403, 406, 409, 412, 415, 418, 421,
                  424, 427, 430, 433, 436, 439, 442, 445, 448, 451, 454, 457,
                  460, 463, 466, 469, 472, 475, 478, 481, 484, 487, 490, 493,
                  496, 499, 502, 505, 508, 511, 514, 517, 520, 523, 526, 529,
                  532, 535, 538, 541, 544, 547, 550, 553, 556, 559, 562, 565,
                  568, 571, 574, 577, 580, 583, 586, 589, 592, 595, 598, 601,
                  604, 607, 610
    4    7 N      9

molecular fragmentation (1/2 indicates fragments):
111111111111222222222222222222222222222222222222222222222222222222222222
222222222222222222222222222222222222222222222222222222222222222222222222
222222222222222222222222222222222222222222222222222222222222222222222222
222222222222222222222222222222222222222222222222222222222222222222222222
222222222222222222222222222222222222222222222222222222222222222222222222
222222222222222222222222222222222222222222222222222222222222222222222222
222222222222222222222222222222222222222222222222222222222222222222222222
222222222222222222222222222222222222222222222222222222222222222222222222
222222222222222222222222222222222222
# atoms in fragment 1/2:    12   600
 fragment masses (1/2) :       62.09     3603.06
CMA distance (Bohr)    :   2.497
constraining FC (au)   :  0.0500

           -------------------------------------------------
          |                 G F N 2 - x T B                 |
           -------------------------------------------------

        Reference                      10.1021/acs.jctc.8b01176
      * Hamiltonian:
        H0-scaling (s, p, d)           1.850000    2.230000    2.230000
        zeta-weighting                 0.500000
      * Dispersion:
        s8                             2.700000
        a1                             0.520000
        a2                             5.000000
        s9                             5.000000
      * Repulsion:
        kExp                           1.500000    1.000000
        rExp                           1.000000
      * Coulomb:
        alpha                          2.000000
        third order                    shell-resolved
        anisotropic                    true
        a3                             3.000000
        a5                             4.000000
        cn-shift                       1.200000
        cn-exp                         4.000000
        max-rad                        5.000000


          ...................................................
          :                      SETUP                      :
          :.................................................:
          :  # basis functions                1224          :
          :  # atomic orbitals                1224          :
          :  # shells                          816          :
          :  # electrons                      1626          :
          :  max. iterations                   250          :
          :  Hamiltonian                  GFN2-xTB          :
          :  restarted?                      false          :
          :  GBSA solvation                  false          :
          :  PC potential                    false          :
          :  electronic temp.          300.0000000     K    :
          :  accuracy                    1.0000000          :
          :  -> integral cutoff          0.2500000E+02      :
          :  -> integral neglect         0.1000000E-07      :
          :  -> SCF convergence          0.1000000E-05 Eh   :
          :  -> wf. convergence          0.1000000E-03 e    :
          :  Broyden damping             0.4000000          :
          ...................................................

 iter      E             dE          RMSdq      gap      omega  full diag
   1  -1039.6240443 -0.103962E+04  0.406E+00    7.94       0.0  T
   2  -1039.7439508 -0.119906E+00  0.241E+00    8.10       1.0  T
   3  -1039.7691469 -0.251961E-01  0.232E-01    7.83       1.0  T
   4  -1039.7733905 -0.424365E-02  0.910E-02    7.85       1.0  T
   5  -1039.7739184 -0.527802E-03  0.296E-02    7.89       1.0  T
   6  -1039.7739487 -0.303897E-04  0.135E-02    7.89       1.0  T
   7  -1039.7739538 -0.503023E-05  0.195E-03    7.90       2.1  T
   8  -1039.7739542 -0.461692E-06  0.643E-04    7.90       6.3  T
   9  -1039.7739543 -0.204259E-07  0.204E-04    7.90      19.8  T

   *** convergence criteria satisfied after 9 iterations ***

         #    Occupation            Energy/Eh            Energy/eV
      -------------------------------------------------------------
         1        2.0000           -0.7444974             -20.2588
       ...           ...                  ...                  ...
       807        2.0000           -0.4625920             -12.5878
       808        2.0000           -0.4617673             -12.5653
       809        2.0000           -0.4614934             -12.5579
       810        2.0000           -0.4603662             -12.5272
       811        2.0000           -0.4592246             -12.4961
       812        2.0000           -0.4584210             -12.4743
       813        2.0000           -0.4467610             -12.1570 (HOMO)
       814                         -0.1565852              -4.2609 (LUMO)
       815                         -0.1455086              -3.9595
       816                         -0.1308106              -3.5595
       817                         -0.1250832              -3.4037
       818                         -0.1216764              -3.3110
       ...                                ...                  ...
      1224                          0.3604594               9.8086
      -------------------------------------------------------------
                  HL-Gap            0.2901758 Eh            7.8961 eV
             Fermi-level           -0.3016731 Eh           -8.2089 eV

 SCC (total)                   0 d,  0 h,  0 min, 17.062 sec
 SCC setup                      ...        0 min,  0.036 sec (  0.208%)
 Dispersion                     ...        0 min,  0.089 sec (  0.520%)
 classical contributions        ...        0 min,  0.021 sec (  0.121%)
 integral evaluation            ...        0 min,  0.724 sec (  4.242%)
 iterations                     ...        0 min,  6.489 sec ( 38.030%)
 molecular gradient             ...        0 min,  9.630 sec ( 56.442%)
 printout                       ...        0 min,  0.074 sec (  0.436%)

         :::::::::::::::::::::::::::::::::::::::::::::::::::::
         ::                     SUMMARY                     ::
         :::::::::::::::::::::::::::::::::::::::::::::::::::::
         :: total energy           -1033.438658834391 Eh    ::
         :: gradient norm              0.000534311260 Eh/a0 ::
         :: HOMO-LUMO gap              7.896085145769 eV    ::
         ::.................................................::
         :: SCC energy             -1039.773954252129 Eh    ::
         :: -> isotropic ES            5.741294385218 Eh    ::
         :: -> anisotropic ES         -1.300031610192 Eh    ::
         :: -> anisotropic XC         -0.098374532856 Eh    ::
         :: -> dispersion             -0.627639785393 Eh    ::
         :: repulsion energy           6.214266792567 Eh    ::
         :: add. restraining           0.000000000000 Eh    ::
         :: total charge               1.000000000000 e     ::
         :::::::::::::::::::::::::::::::::::::::::::::::::::::

      ----------------------------------------------------------- 
     |                       L-ANC optimizer                     |
      ----------------------------------------------------------- 
          low memory version by Sebastian Ehlert

          ...................................................
          :                      SETUP                      :
          :.................................................:
          :   energy convergence        0.5000000E-05 Eh    :
          :   grad. convergence         0.1000000E-02 Eh/a0 :
          :   optimization log               true           :
          :   writing optlog all                1     steps :
          :   Hessian reset                    20     steps :
          :   maximium step len.        1.0000000     a0    :
          :   LBFGS images                     20           :
          ...................................................
 * calculating model hessian...
Using Lindh-Hessian (1995)
 Shifting diagonal of input Hessian by   1.032670114887878E-002
 Lowest  eigenvalues of input Hessian
    0.010000    0.010112    0.010146    0.010326    0.000000    0.000000
    0.000000    0.000000    0.000000    0.000000    0.010329    0.010359
    0.010368    0.010422    0.010452    0.010476    0.010499    0.010513
 Highest eigenvalues
    1.441259    1.456455    1.456769    1.463678    1.475603    1.518684
 

........................................................................
.............................. CYCLE    1 ..............................
........................................................................
   1  -1039.7738338 -0.103977E+04  0.229E-03    7.90       0.0  T
   2  -1039.7738339 -0.675004E-07  0.140E-03    7.90       2.9  T
   3  -1039.7738339 -0.235746E-07  0.142E-04    7.90      28.4  T
   4  -1039.7738339 -0.177624E-08  0.395E-05    7.90     102.2  T
     SCC iter.                  ...        0 min,  2.620 sec
     gradient                   ...        0 min,  9.446 sec
 * total energy  : -1033.4386552 Eh     change        0.3638702E-05 Eh
   gradient norm :     0.0009618 Eh/a0  converged?    E=F G=T D=F
   step length   :     0.0270328 a0

........................................................................
.............................. CYCLE    2 ..............................
........................................................................
   1  -1039.7738979 -0.103977E+04  0.152E-03    7.90       0.0  T
   2  -1039.7738980 -0.302707E-07  0.924E-04    7.90       4.4  T
   3  -1039.7738980 -0.110165E-07  0.939E-05    7.90      43.1  T
     SCC iter.                  ...        0 min,  2.023 sec
     gradient                   ...        0 min,  9.500 sec
 * total energy  : -1033.4386608 Eh     change       -0.5568197E-05 Eh
   gradient norm :     0.0002112 Eh/a0  converged?    E=F G=T D=F
   step length   :     0.0167947 a0

........................................................................
.............................. CYCLE    3 ..............................
........................................................................
   1  -1039.7739467 -0.103977E+04  0.856E-04    7.90       0.0  T
   2  -1039.7739467 -0.100370E-07  0.520E-04    7.90       7.8  T
   3  -1039.7739467 -0.330988E-08  0.564E-05    7.90      71.6  T
     SCC iter.                  ...        0 min,  2.009 sec
     gradient                   ...        0 min,  9.611 sec
 * total energy  : -1033.4386602 Eh     change        0.5187665E-06 Eh
   gradient norm :     0.0003638 Eh/a0  converged?    E=F G=T D=F
   step length   :     0.0108215 a0

........................................................................
.............................. CYCLE    4 ..............................
........................................................................
   1  -1039.7739472 -0.103977E+04  0.558E-04    7.90       0.0  T
   2  -1039.7739472 -0.415048E-08  0.339E-04    7.90      11.9  T
   3  -1039.7739472 -0.144223E-08  0.359E-05    7.90     112.6  T
     SCC iter.                  ...        0 min,  2.006 sec
     gradient                   ...        0 min,  9.610 sec
 * total energy  : -1033.4386612 Eh     change       -0.9125326E-06 Eh
   gradient norm :     0.0000781 Eh/a0  converged?    E=T G=T D=F
   step length   :     0.0069032 a0

   *** GEOMETRY OPTIMIZATION CONVERGED AFTER 4 CYCLES ***

------------------------------------------------------------------------
 total energy gain   :        -0.0000023 Eh       -0.0015 kcal/mol
 total RMSD          :         0.0005929 a0        0.0003 Å
 total power (kW/mol):        -0.0015249 (step)   -0.0001 (real)
------------------------------------------------------------------------

 L-ANCopt (total)              0 d,  0 h,  0 min, 56.783 sec
 setup                          ...        0 min,  0.023 sec (  0.040%)
 model hessian                  ...        0 min,  4.595 sec (  8.092%)
 ANC generation                 ...        0 min,  1.644 sec (  2.895%)
 coordinate transformation      ...        0 min,  0.026 sec (  0.045%)
 Rational function              ...        0 min,  0.003 sec (  0.005%)
 singlepoint calculation        ...        0 min, 50.460 sec ( 88.866%)
 optimization log               ...        0 min,  0.028 sec (  0.050%)
 hessian update                 ...        0 min,  0.000 sec (  0.000%)

================
 final structure:
================
612
 xtb: 6.5.1 (579679a)
H           -1.50607399029310        0.61976642605872       -0.59017720045451
C           -0.66544976296035        1.17960722298875       -0.99881266549094
H           -0.72494734094709        1.15754390928522       -2.08466893957169
C            0.64624945091090        0.54480025337411       -0.56977619873869
H            1.45210516644065        1.09791420753166       -1.03724796799067
H            0.65440742363429       -0.48734129315621       -0.89972089071117
O           -0.73130200013291        2.52550175247110       -0.59737226169504
H           -0.87783034888162        2.55627210341287        0.37327778181056
N            0.80998839325768        0.63255646055191        0.88787713094133
H            1.12319584612356        1.59185898526054        1.14162131104949
H            1.50006113149794       -0.07356803772691        1.24796699307909
H           -0.09642637916217        0.44318490412008        1.36866998976728
O            5.59369559748399        6.01172552091122        1.69552794714103
H            5.27339324427579        6.91162178438255        1.74088899202213
H            5.91552495746022        5.76653202997736        2.59210994767709
O            1.12296434177358        3.53958228746352       -2.87171087194751
H            0.75506014489794        4.06198897069880       -2.13617369235405
H            1.77419594993947        2.95282381927998       -2.46013512842611
O            9.98857096478040        4.16420399271681       -1.68519755564646
H            9.36296729290722        3.85758272277878       -2.36369953876901
H            9.55071205935391        4.89007531982095       -1.23540994045051
O           -4.84817905128295        0.36177586620071        2.83927123363842
H           -5.77354222464990        0.66195610428706        2.71654867014380
H           -4.35596232347754        0.73824222027339        2.08028591364296
O           -4.19069172393734        4.50043686461572       -0.40403994437973
H           -4.86694844515061        3.97688291937858        0.07273388234056
H           -4.51026262467387        4.51721433405998       -1.32496779850975
O           -1.27233824770995       -3.52697737713101       -4.24438910555158
H           -0.51005869820997       -3.25722837278296       -4.78527944875740
H           -0.91322395074723       -3.78997961861804       -3.38043532808745
O            3.79133614721360        0.95457761999402        0.79881752172448
H            4.13998465727470        0.03546530136219        0.90677289293918
H            3.70320083709119        1.26083331190345        1.72614122042199
O            7.49337967544377        5.62263024686155       -0.25413642261126
H            6.81700576696963        5.85292851530635        0.40498165832778
H            7.78563110875694        4.72432720736607        0.00570879402298
O            2.29147394305174       -1.35201700891128        1.82205126205703
H            2.54249907994013       -1.32744746679440        2.76100408527572
H            3.09827664258039       -1.63324847998227        1.36930547077716
O            0.52467950036883       -1.54362737979893       -2.95980260364933
H           -0.00935371729524       -2.17703503262154       -2.47123872860744
H            1.34655171025031       -2.00129724759897       -3.20914370279218
O            5.53905592465622        3.07285779978242       -2.36720484398567
H            6.24520740456954        2.53827465489310       -2.78903955683672
H            5.81424075169370        4.01594714094881       -2.43394968683987
O            8.07857465781219        3.66820787013496       -3.56819651188222
H            7.66125901289436        4.52951516516333       -3.47087763448115
H            7.76664339876865        3.30979191700798       -4.42059100562220
O           -1.57134406751922        0.05335014164163        2.07282891420975
H           -2.15615040044690        0.71408451849126        1.64159330863614
H           -1.53231208982735        0.33640389587584        3.01075317957232
O           -1.42889509825798        1.05293430690352        4.61592278812192
H           -2.05156616414548        0.81435385789468        5.33166678840981
H           -1.67083100298383        1.98355857965622        4.42613661666746
O           -2.45664561625574        3.45402959668504        4.39681871196335
H           -3.20242352957044        3.36860412126512        3.78049416013915
H           -2.11215437384917        4.34035799945501        4.28509289525112
O            2.49598359261353       -0.86563201647006       -5.42258518770737
H            3.28223840732339       -1.09380295628126       -4.90243530229403
H            2.81197047836283       -0.34634331769735       -6.18774617213180
O           -2.01984828160320       -6.54460327589752        5.21822529519087
H           -2.04150027849522       -6.52955443126760        4.24783356809048
H           -2.66242071639903       -5.88794583365221        5.51786988443285
O            1.63885404416052       -3.92000202883468        2.98047179846299
H            1.27768811101513       -4.80811353476467        2.89466967214194
H            2.30897206843488       -3.83140976282188        2.26669121595540
O            1.97579285191523       -1.85988509613027        6.30395699197102
H            1.34124551952607       -2.10240215243137        6.98169024715868
H            1.44246706839075       -1.48166293222194        5.58121587288023
O            0.31971589390780        0.50906849048285        6.69186974730598
H           -0.08994201383965       -0.33052940875618        6.95640517381051
H           -0.19690457903844        0.82516373664887        5.92994381916604
O            3.70195711546344        1.19433531649682        3.38087968142573
H            3.87601328232738        0.30051692522835        3.72723327294342
H            4.16484456462897        1.82963324706141        3.95839982095253
O           -2.05231746684329        4.06218484169596       -2.27703273069838
H           -2.81963246772438        3.47078483191557       -2.14678851937550
H           -1.37136828689190        3.64635785338080       -1.71088367990395
O           -4.31341899722519        3.55242225344441        2.51285763124769
H           -4.24835164064130        4.52392240401942        2.44439704013919
H           -5.16655240476717        3.32216171825113        2.11135340045554
O           -2.97786681588329       -1.94874164873470        0.97050214544986
H           -2.44840409491445       -1.26216419989884        1.41511000153237
H           -2.41442170278010       -2.34136307631184        0.28131597626419
O            1.52989021345287       -2.74802680838767       -0.44194648922008
H            2.18301260743546       -3.30541462226752        0.00996925364310
H            0.89696971250084       -2.50004780716517        0.26075917796094
O            6.99064139892732        0.99526931131802       -3.22224390323478
H            7.51791510208118        0.84540369415586       -4.03151200090070
H            6.28179371879788        0.33066056657187       -3.25332902042557
O           -3.43147959520302        1.55829389050800        0.90856314279987
H           -3.49202401041777        2.39886313123562        1.39637959213916
H           -3.57504780181266        1.77357927683858       -0.03576343395908
O            3.13432121588583        2.68855840807593       -1.19451143043170
H            3.96748497574392        2.76436078129013       -1.68523017768610
H            3.29894518054470        2.09544156860536       -0.44517084670348
O            2.92192165369818        0.87552828181259        6.00218009898792
H            2.90206534319934        1.82672808546736        6.17818922979166
H            2.05593104124445        0.54432287775902        6.29573044583598
O           -2.52877870220201       -3.82713618824106        3.30292202982472
H           -2.97895997353058       -4.10838221590718        2.48159957399033
H           -3.06318943890484       -4.16115788446067        4.05224033963567
O           -1.90416461113849        1.27564730009374       -7.85160072663743
H           -0.97623576003833        1.34602516040698       -8.10494698838567
H           -2.02418355221469        0.34802759932041       -7.61815980798088
O            3.40650769008916        5.14561383274170       -0.09857488821639
H            3.55406541898011        5.70853460120144       -0.88110124243771
H            3.18833771171642        4.26165281976343       -0.45432648202492
O           -1.18367367389697        3.97842375814390       -4.76588241977705
H           -1.48351692492179        4.02288960155470       -3.82772908570768
H           -0.44480631405607        3.33912239015410       -4.79367814757502
O            8.25704913569797       -4.28633716219323       -3.56846024180153
H            7.92276369782435       -3.38687651427358       -3.78235764493403
H            9.22673636909248       -4.18023658028020       -3.47757700447450
O           -1.24023863281427       -4.61119485575946        0.50407950305473
H           -1.00545078135761       -3.82858374445565        1.04194707145276
H           -1.44467836171809       -4.26647525719800       -0.37198915754146
O           -9.47853305655861       -3.36557082763823        1.98972118661741
H           -9.49590490526409       -2.82756813174832        1.17791096519301
H           -8.98463262216473       -4.16949384969343        1.74208539445972
O           -9.53742453810590       -4.17241744792189       -1.30537959600834
H          -10.45165642216693       -4.10092066867430       -1.59056029701237
H           -9.30149727165860       -3.26815272035080       -1.02886670629125
O           -0.36151245168835       -3.65362636709131        4.88929711698802
H            0.04848839195497       -4.51643272305351        5.09170420577595
H           -1.08942785126237       -3.82906736722420        4.26986514970379
O            0.44038909726456        4.89681821833633       -0.61370697197683
H            0.73038502805316        5.80736122320285       -0.42343805394858
H            0.96250880841844        4.29236545643547       -0.05489387709979
O           -0.13720447776286        6.46458532912933       -4.02691918593653
H           -0.48453808678601        5.66073961429941       -4.45019025534836
H           -0.83420585889318        6.72598115599524       -3.40359112680472
O           -7.19349062546295       -1.32850694744444        1.36812446801411
H           -6.85287124946400       -0.45019473521600        1.11297808402710
H           -7.33984229224493       -1.37900275911504        2.32569001293893
O            8.22393175317147        3.34856367998718        4.26980002923412
H            8.01782387468272        2.88748228916199        5.08847426423146
H            7.61012822249844        2.96557696112213        3.60245640375872
O           -3.31728425005402       -6.53508702687038       -0.44614269752481
H           -3.42269071559439       -7.25654385507366        0.20890024538348
H           -2.48783645212481       -6.69586856532506       -0.95239330849834
O            4.12637032447569        3.71118911365302        2.14939843954008
H            4.42033218654134        4.39943583238733        1.52800372951024
H            3.91665902316790        4.17635180635054        2.97771185195805
O            4.65951095877192       -0.43900348025229       -3.72976007425439
H            4.24502726730865       -0.71795331285261       -2.89301185816679
H            4.35842027070634        0.47492791029349       -3.91135970934865
O            0.59964664765660       -6.13245915432770        5.26995749433831
H            0.79980968129896       -6.50661245286400        4.39947188940069
H           -0.31898515480407       -6.41781402386150        5.46631666626847
O           -3.82682818698439       -4.42774110661892        5.56494699846514
H           -4.75348327393900       -4.44814447915358        5.27470299629907
H           -3.72168376589404       -3.61450077850708        6.09410118363826
O            4.45051219941262       -3.62141457417657       -1.51688149822313
H            5.41550416478061       -3.52870354166862       -1.50636596411144
H            4.17844558473108       -3.67123437270229       -0.58884001508927
O            2.36433751125384        5.21069648625536       -4.42147593037553
H            1.90650645151989        4.53194935739737       -3.84371577459926
H            1.68512930876483        5.88334477551287       -4.55658657741447
O            6.13881551004786        1.55331953021031       -0.22437705010713
H            6.01798950404998        2.22960991515492       -0.91146148185329
H            5.29205460835409        1.48618555103435        0.26038118364476
O            0.80216151715640        0.71146192944169       -7.64906395554578
H            1.73554717031528        0.65397036340943       -7.87875283113827
H            0.76220794759076        1.15054477641984       -6.78234267879022
O           -1.90965679812213       -2.67302762926205       -1.43312372713048
H           -2.67160752621905       -3.13496553405846       -1.81410543444593
H           -1.97496285950855       -1.76276200261814       -1.78613038060702
O           -0.87489128564619       -1.35411905437672       -7.03204544737006
H           -0.21969839407062       -0.73617370450818       -7.40396382049977
H           -0.36236348983956       -2.13622077632728       -6.76106351061787
O            3.48066595100907        5.43282731537835        4.24420240094823
H            3.15499443776686        4.98196805475398        5.03815518467846
H            4.35891864056257        5.76253661548318        4.46164105596899
O           -2.73857815200127        3.82406275596908       -7.02327346894542
H           -2.43681529788050        2.98553816168046       -7.40195004637879
H           -2.05915277181517        4.08556164755048       -6.38359355023109
O            3.16339311594970       -0.81580458480809       -1.51668577816366
H            2.63290030200932       -1.57159217876251       -1.21019279259356
H            3.44827709071122       -0.33054572405986       -0.74123503909686
O           -3.04120274382882        0.88400434852819        6.72192280781378
H           -3.81395420580480        1.23605952050593        6.23795436881514
H           -3.24643971112160       -0.03597973915356        6.94378246080136
O            4.99754044599495        2.98161782799305        4.91941092858713
H            4.34387035735205        3.19367179431733        5.60258645662415
H            5.69073076497807        2.41519559745126        5.32516255347677
O            2.17145945484215        0.90655757866000       -3.39484811770277
H            2.11898943144910        0.28506333290059       -4.13988603310569
H            2.36166352309558        0.33608543569162       -2.63686793983528
O           -3.61588156612174       -4.49505589798719       -6.09803677883156
H           -3.31109426276073       -3.82602073351560       -6.71347166441899
H           -4.42114397451791       -4.13726034026072       -5.68315973556865
O           -1.01175688274907       -0.18361832834202       -4.66892176724652
H           -0.46136999378054       -0.69722621706576       -4.03932358473622
H           -1.05856357093519       -0.69620345965650       -5.50834214672652
O            1.83168902634109       -5.58106073268798       -3.94089841891024
H            2.54428346215266       -5.96967078567443       -4.50535172757266
H            1.00502809774255       -5.77011372731351       -4.44363278886743
O            9.12926408052568       -4.86355014518765        0.72520687172540
H            9.03409611269988       -5.58187323011353        1.35390584770280
H            8.49845883429196       -4.17391517092822        1.00644424776127
O            1.27120904453217       -5.48030216794282        0.44246993329250
H            0.32751899811061       -5.26853892877623        0.29360139678901
H            1.62617659373269       -5.91085955065099       -0.35197295686022
O           -7.36024228278729        1.21625178779129        2.58205736049705
H           -7.37130804909625        2.18524959395373        2.72406829682341
H           -8.04953383503679        0.86177247347668        3.17914807549902
O           10.16220556022079        3.45868960769268        2.35977867428744
H            9.46537095768081        3.51046201557395        1.66097431434285
H            9.68865747352880        3.64225983317969        3.18581583081279
O            8.13772834076094        0.41349269099187       -5.57616348093727
H            7.38357055991724       -0.08920023690864       -5.93277190080413
H            8.04482958737417        1.30137296669037       -5.94225179357854
O           11.58041105917130        2.75558058772637        0.03452852332885
H           11.36551528527613        3.15890331497365        0.88182040333844
H           11.06411169557599        3.24656463626987       -0.63235806494473
O           -2.74846820092895       -0.31669581387873       -2.44074461648896
H           -3.53857658308780       -0.60173787995382       -1.92941335121391
H           -2.85675271750621       -0.70465908615550       -3.32718110949891
O            5.19596808912623        4.97388795991913       -5.11394050440044
H            5.64124807214630        5.37059406522031       -4.35702984788363
H            4.26616035099525        5.20620229061542       -5.02958379030470
O            0.28036949008588       -1.19014898389130        4.20386618385071
H            0.23882950830809       -2.16242054039313        4.28043135131439
H           -0.61219390327674       -0.89567727282565        4.42922466112853
O           -9.22888486915178       -1.64837203049803       -0.22356678618584
H           -8.38674365645630       -1.55073630882465        0.28265648578726
H           -9.75166939029147       -0.88465909492478        0.07203421270185
O           -6.81643252457223        0.46110040564584       -5.71679362386772
H           -6.04086643875150        0.66582261569026       -6.27049070163779
H           -6.42642027120449        0.06560403741387       -4.90156721378178
O            3.81385060476676       -6.64040636147987        1.09427068304007
H            4.71376410436700       -6.37946800059891        0.82225318083686
H            3.36442319247937       -6.92973599900466        0.29197210649654
O            6.16778640204555       -5.53434971395851        0.41783220159872
H            6.72653174805924       -5.74742518999509        1.19443647912438
H            6.60060368414845       -4.78264134159150       -0.03750678050526
O           -4.82564190257671        4.34136193306690        6.07817917729891
H           -4.70538072841817        3.48372426735898        5.61874880866270
H           -5.08074020245523        4.13988677441891        6.97803390172233
O            1.61808531863102        3.24099874656592        1.28346291172515
H            2.55195573203953        3.32994183771706        1.55687316996001
H            1.09697848304175        3.76462330867195        1.90752909689083
O           -6.30291260740898        5.65942040189705        4.17416946396877
H           -5.62407171993587        5.98937614046835        3.56387085609237
H           -5.81631120685934        5.27680304057477        4.92187343059834
O           -1.81903341883383        4.96878819258659        0.87528763033219
H           -2.62152273053116        4.71303984597323        0.39097016582936
H           -1.06722736180427        4.85422052431513        0.25956439668270
O            0.27526700117042        5.06228556191366        2.85759205020697
H            0.95827013663465        5.69333754361761        2.54870613686432
H           -0.50610313309935        5.59046628521238        3.09604460123460
O            4.81004592105303       -6.00513537067253        3.64838215034166
H            4.15621163587959       -5.68560669277834        4.30155529292493
H            4.31230524630841       -6.36077686848381        2.90250794413965
O            7.68326133902946       -2.75111970268423        1.67004312860841
H            8.39502779336720       -2.66018486814204        2.33515792447877
H            7.72448361109800       -1.92469511730090        1.16483456987741
O           -3.39836744950109       -1.88060179512016       -4.48632516848309
H           -2.68678279712876       -2.54602995675444       -4.41063489685832
H           -3.66081424470755       -1.87839777186685       -5.42408578803006
O           -9.42727015461577        0.84226208172574        0.74844451934030
H           -8.60875614454148        0.97247743453076        1.25082299418523
H          -10.00296174524249        1.58230027337381        0.98758656923142
O            3.58045193326146        0.67591746399415       -7.35207352882033
H            3.55549668818623        1.61691471481873       -7.13707405542749
H            4.47613893797837        0.35707366130271       -7.14378011051480
O           -4.58728404042398        3.87140318775992       -5.08652753276609
H           -4.04291960586563        4.02638019670436       -5.88474474860525
H           -4.23315806729395        3.05763085205790       -4.70176121635158
O            6.55450113762423       -1.97581585911458        5.18527192814147
H            5.75373951354159       -2.32491129687234        5.63621664267817
H            7.04853411416536       -1.49795878816869        5.85282571863880
O            4.43997637042605       -2.92892104316873        6.54877622028595
H            3.57724301234879       -2.49147354830861        6.65462053527614
H            4.20051440629651       -3.78526976451422        6.16096379611421
O           -0.45921529837585       -5.97701425770236       -5.21297891839740
H           -1.01606749812988       -6.73632101116902       -5.03979019626709
H           -0.99930236763183       -5.19036948452409       -5.01370141174477
O            4.47834255998978        2.03788890817943       -4.66936848563600
H            3.78471767625110        2.46157581563722       -5.21388706924745
H            4.61997274331745        2.61022037239485       -3.90036867765523
O            5.43644225752346       -6.65195826018198       -1.88712153807737
H            5.89174193304391       -7.48747824288632       -1.98695078645848
H            5.77702229482953       -6.23009372401135       -1.06657895209164
O            3.72469405371428       -1.45208133853723        4.03406802130331
H            3.37305208099955       -1.64839459784308        4.90552167548722
H            4.33482293725220       -2.16043019721898        3.77177743826207
O           -0.18856216636091       -2.45569833983992        1.63865290038281
H            0.47549855903629       -2.87198169911915        2.22594152391123
H           -0.49101364952965       -1.66649554958726        2.10010735739451
O            6.17110445213295       -0.34868622296936        3.02370087255862
H            6.30258705517327       -0.92089750929492        3.79838449103354
H            6.97856764358016       -0.38498150346344        2.47540363600147
O           11.20273621723868        0.18869956826920       -0.38765319815838
H           11.48017322893452        0.08476468160055       -1.30153057880608
H           11.32958909342078        1.15165929455460       -0.19869165602348
O           -5.97558576136717       -1.10437943542539        5.50456932657828
H           -6.55944411656112       -1.56284805326829        4.88952206837316
H           -6.49008391835882       -0.38304620702005        5.88123931043940
O           -3.60934835363830       -1.87071989597446        6.54347105092716
H           -4.54333995112409       -1.67182176481338        6.36076770239134
H           -3.16334324686118       -1.67408178600165        5.68018581781111
O           -9.27385061603257        0.95907688896956       -4.44547285942263
H           -9.29294692971095        1.93064585482342       -4.37484186667181
H           -8.59282770310105        0.73936880364498       -5.09291803101199
O           -4.03812038826595       -4.63835027416385        1.22599800312735
H           -3.59255015453793       -5.21668743639637        0.56914647312726
H           -4.64378857297886       -5.23018766241194        1.71898592963101
O           -1.27264289932093        3.36909997635209        7.04347266794208
H           -1.85831370202801        2.60407769660655        7.00359043207001
H           -0.70459559671175        3.32125879549257        6.25124660911270
O          -10.83624574269310        3.16366008440725        1.33372811527425
H          -10.16534959195615        3.80018280514268        1.04571823279204
H          -11.51001956554920        3.12489935135788        0.65025776332800
O           -4.63961027373098       -1.29543151425741       -0.92963374932010
H           -4.72103207927284       -2.15693517902873       -1.38160017580362
H           -4.11263215432113       -1.47492264720713       -0.11779917613126
O           -6.14072710048195        3.06593149601332        0.67131596060938
H           -7.00389527379392        3.50011587390286        0.56526973930629
H           -6.20952743348181        2.14921609585884        0.34373629738205
O           -4.99911596096883        1.82655621019283        5.12997944618165
H           -5.91771208050659        1.62678221862617        5.36253690330077
H           -4.82131043462499        1.36331113689599        4.28819220653613
O            8.08808018116817       -4.14525266372998        4.44405262396865
H            7.45702702406292       -3.44314297318273        4.68120392513274
H            8.90195248278514       -3.69695672218179        4.18989617834906
O            6.25378400442381       -0.92314319107582       -1.22506660615805
H            7.19894452167855       -1.10731791142764       -1.10538271415477
H            6.16704831372913        0.03152352853468       -1.02991439854964
O           -7.91217716016299       -5.21938858113666        0.72657412671775
H           -7.24715120898795       -4.51382546081540        0.50161753111426
H           -8.54764861150790       -5.20408878774847       -0.00042178044726
O            2.34359427220906        6.48181474804929        1.94093945752687
H            2.77136955061902        5.97266809463365        1.21305772966590
H            2.84343299489981        6.28843714150372        2.74580662467007
O           -3.01625771765599       -5.77430298440677       -3.76480798203994
H           -3.38121995718234       -5.08677416377293       -3.19525577494634
H           -3.15857089482072       -5.45664629252519       -4.67130061644914
O           -8.39825764534114        0.33209793697009       -2.01138739469569
H           -8.74927622131136        0.31512571073390       -2.92939461260771
H           -8.76722038038475       -0.44290504410896       -1.55576650724193
O           -9.43155540992584        0.44317891742051        4.09390041243906
H          -10.10572978859186       -0.06798466601730        3.59341344881034
H           -9.79679246615561        1.36880374597824        4.12714512088259
O           -8.07475177537497       -2.02372150673132        3.85279901467967
H           -8.64669022582950       -1.30266144081402        4.13981108536156
H           -8.62186166554915       -2.58256291343790        3.25772716862286
O           -6.17193788573862       -4.14355984980345        4.22242705814976
H           -7.02378086740956       -3.75945959591908        4.44100294825921
H           -5.72951696648288       -3.47473310019000        3.64480674872293
O           -4.37961484618853       -3.66105344313061       -2.29130742094264
H           -4.77658066530970       -3.51686168697672       -3.17263709322911
H           -4.89776367477094       -4.36382077251079       -1.86064489011576
O            9.78686528583952       -0.89209823474286       -3.66366893191426
H            9.16021813252815       -0.70411079541619       -4.37492422738784
H           10.28986707299406       -0.06693941890875       -3.53357174721416
O            0.22110450659703       -4.35902103948842       -2.08791991099709
H            0.87397730345632       -4.77804754505984       -2.66359074735863
H            0.72287800502182       -3.79697465402624       -1.45468630567118
O           -5.03714962770547       -2.33894835834290        2.68754134195174
H           -4.29135611739963       -2.49481858345212        2.08880463472656
H           -5.06685744746460       -1.37927652862970        2.83557255160368
O           11.80631717721807       -1.19666962254224        1.69601971385916
H           11.60154118687929       -0.71499306350443        0.84362356774633
H           12.75943125030837       -1.21933881991631        1.77597944157393
O           -3.78574555519844       -7.99552952491348        1.71977172904452
H           -3.00235326931408       -7.62582319979096        2.16131004371479
H           -4.55371638560397       -7.57508474895869        2.12510387602644
O           -4.43175340558896       -1.73462324681107       -6.96877067894235
H           -4.41826082007231       -0.76095658255113       -7.02496787620276
H           -5.34672446709023       -2.01246714703914       -7.04730985657580
O            0.63072526162004        7.50455848085304        0.04892746921672
H            1.32688253173542        7.46615073491405        0.71769193669812
H           -0.19781450737820        7.68864736692376        0.54770423189888
O            4.82124226404117       -1.44105726271673        0.93427482349703
H            5.40429561598865       -1.44840675477424        0.14530585026211
H            5.35087977395680       -1.23109415502796        1.72600803876882
O           -1.09475479079680        2.63614204366576        2.05129244975435
H           -1.26110825638365        3.58831489753775        2.06860766308543
H           -0.39358092237912        2.41555244715753        2.67258139598388
O            2.62353222165417        3.15157417739728       -6.23271180561857
H            1.77915854464814        2.75134641552707       -5.97197012371577
H            2.60718436604163        4.04028511028761       -5.84340016373688
O           -5.57977318096774        4.55024876893216       -2.70146091370971
H           -5.95550894292240        3.65949123146171       -2.76756636549426
H           -5.15702812492318        4.69534084315144       -3.56145889965755
O           -9.29995763681217        2.78517547048885       -1.47184394002033
H           -9.20175168444602        3.15044197990197       -2.36943240200689
H           -8.96346198862831        1.86344800486556       -1.49439609184135
O            8.77727028720744        1.35806396146974       -1.27165145334385
H            8.10580935347802        1.26440348214333       -1.97752413536861
H            9.00262242044422        0.46014319410195       -0.97804528989226
O           -4.18426950514021        6.23060898705192        2.52149987533883
H           -4.17452973475143        6.72202050695131        1.68914110826546
H           -3.32181578162695        6.36188335236146        2.95929229709097
O            7.17741575800292       -3.70002379425874       -1.22137117179931
H            7.78893849066488       -2.97370769369700       -1.02585869278028
H            7.56131460346205       -4.12705417514280       -2.01678153204159
O            1.18637025333303       -6.85110016396602        2.62156376031865
H            1.28278867043107       -6.38519443324124        1.74092789475060
H            1.80910977248496       -7.57678614932276        2.59771066058681
O            8.94892469386173       -0.02407089859718        4.72798369374630
H            9.56591066250448        0.20080382104981        5.42478331778673
H            9.26583173062211        0.43932469925369        3.91314115924248
O           -1.19863434051452       -6.70808235163782       -1.99799270597979
H           -1.78638570209873       -6.55274216947806       -2.75736104127398
H           -0.67552438222224       -5.89508166514955       -1.91744116319363
O            6.93896160250843       -1.97669190839570       -3.78982559466028
H            6.15825956079621       -2.29152593533384       -4.26753908704887
H            6.62093500261367       -1.71983010153814       -2.91128730413154
O           -7.57850102958041        1.15999526283670        5.96325493751297
H           -8.28099756387228        0.86231597737294        5.35896330440319
H           -7.98579318676660        1.80079155406020        6.54614553928866
O           10.82320050511392       -3.06705289553886       -0.27724295681927
H           11.24501134816275       -2.68032874001289        0.49838433006699
H           10.31194547516016       -3.83963662642400        0.03881660770478
O           10.75496522927211       -3.44801378209665       -3.11875018691374
H           10.94550225573892       -3.39385985622226       -2.17358978988477
H           10.58243292037264       -2.54209317307953       -3.42058305752012
O            2.72682599296505        3.66401537532334        6.32289651398229
H            1.89572671644820        3.61051099074517        5.78502594527821
H            2.38881738016653        3.49827365681880        7.22678440391088
O            9.74927865641313       -2.25277183072646        3.31273859732131
H           10.49163254925813       -1.92712924340863        2.78468973327357
H            9.44519347089391       -1.51412178856106        3.86873101685747
O           -5.89132435984222       -6.14817953736585        2.44187886093606
H           -6.70581570310744       -6.07767141327825        1.92722928181277
H           -6.02514192329279       -5.57161254853675        3.21921706320227
O          -11.06531708399535       -1.10292502833020        2.67487806701286
H          -10.78316212131218       -2.02159565627850        2.60983080701653
H          -11.27775883174094       -0.81428803954306        1.77151663275358
O           -6.34845284493804        0.58593606722585       -0.21863485172510
H           -7.08225369743859        0.49716300616145       -0.84268594420060
H           -5.65693978980078       -0.02959844614955       -0.53175941815669
O           -9.32418197250969       -1.88689471229947       -3.63423358650889
H          -10.09069413019423       -2.28151841436976       -3.21036752182950
H           -8.56924201907359       -2.04631103514519       -3.04293699376703
O            3.67669814229267        6.47786352284224       -2.40577991876515
H            3.07746772958803        7.25514152424600       -2.37089264351826
H            3.30074489039624        5.93890803168853       -3.12975971423301
O            0.88398151349296       -2.98146295458046       -5.80575344249958
H            1.45338816261406       -2.21744732287722       -5.58189759195227
H            1.46371808859775       -3.62261175569106       -6.23751174786875
O           -7.63839290737074       -2.14270895636345       -5.82713851621689
H           -8.37128569892861       -2.15289996882467       -5.18941719654911
H           -7.45359467744950       -1.20219436341004       -5.98205796140822
O          -10.10618567970652        2.95479556608577        4.02526517770015
H           -9.24373897332541        3.36437431046139        3.80138297816973
H          -10.64599361429044        3.06925290432618        3.23235261327925
O           -5.70223314235936       -5.86962008557852       -1.27487457289377
H           -4.81213708837006       -6.25718211564354       -1.10279210804039
H           -6.22213829827813       -6.03787785930681       -0.48397912715084
O           10.00166395796616        0.86943381599751        2.50422559088865
H           10.80336574232353        0.39310733883023        2.26082223853614
H           10.17135940769471        1.84647627225741        2.42334992131106
O           -1.87098756644699        6.71340653816923       -1.83797209391841
H           -1.11136551792150        6.80016884104471       -1.25553336597941
H           -2.01167336726863        5.75045073470406       -1.96402469949351
O          -11.77389365206167        1.69984715365920       -1.14450797254350
H          -10.90089658692057        2.13402186247068       -1.20211362332879
H          -11.89515401874985        1.27744304209333       -2.02095398549914
O           -5.66618614264043       -0.67235476901741       -3.60711192631837
H           -6.20649776636535       -1.30452044754141       -3.08989185778170
H           -4.88107698037881       -1.16286275227758       -3.90900565388959
O           -1.83896225754025        6.39616678728359        3.91909454220912
H           -2.03784349024248        6.23099764160446        4.88879286028177
H           -1.62663936325909        7.32533175823751        3.81896828036273
O            2.69657168711376       -6.63448917755863       -1.56183248208480
H            2.27044572044373       -6.43919406604385       -2.41270158376839
H            3.64841261207800       -6.57438953400499       -1.74760155780049
O            1.61945344955600        8.13446694030696       -2.46755375711847
H            1.20817127634002        8.07507531922512       -1.59227277209748
H            1.01955711500844        7.69675650163966       -3.08578883878977
O           -1.59336000106773       -6.52364013948156        2.47323111422079
H           -0.68297507803205       -6.84546229016079        2.51396816654546
H           -1.60544791001484       -5.85288726401111        1.76976360613951
O          -11.95413371363280       -0.59152968548095        0.08626349607371
H          -12.87974830713251       -0.59907754276382        0.33298197799599
H          -11.79976151681398        0.31287952911963       -0.31626752121043
O            2.98232098405256       -4.77476158664197        5.16951053286429
H            2.28820356155614       -5.31529732381609        5.56671499014569
H            2.52697422023515       -4.25875404347129        4.47157907648503
O            7.43115109042988       -6.07631155892754        2.71480724948838
H            7.73392581972875       -5.37566449560967        3.33158083482453
H            6.65860026514505       -6.44657443273250        3.15740059820054
O            2.77873735026737       -3.07490517245155       -3.47633282306037
H            3.34672539881147       -3.21843108654574       -2.68723520660868
H            2.41277072722428       -3.95004542988353       -3.71090151376140
O            5.70739524202361       -0.66869244795536       -6.24974127022219
H            5.64633911680443       -1.62206223525459       -6.36053751905388
H            5.42086668191938       -0.51344585508576       -5.33098869895137
O           -8.45098085129298        4.45539108039398        0.39946935723858
H           -7.99003602216384        5.21991372144798       -0.00427081128866
H           -8.75315409163550        3.89726442427284       -0.34905650124442
O           -9.01986002686146        3.64007558628500       -4.00320400352183
H           -9.57053583277187        4.34345008659331       -4.34367809192891
H           -8.21838265005839        3.59359021125403       -4.60404766942107
O            6.45584549740884        2.32329664574718        2.51073170848610
H            6.23015213218099        1.41350255016746        2.77543272670248
H            5.61001199495161        2.80371775583251        2.43103681767974
O            6.89633099204227        1.41028243192996        5.89369268271408
H            6.31214194207937        0.84703407372674        6.44156307246790
H            7.42487240726545        0.80654458856877        5.34784201916427
O           -7.53036334660094       -4.99198173174956       -3.04712778056222
H           -8.36050337982522       -4.93540998289357       -2.55130118456798
H           -6.90814147072788       -5.49927852368960       -2.49791695394424
O            0.51161652884335        3.41737528200306        4.95729392107208
H            0.43282018342781        4.09596222653101        4.26138408759583
H            0.68573657273953        2.56416153794045        4.48886828030076
O           -7.11095876650338        3.24354103982293       -5.66942835600637
H           -7.03858956278158        2.27754293514454       -5.72057274201991
H           -6.20421306844559        3.56955995105438       -5.49098441651778
O           -7.75744705940583        3.81599526888792        3.03717173165952
H           -7.21853124887583        4.50871683156095        3.49916738149007
H           -8.03526941701679        4.21073477332517        2.19915472343725
O          -11.66991410645833       -2.36400681383002       -1.98044177294865
H          -11.67010198172012       -1.77789986260357       -1.19215070058610
H          -12.58596620134184       -2.55850981533487       -2.17956715415314
O            3.51207267781075       -3.94196179723650        1.07702000250528
H            4.26024118571358       -3.65810982245165        1.65622052545563
H            3.51576203549329       -4.91843204884222        1.06082002411256
O            6.23632914211785        5.62337430117059       -2.55641612850496
H            5.40779883843505        6.11417045934340       -2.41278289667984
H            6.75397924395882        5.71088944548172       -1.71670303348069
O            5.90202457963621       -5.37379369779379       -4.26028027456116
H            6.84612819333033       -5.15345091895287       -4.16896509535185
H            5.63608510130484       -5.71440986536232       -3.38633744404370
O          -11.69604956270000        0.19943495354503       -3.36922841362498
H          -10.91635873705195        0.40728784994158       -3.90678882183763
H          -11.58227137927590       -0.71927136685894       -3.09755414580914
O            6.79350884848138        2.82167708764849       -5.82876038921887
H            6.46766261955536        3.70274313997374       -6.04489566802995
H            6.00632681312152        2.38235192606251       -5.44111611289730
O            1.15443059106105        2.69124763248789        8.24428663527951
H            0.95599011977609        1.81568700829721        7.87516770691060
H            0.31905140098150        3.17084181765984        8.15230526020115
O            7.94598132019454       -0.11003578662076        1.08827385203436
H            7.45614853889156        0.58581819447730        0.62230151472559
H            8.74696916925527        0.29455965381829        1.46522450017689
O            5.33844421801676       -3.44235408133114        2.91285365930394
H            5.35955455722895       -4.35385488893547        3.26093813395657
H            6.20672477865601       -3.26095258901300        2.50976945416185
O           -6.18698264897053        1.85543518730067       -2.89985767821854
H           -5.87011955205048        0.98544921674371       -3.21068824956236
H           -7.07407749850835        1.68014869274345       -2.57437690063562
O            8.22018176807080        3.20216634841737        0.60328719293037
H            8.44417218981047        2.56614605930004       -0.10974319509289
H            7.50856838432435        2.80911020031821        1.14244982950552
O           -4.08881467284060        7.12809177955900       -0.16523839248563
H           -4.17688561759665        6.14677097422231       -0.20335296422605
H           -3.46637941799018        7.31332104724382       -0.88472996387830
O           -2.45448308120418        5.71724347186491        6.33163284458345
H           -1.94250222058933        4.95591949384801        6.67347294592582
H           -3.35335993931102        5.36213624489546        6.22040258916477
O           -6.86473315683070        6.20073195452580       -0.87566446339939
H           -6.15990944494856        6.76705645925638       -0.54317099939757
H           -6.47932468503727        5.69595273160773       -1.61063939089448
O            0.45685551510942        1.90535291337641       -5.12822439261529
H           -0.15486004978539        1.13356115112697       -4.99444667347493
H            1.03038144856828        1.86172346550163       -4.33836482370688
O            1.09275147597089        1.35045808638085        3.48734269437932
H            2.07733411281692        1.33117196631151        3.49436023005170
H            0.81551146262719        0.47682716590616        3.79592216694010
O           -1.67305685200335        7.57252419101169        1.35493223862170
H           -2.43055417131974        7.92926036256589        0.88042376554340
H           -1.75650019763031        6.59000730795779        1.27007822419562
O           -4.42501957005769        0.98059093100864       -6.76427693670730
H           -4.05601824418094        1.45314287967510       -7.51381805730326
H           -3.86571967919898        1.23185710289035       -5.99004200757322
O           10.90928517083102        1.44545083690852       -2.91557518427439
H           10.17181169765943        1.62672425331837       -2.29332318453866
H           11.18380637937087        2.29643534090059       -3.25430424322523
O            3.13669612804714       -4.11195860020431       -7.01486260854564
H            3.36008791340234       -3.87672760289766       -7.91384960543158
H            3.78588339320834       -3.66882374609209       -6.41806873557775
O           -2.91530583475979        1.71420037188788       -4.67479094758476
H           -2.32043145158600        2.46031959404444       -4.86065746286227
H           -2.33329696559328        0.94486146404346       -4.53708845974016
O           -3.74870857062895        2.06505155282759       -1.71885079192123
H           -4.66114978912240        2.04449133851247       -2.04548285411295
H           -3.28347775814688        1.31134379863559       -2.13159345266581
O            6.25755986701661        5.24384257487863        4.17418251180586
H            7.19448682316499        5.01196173576005        4.23333787667119
H            5.80227170877978        4.39815896451379        4.38816237084325
O            8.87477366919290       -1.49267161910069       -1.21801523363294
H            9.12058727203100       -1.33207699201364       -2.15540395693831
H            9.63997747274446       -1.95705227853076       -0.82235311219857
O           -6.12351442563441       -3.39910191440201        0.16835931277944
H           -5.27752563597218       -3.77853184836966        0.49938661926207
H           -6.34296983011300       -2.65819189675416        0.76876941985638
O           -5.77437913153926       -3.61680043880192       -4.64406160789837
H           -6.31065470406435       -4.38333014716635       -4.41054101354396
H           -6.40068064169883       -3.01646410890928       -5.10966827911955
O           -7.08498719413606       -2.47914276938311       -2.19580116511356
H           -7.14470241633046       -3.34904155366932       -2.64221604111809
H           -6.74944364344885       -2.68076327965989       -1.30414353819883
O            3.70496480688220       -6.42687845323066       -5.57669470849333
H            3.49685360642825       -5.79174499578931       -6.27876865921360
H            4.58534682287997       -6.20105873911754       -5.24207870915490
O           -2.63768802444588       -1.33019289954244        4.17047534743196
H           -2.60730277355936       -2.21040212920109        3.73132905569917
H           -3.36107393143902       -0.83275419911117        3.77681197891735
O            4.79506151258219       -3.13956123298876       -5.16985637942166
H            4.04924836729001       -3.01406443569877       -4.53002452920919
H            5.21878221799013       -3.98003216631050       -4.88240065607638
O            5.12339082610979       -0.13750457089245        7.12302571408002
H            4.27968089907578        0.19386358480093        6.73985066079643
H            4.98553009902355       -1.06710810605888        7.31500496613999
O           -0.78599373805077       -2.01248472923191        7.02491763292339
H           -0.68815695494687       -2.65091147714283        6.29057151199525
H           -1.71902843426246       -2.01981988672021        7.25327074566221
 
 Bond Distances (Angstroems)
 ---------------------------
H1-C2=1.0895         C2-H1=1.0895         C2-H3=1.0877         C2-C4=1.5191         C2-O7=1.4060         H3-C2=1.0877         
C4-C2=1.5191         C4-H5=1.0835         C4-H6=1.0836         C4-N9=1.4694         H5-C4=1.0835         H6-C4=1.0836         
O7-C2=1.4060         O7-H8=0.9821         H8-O7=0.9821         N9-C4=1.4694         N9-H10=1.0406        N9-H11=1.0509        
N9-H12=1.0434        H10-N9=1.0406        H11-N9=1.0509        H12-N9=1.0434        O13-H14=0.9563       O13-H15=0.9836       
H14-O13=0.9563       H15-O13=0.9836       O16-H17=0.9743       O16-H18=0.9684       H17-O16=0.9743       H18-O16=0.9684       
O19-H20=0.9725       O19-H21=0.9596       H20-O19=0.9725       H21-O19=0.9596       O22-H23=0.9805       O22-H24=0.9798       
H23-O22=0.9805       H24-O22=0.9798       O25-H26=0.9792       O25-H27=0.9749       H26-O25=0.9792       H27-O25=0.9749       
O28-H29=0.9728       O28-H30=0.9719       H29-O28=0.9728       H30-O28=0.9719       O31-H32=0.9889       O31-H33=0.9806       
H32-O31=0.9889       H33-O31=0.9806       O34-H35=0.9721       O34-H36=0.9797       H35-O34=0.9721       H36-O34=0.9797       
O37-H38=0.9722       O37-H39=0.9670       H38-O37=0.9722       H39-O37=0.9670       O40-H41=0.9618       O40-H42=0.9732       
H41-O40=0.9618       H42-O40=0.9732       O43-H44=0.9810       O43-H45=0.9847       H44-O43=0.9810       H45-O43=0.9847       
O46-H47=0.9620       O46-H48=0.9759       H47-O46=0.9620       H48-O46=0.9759       O49-H50=0.9821       O49-H51=0.9805       
H50-O49=0.9821       H51-O49=0.9805       O52-H53=0.9782       O52-H54=0.9801       H53-O52=0.9782       H54-O52=0.9801       
O55-H56=0.9713       O55-H57=0.9575       H56-O55=0.9713       H57-O55=0.9575       O58-H59=0.9700       O58-H60=0.9772       
H59-O58=0.9700       H60-O58=0.9772       O61-H62=0.9707       O61-H63=0.9664       H62-O61=0.9707       H63-O61=0.9664       
O64-H65=0.9626       O64-H66=0.9831       H65-O64=0.9626       H66-O64=0.9831       O67-H68=0.9596       O67-H69=0.9746       
H68-O67=0.9596       H69-O67=0.9746       O70-H71=0.9709       O70-H72=0.9733       H71-O70=0.9709       H72-O70=0.9733       
O73-H74=0.9743       O73-H75=0.9754       H74-O73=0.9743       H75-O73=0.9754       O76-H77=0.9775       O76-H78=0.9783       
H77-O76=0.9775       H78-O76=0.9783       O79-H80=0.9761       O79-H81=0.9706       H80-O79=0.9761       H81-O79=0.9706       
O82-H83=0.9744       O82-H84=0.9729       H83-O82=0.9744       H84-O82=0.9729       O85-H86=0.9703       O85-H87=0.9777       
H86-O85=0.9703       H87-O85=0.9777       O88-H89=0.9774       O88-H90=0.9722       H89-O88=0.9774       H90-O88=0.9722       
O91-H92=0.9737       O91-H93=0.9791       H92-O91=0.9737       H93-O91=0.9791       O94-H95=0.9699       O94-H96=0.9697       
H95-O94=0.9699       H96-O94=0.9697       O97-H98=0.9676       O97-H99=0.9725       H98-O97=0.9676       H99-O97=0.9725       
O100-H101=0.9779     O100-H102=0.9791     H101-O100=0.9779     H102-O100=0.9791     O103-H104=0.9645     O103-H105=0.9640     
H104-O103=0.9645     H105-O103=0.9640     O106-H107=0.9752     O106-H108=0.9775     H107-O106=0.9752     H108-O106=0.9775     
O109-H110=0.9859     O109-H111=0.9774     H110-O109=0.9859     H111-O109=0.9774     O112-H113=0.9831     O112-H114=0.9797     
H113-O112=0.9831     H114-O112=0.9797     O115-H116=0.9782     O115-H117=0.9634     H116-O115=0.9782     H117-O115=0.9634     
O118-H119=0.9741     O118-H120=0.9755     H119-O118=0.9741     H120-O118=0.9755     O121-H122=0.9603     O121-H123=0.9746     
H122-O121=0.9603     H123-O121=0.9746     O124-H125=0.9765     O124-H126=0.9718     H125-O124=0.9765     H126-O124=0.9718     
O127-H128=0.9744     O127-H129=0.9748     H128-O127=0.9744     H129-O127=0.9748     O130-H131=0.9726     O130-H132=0.9709     
H131-O130=0.9726     H132-O130=0.9709     O133-H134=0.9760     O133-H135=0.9700     H134-O133=0.9760     H135-O133=0.9700     
O136-H137=0.9619     O136-H138=0.9843     H137-O136=0.9619     H138-O136=0.9843     O139-H140=0.9801     O139-H141=0.9849     
H140-O139=0.9801     H141-O139=0.9849     O142-H143=0.9727     O142-H144=0.9729     H143-O142=0.9727     H144-O142=0.9729     
O145-H146=0.9746     O145-H147=0.9792     H146-O145=0.9746     H147-O145=0.9792     O148-H149=0.9684     O148-H150=0.9818     
H149-O148=0.9684     H150-O148=0.9818     O151-H152=0.9713     O151-H153=0.9759     H152-O151=0.9713     H153-O151=0.9759     
O154-H155=0.9695     O154-H156=0.9684     H155-O154=0.9695     H156-O154=0.9684     O157-H158=1.0021     O157-H159=0.9654     
H158-O157=1.0021     H159-O157=0.9654     O160-H161=0.9716     O160-H162=0.9780     H161-O160=0.9716     H162-O160=0.9780     
O163-H164=0.9629     O163-H165=0.9724     H164-O163=0.9629     H165-O163=0.9724     O166-H167=0.9691     O166-H168=0.9785     
H167-O166=0.9691     H168-O166=0.9785     O169-H170=0.9744     O169-H171=0.9735     H170-O169=0.9744     H171-O169=0.9735     
O172-H173=0.9694     O172-H174=0.9630     H173-O172=0.9694     H174-O172=0.9630     O175-H176=0.9683     O175-H177=0.9691     
H176-O175=0.9683     H177-O175=0.9691     O178-H179=0.9729     O178-H180=0.9581     H179-O178=0.9729     H180-O178=0.9581     
O181-H182=0.9774     O181-H183=0.9684     H182-O181=0.9774     H183-O181=0.9684     O184-H185=0.9690     O184-H186=0.9828     
H185-O184=0.9690     H186-O184=0.9828     O187-H188=0.9716     O187-H189=0.9675     H188-O187=0.9716     H189-O187=0.9675     
O190-H191=0.9588     O190-H192=0.9740     H191-O190=0.9588     H192-O190=0.9740     O193-H194=0.9814     O193-H195=0.9847     
H194-O193=0.9814     H195-O193=0.9847     O196-H197=0.9886     O196-H198=0.9858     H197-O196=0.9886     H198-O196=0.9858     
O199-H200=0.9593     O199-H201=0.9760     H200-O199=0.9593     H201-O199=0.9760     O202-H203=0.9785     O202-H204=0.9708     
H203-O202=0.9785     H204-O202=0.9708     O205-H206=0.9794     O205-H207=0.9784     H206-O205=0.9794     H207-O205=0.9784     
O208-H209=0.9882     O208-H210=0.9697     H209-O208=0.9882     H210-O208=0.9697     O211-H212=0.9740     O211-H213=0.9649     
H212-O211=0.9740     H213-O211=0.9649     O214-H215=0.9627     O214-H216=0.9759     H215-O214=0.9627     H216-O214=0.9759     
O217-H218=0.9834     O217-H219=0.9737     H218-O217=0.9834     H219-O217=0.9737     O220-H221=0.9636     O220-H222=0.9621     
H221-O220=0.9636     H222-O220=0.9621     O223-H224=0.9762     O223-H225=0.9665     H224-O223=0.9762     H225-O223=0.9665     
O226-H227=0.9874     O226-H228=0.9716     H227-O226=0.9874     H228-O226=0.9716     O229-H230=0.9747     O229-H231=0.9865     
H230-O229=0.9747     H231-O229=0.9865     O232-H233=0.9757     O232-H234=0.9640     H233-O232=0.9757     H234-O232=0.9640     
O235-H236=0.9802     O235-H237=0.9797     H236-O235=0.9802     H237-O235=0.9797     O238-H239=0.9803     O238-H240=0.9568     
H239-O238=0.9803     H240-O238=0.9568     O241-H242=0.9771     O241-H243=0.9671     H242-O241=0.9771     H243-O241=0.9671     
O244-H245=0.9706     O244-H246=0.9707     H245-O244=0.9706     H246-O244=0.9707     O247-H248=0.9716     O247-H249=0.9785     
H248-O247=0.9716     H249-O247=0.9785     O250-H251=0.9799     O250-H252=0.9728     H251-O250=0.9799     H252-O250=0.9728     
O253-H254=0.9779     O253-H255=0.9647     H254-O253=0.9779     H255-O253=0.9647     O256-H257=0.9784     O256-H258=0.9695     
H257-O256=0.9784     H258-O256=0.9695     O259-H260=0.9772     O259-H261=0.9738     H260-O259=0.9772     H261-O259=0.9738     
O262-H263=0.9692     O262-H264=0.9676     H263-O262=0.9692     H264-O262=0.9676     O265-H266=0.9656     O265-H267=0.9733     
H266-O265=0.9656     H267-O265=0.9733     O268-H269=0.9785     O268-H270=0.9673     H269-O268=0.9785     H270-O268=0.9673     
O271-H272=0.9831     O271-H273=0.9581     H272-O271=0.9831     H273-O271=0.9581     O274-H275=0.9731     O274-H276=0.9701     
H275-O274=0.9731     H276-O274=0.9701     O277-H278=0.9574     O277-H279=0.9748     H278-O277=0.9574     H279-O277=0.9748     
O280-H281=0.9783     O280-H282=0.9690     H281-O280=0.9783     H282-O280=0.9690     O283-H284=0.9567     O283-H285=0.9835     
H284-O283=0.9567     H285-O283=0.9835     O286-H287=0.9600     O286-H288=0.9710     H287-O286=0.9600     H288-O286=0.9710     
O289-H290=0.9794     O289-H291=0.9629     H290-O289=0.9794     H291-O289=0.9629     O292-H293=0.9720     O292-H294=0.9767     
H293-O292=0.9720     H294-O292=0.9767     O295-H296=0.9607     O295-H297=0.9895     H296-O295=0.9607     H297-O295=0.9895     
O298-H299=0.9640     O298-H300=0.9628     H299-O298=0.9640     H300-O298=0.9628     O301-H302=0.9723     O301-H303=0.9914     
H302-O301=0.9723     H303-O301=0.9914     O304-H305=0.9743     O304-H306=0.9650     H305-O304=0.9743     H306-O304=0.9650     
O307-H308=0.9821     O307-H309=0.9799     H308-O307=0.9821     H309-O307=0.9799     O310-H311=0.9643     O310-H312=0.9760     
H311-O310=0.9643     H312-O310=0.9760     O313-H314=0.9686     O313-H315=0.9605     H314-O313=0.9686     H315-O313=0.9605     
O316-H317=0.9763     O316-H318=0.9844     H317-O316=0.9763     H318-O316=0.9844     O319-H320=0.9720     O319-H321=0.9759     
H320-O319=0.9720     H321-O319=0.9759     O322-H323=0.9684     O322-H324=0.9771     H323-O322=0.9684     H324-O322=0.9771     
O325-H326=0.9734     O325-H327=0.9633     H326-O325=0.9734     H327-O325=0.9633     O328-H329=0.9703     O328-H330=0.9783     
H329-O328=0.9703     H330-O328=0.9783     O331-H332=0.9953     O331-H333=0.9657     H332-O331=0.9953     H333-O331=0.9657     
O334-H335=0.9859     O334-H336=0.9670     H335-O334=0.9859     H336-O334=0.9670     O337-H338=0.9645     O337-H339=0.9710     
H338-O337=0.9645     H339-O337=0.9710     O340-H341=0.9830     O340-H342=0.9718     H341-O340=0.9830     H342-O340=0.9718     
O343-H344=0.9830     O343-H345=0.9956     H344-O343=0.9830     H345-O343=0.9956     O346-H347=0.9641     O346-H348=0.9827     
H347-O346=0.9641     H348-O346=0.9827     O349-H350=0.9597     O349-H351=0.9883     H350-O349=0.9597     H351-O349=0.9883     
O352-H353=0.9773     O352-H354=0.9736     H353-O352=0.9773     H354-O352=0.9736     O355-H356=0.9664     O355-H357=0.9751     
H356-O355=0.9664     H357-O355=0.9751     O358-H359=0.9660     O358-H360=0.9842     H359-O358=0.9660     H360-O358=0.9842     
O361-H362=0.9690     O361-H363=0.9715     H362-O361=0.9690     H363-O361=0.9715     O364-H365=1.0003     O364-H366=0.9567     
H365-O364=1.0003     H366-O364=0.9567     O367-H368=0.9723     O367-H369=0.9648     H368-O367=0.9723     H369-O367=0.9648     
O370-H371=0.9754     O370-H372=0.9594     H371-O370=0.9754     H372-O370=0.9594     O373-H374=0.9661     O373-H375=0.9845     
H374-O373=0.9661     H375-O373=0.9845     O376-H377=0.9811     O376-H378=0.9754     H377-O376=0.9811     H378-O376=0.9754     
O379-H380=0.9668     O379-H381=0.9624     H380-O379=0.9668     H381-O379=0.9624     O382-H383=0.9701     O382-H384=0.9704     
H383-O382=0.9701     H384-O382=0.9704     O385-H386=0.9690     O385-H387=0.9692     H386-O385=0.9690     H387-O385=0.9692     
O388-H389=0.9740     O388-H390=0.9815     H389-O388=0.9740     H390-O388=0.9815     O391-H392=0.9787     O391-H393=0.9712     
H392-O391=0.9787     H393-O391=0.9712     O394-H395=0.9666     O394-H396=0.9761     H395-O394=0.9666     H396-O394=0.9761     
O397-H398=0.9694     O397-H399=0.9810     H398-O397=0.9694     H399-O397=0.9810     O400-H401=1.0009     O400-H402=0.9566     
H401-O400=1.0009     H402-O400=0.9566     O403-H404=0.9575     O403-H405=0.9895     H404-O403=0.9575     H405-O403=0.9895     
O406-H407=0.9727     O406-H408=0.9701     H407-O406=0.9727     H408-O406=0.9701     O409-H410=0.9679     O409-H411=0.9690     
H410-O409=0.9679     H411-O409=0.9690     O412-H413=0.9733     O412-H414=0.9572     H413-O412=0.9733     H414-O412=0.9572     
O415-H416=0.9639     O415-H417=0.9789     H416-O415=0.9639     H417-O415=0.9789     O418-H419=0.9657     O418-H420=0.9703     
H419-O418=0.9657     H420-O418=0.9703     O421-H422=0.9914     O421-H423=0.9791     H422-O421=0.9914     H423-O421=0.9791     
O424-H425=0.9675     O424-H426=0.9732     H425-O424=0.9675     H426-O424=0.9732     O427-H428=0.9660     O427-H429=0.9770     
H428-O427=0.9660     H429-O427=0.9770     O430-H431=0.9632     O430-H432=0.9719     H431-O430=0.9632     H432-O430=0.9719     
O433-H434=0.9674     O433-H435=0.9773     H434-O433=0.9674     H435-O433=0.9773     O436-H437=0.9607     O436-H438=0.9721     
H437-O436=0.9607     H438-O436=0.9721     O439-H440=0.9821     O439-H441=0.9777     H440-O439=0.9821     H441-O439=0.9777     
O442-H443=0.9788     O442-H444=0.9662     H443-O442=0.9788     H444-O442=0.9662     O445-H446=0.9716     O445-H447=0.9709     
H446-O445=0.9716     H447-O445=0.9709     O448-H449=0.9807     O448-H450=0.9660     H449-O448=0.9807     H450-O448=0.9660     
O451-H452=0.9859     O451-H453=0.9613     H452-O451=0.9859     H453-O451=0.9613     O454-H455=0.9638     O454-H456=0.9950     
H455-O454=0.9638     H456-O454=0.9950     O457-H458=0.9611     O457-H459=0.9813     H458-O457=0.9611     H459-O457=0.9813     
O460-H461=0.9767     O460-H462=0.9805     H461-O460=0.9767     H462-O460=0.9805     O463-H464=0.9793     O463-H465=0.9737     
H464-O463=0.9793     H465-O463=0.9737     O466-H467=1.0036     O466-H468=0.9584     H467-O466=1.0036     H468-O466=0.9584     
O469-H470=0.9714     O469-H471=0.9717     H470-O469=0.9714     H471-O469=0.9717     O472-H473=0.9689     O472-H474=0.9663     
H473-O472=0.9689     H474-O472=0.9663     O475-H476=0.9665     O475-H477=0.9721     H476-O475=0.9665     H477-O475=0.9721     
O478-H479=0.9580     O478-H480=1.0019     H479-O478=0.9580     H480-O478=1.0019     O481-H482=0.9653     O481-H483=0.9802     
H482-O481=0.9653     H483-O481=0.9802     O484-H485=0.9813     O484-H486=0.9643     H485-O484=0.9813     H486-O484=0.9643     
O487-H488=0.9828     O487-H489=0.9772     H488-O487=0.9828     H489-O487=0.9772     O490-H491=0.9617     O490-H492=0.9748     
H491-O490=0.9617     H492-O490=0.9748     O493-H494=0.9798     O493-H495=0.9814     H494-O493=0.9798     H495-O493=0.9814     
O496-H497=0.9560     O496-H498=1.0028     H497-O496=0.9560     H498-O496=1.0028     O499-H500=0.9740     O499-H501=0.9760     
H500-O499=0.9740     H501-O499=0.9760     O502-H503=0.9791     O502-H504=0.9705     H503-O502=0.9791     H504-O502=0.9705     
O505-H506=0.9686     O505-H507=0.9727     H506-O505=0.9686     H507-O505=0.9727     O508-H509=0.9752     O508-H510=0.9888     
H509-O508=0.9752     H510-O508=0.9888     O511-H512=0.9701     O511-H513=0.9800     H512-O511=0.9701     H513-O511=0.9800     
O514-H515=0.9918     O514-H516=0.9671     H515-O514=0.9918     H516-O514=0.9671     O517-H518=0.9823     O517-H519=0.9574     
H518-O517=0.9823     H519-O517=0.9574     O520-H521=0.9878     O520-H522=0.9766     H521-O520=0.9878     H522-O520=0.9766     
O523-H524=0.9736     O523-H525=0.9903     H524-O523=0.9736     H525-O523=0.9903     O526-H527=0.9738     O526-H528=0.9749     
H527-O526=0.9738     H528-O526=0.9749     O529-H530=0.9696     O529-H531=0.9648     H530-O529=0.9696     H531-O529=0.9648     
O532-H533=0.9639     O532-H534=0.9813     H533-O532=0.9639     H534-O532=0.9813     O535-H536=0.9707     O535-H537=0.9676     
H536-O535=0.9707     H537-O535=0.9676     O538-H539=0.9702     O538-H540=0.9733     H539-O538=0.9702     H540-O538=0.9733     
O541-H542=0.9759     O541-H543=0.9743     H542-O541=0.9759     H543-O541=0.9743     O544-H545=0.9767     O544-H546=0.9610     
H545-O544=0.9767     H546-O544=0.9610     O547-H548=0.9814     O547-H549=0.9755     H548-O547=0.9814     H549-O547=0.9755     
O550-H551=0.9860     O550-H552=0.9692     H551-O550=0.9860     H552-O550=0.9692     O553-H554=0.9791     O553-H555=0.9729     
H554-O553=0.9791     H555-O553=0.9729     O556-H557=0.9634     O556-H558=0.9714     H557-O556=0.9634     H558-O556=0.9714     
O559-H560=0.9939     O559-H561=0.9771     H560-O559=0.9939     H561-O559=0.9771     O562-H563=0.9848     O562-H564=0.9671     
H563-O562=0.9848     H564-O562=0.9671     O565-H566=0.9624     O565-H567=0.9897     H566-O565=0.9624     H567-O565=0.9897     
O568-H569=0.9598     O568-H570=0.9876     H569-O568=0.9598     H570-O568=0.9876     O571-H572=0.9818     O571-H573=0.9562     
H572-O571=0.9818     H573-O571=0.9562     O574-H575=0.9557     O574-H576=0.9869     H575-O574=0.9557     H576-O574=0.9869     
O577-H578=0.9722     O577-H579=0.9745     H578-O577=0.9722     H579-O577=0.9745     O580-H581=0.9694     O580-H582=0.9772     
H581-O580=0.9694     H582-O580=0.9772     O583-H584=0.9670     O583-H585=0.9840     H584-O583=0.9670     H585-O583=0.9840     
O586-H587=0.9823     O586-H588=0.9786     H587-O586=0.9823     H588-O586=0.9786     O589-H590=0.9845     O589-H591=0.9786     
H590-O589=0.9845     H591-O589=0.9786     O592-H593=0.9642     O592-H594=0.9846     H593-O592=0.9642     H594-O592=0.9846     
O595-H596=0.9796     O595-H597=0.9738     H596-O595=0.9796     H597-O595=0.9738     O598-H599=0.9693     O598-H600=0.9685     
H599-O598=0.9693     H600-O598=0.9685     O601-H602=0.9841     O601-H603=0.9621     H602-O601=0.9841     H603-O601=0.9621     
O604-H605=0.9906     O604-H606=0.9842     H605-O604=0.9906     H606-O604=0.9842     O607-H608=0.9841     O607-H609=0.9592     
H608-O607=0.9841     H609-O607=0.9592     O610-H611=0.9780     O610-H612=0.9606     H611-O610=0.9780     H612-O610=0.9606     
 C  H  Rav=1.0861 sigma=0.0026  Rmin=1.0835  Rmax=1.0895     4
 C  C  Rav=1.5191 sigma=0.0000  Rmin=1.5191  Rmax=1.5191     1
 N  H  Rav=1.0450 sigma=0.0044  Rmin=1.0406  Rmax=1.0509     3
 N  C  Rav=1.4694 sigma=0.0000  Rmin=1.4694  Rmax=1.4694     1
 O  H  Rav=0.9737 sigma=0.0089  Rmin=0.9557  Rmax=1.0036   401
 O  C  Rav=1.4060 sigma=0.0000  Rmin=1.4060  Rmax=1.4060     1
 
 selected bond angles (degree)
 --------------------
H3-C2-H1=108.77                C4-C2-H1=110.22                C4-C2-H3=108.71                O7-C2-H1=110.40                
O7-C2-H3=107.57                O7-C2-C4=111.09                H5-C4-C2=107.88                H6-C4-C2=108.57                
H6-C4-H5=110.44                N9-C4-C2=110.57                N9-C4-H5=108.34                N9-C4-H6=110.98                
H8-O7-C2=108.61                H10-N9-C4=109.30               H11-N9-C4=111.90               H11-N9-H10=109.77              
H12-N9-C4=110.45               H12-N9-H10=108.45              H12-N9-H11=106.89              
 
 selected dihedral angles (degree)
 ---------------------------------
H5-C4-C2-H1=177.09            H5-C4-C2-H3= 57.96            H5-C4-C2-O7=299.79            H6-C4-C2-H1= 57.38            
H6-C4-C2-H3=298.25            H6-C4-C2-O7=180.08            N9-C4-C2-H1=295.40            N9-C4-C2-H3=176.27            
N9-C4-C2-O7= 58.10            H8-O7-C2-H1= 49.15            H8-O7-C2-H3=167.70            H8-O7-C2-C4=286.56            
H10-N9-C4-C2=281.27           H10-N9-C4-H5= 39.30           H10-N9-C4-H6=160.71           H11-N9-C4-C2=159.46           
H11-N9-C4-H5=277.49           H11-N9-C4-H6= 38.91           H12-N9-C4-C2= 40.51           H12-N9-C4-H5=158.54           
H12-N9-C4-H6=279.95           
 
 CMA Distance (Angstroems)
 ---------------------------
R(CMA):  1.3213
           -------------------------------------------------
          |                Final Singlepoint                |
           -------------------------------------------------

          ...................................................
          :                      SETUP                      :
          :.................................................:
          :  # basis functions                1224          :
          :  # atomic orbitals                1224          :
          :  # shells                          816          :
          :  # electrons                      1626          :
          :  max. iterations                   250          :
          :  Hamiltonian                  GFN2-xTB          :
          :  restarted?                      false          :
          :  GBSA solvation                  false          :
          :  PC potential                    false          :
          :  electronic temp.          300.0000000     K    :
          :  accuracy                    1.0000000          :
          :  -> integral cutoff          0.2500000E+02      :
          :  -> integral neglect         0.1000000E-07      :
          :  -> SCF convergence          0.1000000E-05 Eh   :
          :  -> wf. convergence          0.1000000E-03 e    :
          :  Broyden damping             0.4000000          :
          ...................................................

 iter      E             dE          RMSdq      gap      omega  full diag
   1  -1039.7739472 -0.103977E+04  0.983E-06    7.90       0.0  T
   2  -1039.7739472  0.227374E-11  0.595E-06    7.90     678.9  T
   3  -1039.7739472  0.432010E-11  0.793E-07    7.90    5096.7  T

   *** convergence criteria satisfied after 3 iterations ***

         #    Occupation            Energy/Eh            Energy/eV
      -------------------------------------------------------------
         1        2.0000           -0.7444700             -20.2581
       ...           ...                  ...                  ...
       807        2.0000           -0.4625794             -12.5874
       808        2.0000           -0.4617586             -12.5651
       809        2.0000           -0.4614830             -12.5576
       810        2.0000           -0.4603703             -12.5273
       811        2.0000           -0.4592520             -12.4969
       812        2.0000           -0.4584301             -12.4745
       813        2.0000           -0.4467553             -12.1568 (HOMO)
       814                         -0.1565736              -4.2606 (LUMO)
       815                         -0.1454860              -3.9589
       816                         -0.1308038              -3.5594
       817                         -0.1250796              -3.4036
       818                         -0.1216478              -3.3102
       ...                                ...                  ...
      1224                          0.3604769               9.8091
      -------------------------------------------------------------
                  HL-Gap            0.2901817 Eh            7.8962 eV
             Fermi-level           -0.3016644 Eh           -8.2087 eV

 SCC (total)                   0 d,  0 h,  0 min, 12.369 sec
 SCC setup                      ...        0 min,  0.032 sec (  0.262%)
 Dispersion                     ...        0 min,  0.083 sec (  0.674%)
 classical contributions        ...        0 min,  0.021 sec (  0.166%)
 integral evaluation            ...        0 min,  0.711 sec (  5.745%)
 iterations                     ...        0 min,  2.032 sec ( 16.426%)
 molecular gradient             ...        0 min,  9.420 sec ( 76.159%)
 printout                       ...        0 min,  0.070 sec (  0.568%)

         :::::::::::::::::::::::::::::::::::::::::::::::::::::
         ::                     SUMMARY                     ::
         :::::::::::::::::::::::::::::::::::::::::::::::::::::
         :: total energy           -1033.438661157751 Eh    ::
         :: gradient norm              0.000077445220 Eh/a0 ::
         :: HOMO-LUMO gap              7.896245452227 eV    ::
         ::.................................................::
         :: SCC energy             -1039.773947194116 Eh    ::
         :: -> isotropic ES            5.741370118938 Eh    ::
         :: -> anisotropic ES         -1.300013485708 Eh    ::
         :: -> anisotropic XC         -0.098373273074 Eh    ::
         :: -> dispersion             -0.627639196930 Eh    ::
         :: repulsion energy           6.214258415494 Eh    ::
         :: add. restraining           0.000000000000 Eh    ::
         :: total charge               1.000000000000 e     ::
         :::::::::::::::::::::::::::::::::::::::::::::::::::::

           ------------------------------------------------- 
          |                Numerical Hessian                |
           ------------------------------------------------- 
step length          :   0.00500
SCC accuracy         :   0.30000
Hessian scale factor :   1.00000
frozen atoms in %    :   0.00000    0
RMS gradient         :   0.00008
estimated CPU  time    748.84 min
estimated wall time    750.68 min
