612
 energy: -1033.438658834391 gnorm: 0.000534311260 xtb: 6.5.1 (579679a)
H           -1.50607295480000        0.61973892640000       -0.59024698670000
C           -0.66545115360000        1.17961156560000       -0.99884467840000
H           -0.72495776570000        1.15760071410000       -2.08469808620000
C            0.64626335130000        0.54476829260000       -0.56989659830000
H            1.45213494290000        1.09782270720000       -1.03742426220000
H            0.65436794150000       -0.48737976150000       -0.89982086030000
O           -0.73132394210000        2.52548623970000       -0.59732590370000
H           -0.87792205930000        2.55620894160000        0.37331625100000
N            0.81001952180000        0.63255030650000        0.88775509890000
H            1.12324145620000        1.59184889430000        1.14149328940000
H            1.50007660840000       -0.07357750580000        1.24785683390000
H           -0.09638882100000        0.44319080040000        1.36855755340000
O            5.59355343430000        6.01175000310000        1.69559435660000
H            5.27354377200000        6.91174328520000        1.74106714370000
H            5.91547769610000        5.76640731680000        2.59210806820000
O            1.12293384210000        3.53953229550000       -2.87169178200000
H            0.75512464640000        4.06194518030000       -2.13611224370000
H            1.77425177740000        2.95280137810000       -2.46021499040000
O            9.98859174800000        4.16435996160000       -1.68565546060000
H            9.36267927030000        3.85747183030000       -2.36376394100000
H            9.55072034580000        4.89008513050000       -1.23564546120000
O           -4.84785184390000        0.36165174680000        2.83948466610000
H           -5.77333974580000        0.66157262920000        2.71703207510000
H           -4.35602137330000        0.73821652190000        2.08030249130000
O           -4.19061828280000        4.50036449740000       -0.40395392840000
H           -4.86668712370000        3.97652819080000        0.07278481320000
H           -4.51007881900000        4.51688821180000       -1.32492606250000
O           -1.27254761340000       -3.52707821130000       -4.24433390190000
H           -0.51037695700000       -3.25731982600000       -4.78538792390000
H           -0.91329963920000       -3.78958405000000       -3.38029485050000
O            3.79132186410000        0.95456518320000        0.79895516440000
H            4.14050625460000        0.03569874610000        0.90722809860000
H            3.70327197420000        1.26111381590000        1.72618243930000
O            7.49313607910000        5.62269913790000       -0.25424699880000
H            6.81686948470000        5.85297467600000        0.40499234110000
H            7.78547173150000        4.72441248580000        0.00554279180000
O            2.29138056550000       -1.35201815930000        1.82202677360000
H            2.54234090220000       -1.32746397290000        2.76099476050000
H            3.09816705940000       -1.63339487550000        1.36934686780000
O            0.52478355320000       -1.54363098050000       -2.95981401380000
H           -0.00920196310000       -2.17712560300000       -2.47131651580000
H            1.34666990530000       -2.00124435940000       -3.20921278840000
O            5.53889930900000        3.07287363890000       -2.36724082750000
H            6.24514416810000        2.53851280080000       -2.78917891040000
H            5.81393147660000        4.01601783410000       -2.43389312740000
O            8.07853797220000        3.66837823450000       -3.56838463030000
H            7.66076393640000        4.52947170580000       -3.47120742370000
H            7.76629963580000        3.30928651030000       -4.42037449690000
O           -1.57130277910000        0.05348876300000        2.07275351960000
H           -2.15616401640000        0.71427710720000        1.64167785670000
H           -1.53208022910000        0.33644038090000        3.01069530410000
O           -1.42893947290000        1.05302050630000        4.61583831760000
H           -2.05125471030000        0.81431992070000        5.33184634820000
H           -1.67091257020000        1.98369128490000        4.42632612570000
O           -2.45674948460000        3.45418532330000        4.39703235350000
H           -3.20233709620000        3.36856174850000        3.78049472210000
H           -2.11209880900000        4.34040874290000        4.28498053280000
O            2.49601280950000       -0.86573481330000       -5.42249065080000
H            3.28239412000000       -1.09409096430000       -4.90260883460000
H            2.81183360050000       -0.34632339070000       -6.18763926390000
O           -2.02007153940000       -6.54477731750000        5.21807762690000
H           -2.04140029500000       -6.52909050700000        4.24769377910000
H           -2.66238585920000       -5.88795569730000        5.51791619230000
O            1.63873910080000       -3.92020979920000        2.98042882060000
H            1.27762856920000       -4.80831899940000        2.89435216140000
H            2.30905911630000       -3.83144175360000        2.26684902760000
O            1.97588093750000       -1.85969129390000        6.30419485370000
H            1.34117725080000       -2.10240460550000        6.98170721490000
H            1.44269466380000       -1.48152538600000        5.58132185760000
O            0.31956086070000        0.50907143730000        6.69189109200000
H           -0.08990092600000       -0.33065174580000        6.95633128320000
H           -0.19676408550000        0.82482566480000        5.92962061200000
O            3.70189270920000        1.19446726790000        3.38085848990000
H            3.87597743220000        0.30061325410000        3.72711007240000
H            4.16484545450000        1.82969062580000        3.95840152210000
O           -2.05227860590000        4.06223363770000       -2.27696247210000
H           -2.81960535430000        3.47084756920000       -2.14671840290000
H           -1.37135717070000        3.64639937290000       -1.71078157260000
O           -4.31325768750000        3.55243286880000        2.51290046540000
H           -4.24845419090000        4.52394152000000        2.44433507080000
H           -5.16632883170000        3.32188366610000        2.11142837020000
O           -2.97781199850000       -1.94877317960000        0.97053997900000
H           -2.44828219590000       -1.26217237250000        1.41502212720000
H           -2.41446800980000       -2.34149877300000        0.28133063280000
O            1.52998055510000       -2.74805260900000       -0.44191771760000
H            2.18302288980000       -3.30542333580000        0.01013616270000
H            0.89691638850000       -2.50007511600000        0.26066086710000
O            6.99063027200000        0.99524019330000       -3.22226733880000
H            7.51792349720000        0.84538285150000       -4.03151737440000
H            6.28193501330000        0.33048273000000       -3.25326113100000
O           -3.43143252350000        1.55822223610000        0.90852309970000
H           -3.49213539680000        2.39878293800000        1.39633975460000
H           -3.57489800970000        1.77351363780000       -0.03581387660000
O            3.13421865380000        2.68855989170000       -1.19445846730000
H            3.96736520450000        2.76429132640000       -1.68521295200000
H            3.29878458020000        2.09530353090000       -0.44521133380000
O            2.92200315790000        0.87557450380000        6.00233979500000
H            2.90207775220000        1.82680306940000        6.17821977990000
H            2.05593291040000        0.54438086540000        6.29566867280000
O           -2.52885517060000       -3.82706712470000        3.30281806210000
H           -2.97902169480000       -4.10845866750000        2.48153553770000
H           -3.06305328470000       -4.16130365110000        4.05219328260000
O           -1.90408153750000        1.27550294660000       -7.85186035180000
H           -0.97600907670000        1.34560125080000       -8.10478086090000
H           -2.02445377680000        0.34796084400000       -7.61831151640000
O            3.40646481540000        5.14563754050000       -0.09855613340000
H            3.55405768380000        5.70849467170000       -0.88112017330000
H            3.18839782050000        4.26162121710000       -0.45423191140000
O           -1.18356901800000        3.97840132980000       -4.76579908410000
H           -1.48341212520000        4.02271835630000       -3.82764133430000
H           -0.44467259120000        3.33914274250000       -4.79366464080000
O            8.25714228070000       -4.28633100710000       -3.56833157360000
H            7.92274437840000       -3.38699097680000       -3.78257239630000
H            9.22684133310000       -4.18010405530000       -3.47777064020000
O           -1.24024600390000       -4.61123764540000        0.50408161670000
H           -1.00539935900000       -3.82865146230000        1.04196087230000
H           -1.44477073040000       -4.26644920430000       -0.37194550090000
O           -9.47873521420000       -3.36562111520000        1.98976057160000
H           -9.49628624170000       -2.82759870310000        1.17796013640000
H           -8.98502010910000       -4.16960127250000        1.74194882540000
O           -9.53749028450000       -4.17227782660000       -1.30562387460000
H          -10.45183127660000       -4.10070970910000       -1.59043378370000
H           -9.30156104110000       -3.26816611460000       -1.02861887210000
O           -0.36155406870000       -3.65366025410000        4.88921245950000
H            0.04827478090000       -4.51648545280000        5.09191191300000
H           -1.08966512350000       -3.82922325860000        4.27004345970000
O            0.44037829970000        4.89682156790000       -0.61369693440000
H            0.73041938120000        5.80734445430000       -0.42340780720000
H            0.96246029430000        4.29232707940000       -0.05488968710000
O           -0.13719413470000        6.46446354380000       -4.02667681190000
H           -0.48459689200000        5.66078089820000       -4.45021090490000
H           -0.83439653960000        6.72602051070000       -3.40364494860000
O           -7.19368003240000       -1.32868570690000        1.36827639840000
H           -6.85275210960000       -0.45046238490000        1.11326406970000
H           -7.34003065910000       -1.37925652370000        2.32583103470000
O            8.22383078850000        3.34872291760000        4.26973153690000
H            8.01774718060000        2.88757312470000        5.08837404440000
H            7.61008717110000        2.96570241770000        3.60234219280000
O           -3.31745359810000       -6.53504659990000       -0.44635932770000
H           -3.42265873780000       -7.25644641020000        0.20877791680000
H           -2.48800811530000       -6.69571360040000       -0.95265545530000
O            4.12633069260000        3.71118478210000        2.14943711030000
H            4.42038559460000        4.39935996980000        1.52800822970000
H            3.91671193740000        4.17641000450000        2.97773737870000
O            4.65972529030000       -0.43923479610000       -3.72975724460000
H            4.24492264960000       -0.71798258650000       -2.89310360000000
H            4.35790886290000        0.47428058280000       -3.91224681890000
O            0.59954285710000       -6.13248733100000        5.26987849280000
H            0.79946560580000       -6.50661726150000        4.39933109640000
H           -0.31922858490000       -6.41741384960000        5.46624914160000
O           -3.82689396660000       -4.42780213350000        5.56487351980000
H           -4.75359037150000       -4.44811992960000        5.27476448260000
H           -3.72158123560000       -3.61457753190000        6.09401575000000
O            4.45069787440000       -3.62147359580000       -1.51677944210000
H            5.41569110710000       -3.52880661390000       -1.50626442440000
H            4.17862143850000       -3.67126805900000       -0.58874248400000
O            2.36427048680000        5.21065154200000       -4.42144250380000
H            1.90597294190000        4.53176626830000       -3.84420360690000
H            1.68518203110000        5.88335111530000       -4.55689586760000
O            6.13868260040000        1.55322512040000       -0.22449046720000
H            6.01784443670000        2.22957863110000       -0.91150649770000
H            5.29197154950000        1.48613135690000        0.26036414360000
O            0.80216963470000        0.71132641970000       -7.64900886140000
H            1.73554515460000        0.65359278100000       -7.87866952250000
H            0.76234242080000        1.14985561170000       -6.78199898490000
O           -1.90993347520000       -2.67328067780000       -1.43313771740000
H           -2.67199347470000       -3.13508313070000       -1.81406508300000
H           -1.97513623230000       -1.76298797400000       -1.78609123450000
O           -0.87494538180000       -1.35441823060000       -7.03202698410000
H           -0.21981882320000       -0.73639795360000       -7.40392360830000
H           -0.36233511620000       -2.13645240290000       -6.76102115620000
O            3.48060247200000        5.43288311270000        4.24422927670000
H            3.15500852130000        4.98201486530000        5.03820774020000
H            4.35879255490000        5.76277122740000        4.46165092950000
O           -2.73846363290000        3.82366780770000       -7.02328398920000
H           -2.43651731630000        2.98521175050000       -7.40198429030000
H           -2.05907730360000        4.08531766760000       -6.38362930040000
O            3.16334461900000       -0.81581200790000       -1.51678521000000
H            2.63273759130000       -1.57150697380000       -1.21025282340000
H            3.44803004120000       -0.33037081920000       -0.74138616670000
O           -3.04118880640000        0.88388958950000        6.72194000230000
H           -3.81388090040000        1.23617214600000        6.23803038870000
H           -3.24658107700000       -0.03610412230000        6.94363868840000
O            4.99750522130000        2.98165832610000        4.91944500200000
H            4.34383611160000        3.19358932060000        5.60265760080000
H            5.69082214500000        2.41535107020000        5.32515434090000
O            2.17129985330000        0.90657610200000       -3.39477373240000
H            2.11919408340000        0.28491966180000       -4.13972103090000
H            2.36151879290000        0.33630827350000       -2.63664342970000
O           -3.61615563690000       -4.49492817190000       -6.09831286910000
H           -3.31116444760000       -3.82581345260000       -6.71356376350000
H           -4.42120844360000       -4.13692723570000       -5.68321899070000
O           -1.01180104040000       -0.18371802300000       -4.66897568360000
H           -0.46139921780000       -0.69731164720000       -4.03938683970000
H           -1.05867210190000       -0.69633165270000       -5.50837846270000
O            1.83186678700000       -5.58101693000000       -3.94080893040000
H            2.54454333930000       -5.96951332780000       -4.50524745560000
H            1.00529747180000       -5.76985879190000       -4.44376554330000
O            9.12933192490000       -4.86347799720000        0.72537160340000
H            9.03419381670000       -5.58183024930000        1.35403926200000
H            8.49845305450000       -4.17391829960000        1.00662079390000
O            1.27126221000000       -5.48022122780000        0.44245227400000
H            0.32761482370000       -5.26830856180000        0.29350004520000
H            1.62623126100000       -5.91086587480000       -0.35194193700000
O           -7.36004289920000        1.21617654280000        2.58221039760000
H           -7.37096925400000        2.18507699200000        2.72484467360000
H           -8.04951920380000        0.86144211200000        3.17893899440000
O           10.16209981490000        3.45880817780000        2.35967947690000
H            9.46527494240000        3.51052893300000        1.66086412690000
H            9.68851137480000        3.64227640990000        3.18571859510000
O            8.13784245730000        0.41331341780000       -5.57612899080000
H            7.38363904030000       -0.08933669840000       -5.93270836570000
H            8.04499147160000        1.30120194420000       -5.94219875910000
O           11.58022210140000        2.75580323340000        0.03437137510000
H           11.36533232100000        3.15911000020000        0.88167261510000
H           11.06399796030000        3.24684071110000       -0.63253277490000
O           -2.74843900670000       -0.31687687170000       -2.44073806400000
H           -3.53850522570000       -0.60222182750000       -1.92951684300000
H           -2.85645469640000       -0.70491205040000       -3.32717615270000
O            5.19589055670000        4.97372980710000       -5.11396187990000
H            5.64109847390000        5.37043073350000       -4.35700265360000
H            4.26605690560000        5.20594557810000       -5.02961039830000
O            0.28046881350000       -1.19025892770000        4.20377520450000
H            0.23867935190000       -2.16254795440000        4.28000014130000
H           -0.61204189120000       -0.89566154020000        4.42917154980000
O           -9.22907141000000       -1.64820360790000       -0.22338558910000
H           -8.38681823730000       -1.55068640980000        0.28266824250000
H           -9.75166337290000       -0.88442253340000        0.07240189160000
O           -6.81618642070000        0.46103545640000       -5.71691062080000
H           -6.04047599590000        0.66539440560000       -6.27054742370000
H           -6.42641035740000        0.06554673490000       -4.90155587270000
O            3.81376164690000       -6.64039493610000        1.09440877920000
H            4.71359998200000       -6.37907464640000        0.82252037450000
H            3.36446270120000       -6.92960534970000        0.29199296320000
O            6.16791320810000       -5.53430969750000        0.41798194090000
H            6.72653944300000       -5.74733464350000        1.19469167060000
H            6.60066200740000       -4.78247397200000       -0.03719856140000
O           -4.82537369760000        4.34134647130000        6.07824880730000
H           -4.70508603610000        3.48367815030000        5.61888951550000
H           -5.08033185580000        4.13990617510000        6.97815391860000
O            1.61805540770000        3.24101089050000        1.28344866540000
H            2.55192772200000        3.32997407380000        1.55684528250000
H            1.09694809940000        3.76461215650000        1.90753730690000
O           -6.30278774930000        5.65933524380000        4.17429768530000
H           -5.62383591420000        5.98922734790000        3.56408865090000
H           -5.81634127490000        5.27663307600000        4.92205202620000
O           -1.81899753080000        4.96889009460000        0.87532125560000
H           -2.62145032650000        4.71291824880000        0.39106350150000
H           -1.06714838380000        4.85411125930000        0.25968532240000
O            0.27533677370000        5.06229189760000        2.85766568340000
H            0.95828401520000        5.69334920700000        2.54867084560000
H           -0.50604200900000        5.59045408060000        3.09614555660000
O            4.80996165320000       -6.00515652280000        3.64858685340000
H            4.15596602530000       -5.68565612720000        4.30160347120000
H            4.31240779750000       -6.36074917720000        2.90256665400000
O            7.68323060420000       -2.75101542750000        1.67004576550000
H            8.39496294630000       -2.66000476260000        2.33518524500000
H            7.72448341870000       -1.92467553440000        1.16471447970000
O           -3.39862266360000       -1.88059205450000       -4.48631640000000
H           -2.68699848550000       -2.54598765320000       -4.41071996330000
H           -3.66085261040000       -1.87805671460000       -5.42413540950000
O           -9.42703954580000        0.84247516170000        0.74841599940000
H           -8.60864977320000        0.97231302500000        1.25110336000000
H          -10.00275674450000        1.58239689540000        0.98786444420000
O            3.58058369720000        0.67570050940000       -7.35216829330000
H            3.55550317970000        1.61668463240000       -7.13713555020000
H            4.47621804190000        0.35690944720000       -7.14359109560000
O           -4.58712193040000        3.87134584730000       -5.08645977440000
H           -4.04277421690000        4.02624590780000       -5.88469599490000
H           -4.23310734800000        3.05751047550000       -4.70172313810000
O            6.55444014570000       -1.97581373250000        5.18526832560000
H            5.75362071990000       -2.32487094070000        5.63613494730000
H            7.04830790040000       -1.49780544250000        5.85284100600000
O            4.43988647280000       -2.92898989130000        6.54871401680000
H            3.57710500110000       -2.49174096990000        6.65496127490000
H            4.20041936770000       -3.78538472500000        6.16101073960000
O           -0.45915540200000       -5.97707979040000       -5.21259090640000
H           -1.01608789510000       -6.73634258420000       -5.03947624640000
H           -0.99932036150000       -5.19035631990000       -5.01382836180000
O            4.47840878550000        2.03766023240000       -4.66934178190000
H            3.78477503170000        2.46136286580000       -5.21383952090000
H            4.61994550070000        2.60990242680000       -3.90025753380000
O            5.43665541430000       -6.65201573740000       -1.88692648180000
H            5.89190113920000       -7.48757068980000       -1.98669209470000
H            5.77720572540000       -6.23014243140000       -1.06638106960000
O            3.72466071760000       -1.45193104560000        4.03400014260000
H            3.37290881540000       -1.64815054480000        4.90542732990000
H            4.33460407110000       -2.16045420850000        3.77174154620000
O           -0.18853383710000       -2.45572076150000        1.63867694290000
H            0.47559940290000       -2.87197768390000        2.22590787620000
H           -0.49093735730000       -1.66649647680000        2.10012891700000
O            6.17103516530000       -0.34875406960000        3.02362049380000
H            6.30283045430000       -0.92082970200000        3.79834803970000
H            6.97896713600000       -0.38371695950000        2.47593066340000
O           11.20264397370000        0.18887782330000       -0.38767452330000
H           11.48008240710000        0.08498694810000       -1.30155898600000
H           11.32946061710000        1.15184722130000       -0.19872494620000
O           -5.97550229710000       -1.10422244910000        5.50398217620000
H           -6.55962557460000       -1.56307280320000        4.88946806680000
H           -6.49007645190000       -0.38310363470000        5.88096454400000
O           -3.60958596720000       -1.87077564250000        6.54336969830000
H           -4.54351423510000       -1.67164153790000        6.36058706110000
H           -3.16337283540000       -1.67363861370000        5.68030517140000
O           -9.27367213750000        0.95899170590000       -4.44540168320000
H           -9.29260550230000        1.93055980070000       -4.37470226770000
H           -8.59257365830000        0.73923167510000       -5.09275036270000
O           -4.03818825570000       -4.63840929040000        1.22596162420000
H           -3.59266294770000       -5.21677844560000        0.56910553450000
H           -4.64390689050000       -5.23020038860000        1.71894207940000
O           -1.27265570590000        3.36899921400000        7.04340011490000
H           -1.85835009360000        2.60398632780000        7.00364492370000
H           -0.70446112960000        3.32089706610000        6.25129462180000
O          -10.83607708600000        3.16376853500000        1.33376672420000
H          -10.16517603440000        3.80028167930000        1.04573553390000
H          -11.50982242050000        3.12493674060000        0.65027029350000
O           -4.63963843050000       -1.29542158720000       -0.92956526400000
H           -4.72130526170000       -2.15690290420000       -1.38152049810000
H           -4.11275589840000       -1.47506705810000       -0.11770278650000
O           -6.14070488760000        3.06585606220000        0.67135435260000
H           -7.00386370210000        3.50005734870000        0.56534372620000
H           -6.20963673250000        2.14900116270000        0.34415448360000
O           -4.99904955800000        1.82650480850000        5.12998856350000
H           -5.91771792270000        1.62708832500000        5.36255003120000
H           -4.82161265430000        1.36369498610000        4.28789016500000
O            8.08826761420000       -4.14516528400000        4.44429375240000
H            7.45715162890000       -3.44307921730000        4.68134966580000
H            8.90202777320000       -3.69680467480000        4.18988583480000
O            6.25368926110000       -0.92328768890000       -1.22511285160000
H            7.19877400010000       -1.10786594880000       -1.10539240080000
H            6.16734022310000        0.03141930510000       -1.02998196040000
O           -7.91231940680000       -5.21932822730000        0.72651965410000
H           -7.24721589510000       -4.51388150350000        0.50144655260000
H           -8.54792754650000       -5.20389542770000       -0.00035587000000
O            2.34360048560000        6.48185574950000        1.94093459210000
H            2.77131360050000        5.97260254050000        1.21309396010000
H            2.84344291820000        6.28850632480000        2.74580352110000
O           -3.01638734450000       -5.77404325890000       -3.76506540280000
H           -3.38155314170000       -5.08659355040000       -3.19554611650000
H           -3.15878862790000       -5.45648410610000       -4.67158106870000
O           -8.39816639840000        0.33218979400000       -2.01122293370000
H           -8.74864326980000        0.31512790550000       -2.92944653450000
H           -8.76691735700000       -0.44307735820000       -1.55589018770000
O           -9.43148422360000        0.44313998340000        4.09397475000000
H          -10.10568463070000       -0.06799411250000        3.59349477640000
H           -9.79672563200000        1.36875604840000        4.12728812010000
O           -8.07501293030000       -2.02402785800000        3.85301075640000
H           -8.64702777550000       -1.30300962880000        4.13996193150000
H           -8.62198393280000       -2.58282677100000        3.25775956930000
O           -6.17202476800000       -4.14365642880000        4.22261091500000
H           -7.02394487330000       -3.75954732330000        4.44087906140000
H           -5.72984035380000       -3.47530253880000        3.64425798050000
O           -4.37987556170000       -3.66103204900000       -2.29144126320000
H           -4.77694455740000       -3.51667427100000       -3.17269637560000
H           -4.89809027870000       -4.36374461590000       -1.86076930650000
O            9.78710996810000       -0.89191757140000       -3.66376007710000
H            9.16048888840000       -0.70386608730000       -4.37503167340000
H           10.29014139420000       -0.06680008050000       -3.53366356040000
O            0.22114277770000       -4.35900668930000       -2.08792726610000
H            0.87407096020000       -4.77784764120000       -2.66365928700000
H            0.72283541130000       -3.79703026230000       -1.45457093580000
O           -5.03656997380000       -2.33914116970000        2.68827306030000
H           -4.29161656420000       -2.49477473210000        2.08842812230000
H           -5.06741004660000       -1.37933003780000        2.83512495430000
O           11.80632951300000       -1.19637347420000        1.69602421490000
H           11.60167128240000       -0.71466355030000        0.84360338910000
H           12.75943195110000       -1.21896625530000        1.77615182060000
O           -3.78588914140000       -7.99556391510000        1.71957253840000
H           -3.00243934280000       -7.62581457450000        2.16097553730000
H           -4.55380731730000       -7.57501326920000        2.12489005100000
O           -4.43166351650000       -1.73449215320000       -6.96891734580000
H           -4.41787985670000       -0.76082266780000       -7.02506512510000
H           -5.34670892220000       -2.01208233410000       -7.04750234250000
O            0.63073550250000        7.50456276670000        0.04895839590000
H            1.32702450350000        7.46614774160000        0.71758480800000
H           -0.19768599090000        7.68867396150000        0.54791589420000
O            4.82102709410000       -1.44107949790000        0.93414734560000
H            5.40422709790000       -1.44837907570000        0.14529093230000
H            5.35052868190000       -1.23121414940000        1.72598729920000
O           -1.09494560610000        2.63580578050000        2.05132886840000
H           -1.26128009380000        3.58799339310000        2.06837957670000
H           -0.39358536870000        2.41541886590000        2.67247482880000
O            2.62358793640000        3.15145347770000       -6.23266933860000
H            1.77922121360000        2.75116231140000       -5.97200725560000