 Entering Gaussian System
 *********************************************
 Gaussian 98:
 frequency output generated by the xtb code
 *********************************************
                         Standard orientation:
 --------------------------------------------------------------------
  Center     Atomic     Atomic              Coordinates (Angstroms)
  Number     Number      Type              X           Y           Z
 --------------------------------------------------------------------
    1          8             0       -2.803777    4.376564    0.332388
    2          1             0       -3.342538    5.166358    0.304184
    3          1             0       -2.228297    4.453085    1.141482
    4          8             0       -1.743745    0.405053   -0.749025
    5          1             0       -2.283924   -0.401982   -0.579283
    6          1             0       -0.830417    0.122252   -0.458670
    7          8             0       -2.184494   -3.714283   -1.569329
    8          1             0       -2.654382   -3.026989   -1.067259
    9          1             0       -1.583762   -4.128373   -0.925044
   10          8             0       -1.526019    1.636580    3.030186
   11          1             0       -1.708801    0.791994    3.466709
   12          1             0       -2.193849    1.686735    2.306611
   13          8             0       -2.952307   -1.748735    0.161801
   14          1             0       -2.219979   -1.989152    0.760809
   15          1             0       -3.665134   -1.413941    0.750602
   16          8             0       -0.719887   -2.514641   -3.384057
   17          1             0       -1.301357   -2.953109   -2.704576
   18          1             0       -0.797615   -3.038754   -4.180977
   19          8             0        1.719120   -2.632716   -2.137046
   20          1             0        0.867050   -2.470570   -2.575205
   21          1             0        2.313779   -1.893676   -2.381833
   22          8             0        2.829134   -2.600583    0.336775
   23          1             0        2.238871   -2.484459   -0.434559
   24          1             0        3.435877   -1.839236    0.290024
   25          8             0        3.309482   -0.455149   -2.350500
   26          1             0        2.687230    0.274383   -2.483436
   27          1             0        3.673345   -0.332388   -1.462421
   28          8             0        1.204536    1.338601   -2.292277
   29          1             0        0.859176    2.218056   -2.118501
   30          1             0        0.494659    0.901367   -2.827400
   31          8             0        0.894762    3.865183    0.626590
   32          1             0        0.264905    3.573275   -0.081371
   33          1             0        1.608943    4.330883    0.192803
   34          8             0       -1.178035    4.377793    2.407869
   35          1             0       -0.328221    4.318783    1.943157
   36          1             0       -1.293474    3.530625    2.862966
   37          8             0       -3.257947    1.761206    1.007307
   38          1             0       -2.731186    1.293462    0.322552
   39          1             0       -3.312674    2.686662    0.721926
   40          8             0       -0.933097    0.217450   -3.372175
   41          1             0       -1.430308    0.308681   -2.540613
   42          1             0       -0.835045   -0.741015   -3.498053
   43          8             0        0.918558    1.492542    1.945636
   44          1             0        0.052195    1.511524    2.407014
   45          1             0        1.021368    2.361819    1.524431
   46          8             0        4.247615   -0.264240    0.347396
   47          1             0        5.194611   -0.222827    0.478863
   48          1             0        3.834969   -0.033069    1.225130
   49          8             0       -2.251093   -0.983571    3.705272
   50          1             0       -1.794304   -1.555733    3.056868
   51          1             0       -2.242211   -1.454327    4.538569
   52          8             0       -0.886804    3.080878   -1.161821
   53          1             0       -1.190234    2.160749   -1.112025
   54          1             0       -1.633325    3.618099   -0.848964
   55          8             0       -0.531282   -4.813650    0.378362
   56          1             0       -0.804982   -5.716556    0.541429
   57          1             0        0.360068   -4.870128   -0.061526
   58          8             0       -0.959601   -2.532273    1.881883
   59          1             0       -0.856149   -3.385940    1.428104
   60          1             0       -0.046297   -2.229057    2.054768
   61          8             0        3.120353    0.132429    2.690578
   62          1             0        2.642005   -0.704652    2.821482
   63          1             0        2.407377    0.776851    2.533273
   64          8             0        1.634769   -2.199471    2.596867
   65          1             0        1.895884   -2.941644    3.142329
   66          1             0        2.049230   -2.353746    1.697207
   67          8             0        1.821869   -4.985559   -0.791877
   68          1             0        2.475688   -4.621897   -0.183874
   69          1             0        1.767732   -4.312695   -1.495997
   70          8             0        0.702328   -0.261960   -0.096894
   71          1             0        0.873018    0.276306    0.699697
   72          1             0        1.107293    0.215976   -0.841469
   73          8             0       -4.453235   -0.535289    2.007483
   74          1             0       -3.831773   -0.662702    2.740548
   75          1             0       -4.295743    0.367024    1.691211
 --------------------------------------------------------------------
     1 basis functions        1 primitive gaussians
     1 alpha electrons        1 beta electrons
 
 Harmonic frequencies (cm**-1), IR intensities (km*mol⁻¹),
 Raman scattering activities (A**4/amu), Raman depolarization ratios,
 reduced masses (AMU), force constants (mDyne/A) and normal coordinates:
                      1                      2                      3
                        a                      a                      a 
 Frequencies --    24.5006                25.4634                32.3297
 Red. masses --    14.3269                14.2733                14.3325
 Frc consts  --     0.0000                 0.0000                 0.0000
 IR Inten    --     0.8494                 0.0416                 0.5965
 Raman Activ --     0.0000                 0.0000                 0.0000
 Depolar     --     0.0000                 0.0000                 0.0000
 Atom AN      X      Y      Z        X      Y      Z        X      Y      Z
   1   8     0.04   0.09   0.11     0.17  -0.00   0.10     0.09  -0.00   0.09
   2   1     0.02   0.03   0.04     0.05   0.01   0.04     0.02   0.00   0.02
   3   1     0.02   0.01   0.02     0.05  -0.02   0.02     0.01  -0.01   0.03
   4   8    -0.16   0.10  -0.05    -0.06  -0.04  -0.09     0.09   0.03  -0.05
   5   1    -0.04   0.03  -0.02    -0.02  -0.01  -0.01     0.02   0.01  -0.02
   6   1    -0.04   0.02  -0.01    -0.01  -0.02  -0.04     0.02   0.00  -0.01
   7   8    -0.01  -0.01   0.08     0.07   0.04   0.03     0.05  -0.09   0.12
   8   1    -0.01   0.00   0.01     0.01   0.01   0.01     0.01  -0.01   0.02
   9   1    -0.02  -0.00   0.03     0.03   0.02   0.01     0.02  -0.01   0.04
  10   8    -0.06   0.02   0.06     0.04  -0.11  -0.02    -0.10  -0.14   0.00
  11   1    -0.02   0.00   0.01    -0.01  -0.02   0.00    -0.04  -0.03   0.00
  12   1    -0.01   0.01   0.01     0.01  -0.02  -0.00    -0.02  -0.03  -0.01
  13   8    -0.12   0.07  -0.06    -0.02  -0.00   0.05     0.04   0.05  -0.08
  14   1    -0.02   0.03  -0.02    -0.01   0.01   0.01     0.01   0.03  -0.01
  15   1    -0.03   0.02  -0.01    -0.01   0.00   0.01    -0.00   0.01  -0.03
  16   8     0.21  -0.03   0.26    -0.03   0.01  -0.08    -0.09  -0.05   0.02
  17   1     0.03  -0.00   0.05     0.00   0.01  -0.01    -0.01  -0.02   0.01
  18   1     0.06   0.00   0.06    -0.01  -0.01  -0.01    -0.03  -0.01   0.01
  19   8     0.38  -0.13  -0.10    -0.06   0.12   0.01    -0.06  -0.10  -0.05
  20   1     0.07  -0.02   0.03    -0.01   0.02  -0.01    -0.02  -0.03  -0.01
  21   1     0.07  -0.01  -0.02    -0.01   0.03   0.01    -0.01  -0.03  -0.03
  22   8     0.35  -0.08  -0.12    -0.14   0.23   0.07    -0.02   0.07  -0.07
  23   1     0.12  -0.05  -0.06    -0.05   0.06   0.03    -0.01   0.01  -0.01
  24   1     0.07  -0.00  -0.01    -0.04   0.06   0.02    -0.00   0.02  -0.03
  25   8     0.02   0.13   0.03    -0.02   0.12   0.05    -0.03  -0.13  -0.21
  26   1    -0.01   0.02   0.01    -0.01   0.02  -0.01    -0.00  -0.03  -0.05
  27   1     0.00   0.04   0.01    -0.02   0.04   0.02     0.01  -0.03  -0.06
  28   8    -0.09   0.01   0.02    -0.10   0.02  -0.16     0.07  -0.01  -0.02
  29   1    -0.02   0.00   0.00    -0.04  -0.00  -0.03     0.02  -0.00  -0.00
  30   1    -0.02  -0.00   0.00    -0.02   0.00  -0.04     0.02  -0.00  -0.00
  31   8     0.02  -0.14  -0.05     0.15  -0.28  -0.11     0.01   0.04   0.26
  32   1    -0.01  -0.02  -0.01     0.02  -0.05  -0.02     0.02   0.01   0.05
  33   1     0.02  -0.06  -0.01     0.06  -0.10  -0.03     0.01   0.01   0.08
  34   8     0.12  -0.01   0.04     0.28  -0.15   0.02    -0.08  -0.12   0.22
  35   1     0.03  -0.02   0.00     0.06  -0.05  -0.00    -0.01  -0.02   0.07
  36   1     0.02   0.00   0.01     0.06  -0.04  -0.00    -0.02  -0.04   0.04
  37   8    -0.05   0.08   0.05     0.04  -0.01  -0.01    -0.00  -0.02  -0.07
  38   1    -0.02   0.02   0.01     0.00  -0.00  -0.01     0.01   0.00  -0.02
  39   1    -0.01   0.02   0.02     0.02   0.00   0.01     0.01  -0.00  -0.01
  40   8    -0.03  -0.05  -0.02    -0.11  -0.00  -0.13     0.08  -0.02  -0.03
  41   1    -0.02   0.00  -0.01    -0.03  -0.00  -0.03     0.02   0.00  -0.01
  42   1     0.01  -0.02   0.03    -0.02  -0.00  -0.03     0.01  -0.01  -0.00
  43   8    -0.10  -0.12  -0.01    -0.04  -0.27  -0.13    -0.06  -0.07   0.05
  44   1    -0.02  -0.02   0.00    -0.00  -0.06  -0.02    -0.02  -0.03   0.01
  45   1    -0.02  -0.03  -0.01     0.00  -0.07  -0.03    -0.02  -0.01   0.03
  46   8     0.04   0.13   0.01    -0.11   0.20   0.11     0.04   0.04  -0.25
  47   1     0.01   0.06   0.01    -0.03   0.04   0.01     0.01   0.00  -0.07
  48   1    -0.00   0.01   0.00    -0.01   0.03   0.04     0.02   0.02  -0.06
  49   8    -0.01   0.00  -0.03    -0.12  -0.03   0.06    -0.32  -0.07   0.00
  50   1    -0.00   0.01  -0.02    -0.02  -0.01   0.02    -0.05  -0.00   0.01
  51   1     0.00  -0.01  -0.01    -0.03  -0.01   0.02    -0.10  -0.03  -0.01
  52   8    -0.09   0.06  -0.03    -0.00  -0.05  -0.06     0.14   0.04   0.11
  53   1    -0.03   0.02  -0.01    -0.01  -0.01  -0.02     0.03   0.01   0.02
  54   1    -0.01   0.02   0.01     0.01  -0.00   0.00     0.03   0.01   0.02
  55   8    -0.07  -0.03   0.11     0.10   0.10   0.04     0.05   0.09   0.24
  56   1    -0.02  -0.01   0.03     0.03   0.02   0.00     0.01   0.03   0.07
  57   1    -0.02  -0.01   0.03     0.03   0.03   0.01     0.01   0.01   0.05
  58   8    -0.04   0.15  -0.14    -0.01   0.04   0.09    -0.00   0.21   0.04
  59   1    -0.02   0.02  -0.01     0.00   0.02   0.01     0.01   0.04   0.03
  60   1    -0.00   0.03  -0.06    -0.01   0.01   0.04    -0.00   0.06   0.00
  61   8    -0.07  -0.06  -0.02    -0.01   0.01   0.19     0.15   0.11  -0.21
  62   1    -0.01  -0.02  -0.03     0.02  -0.01   0.06     0.04   0.03  -0.04
  63   1    -0.02  -0.02  -0.00    -0.02  -0.02   0.02     0.03   0.02  -0.03
  64   8     0.02  -0.09  -0.28    -0.02  -0.01   0.17     0.03   0.17  -0.05
  65   1    -0.01  -0.03  -0.07    -0.01  -0.02   0.02     0.00   0.04  -0.01
  66   1     0.03  -0.02  -0.06    -0.01   0.02   0.03    -0.00   0.03  -0.02
  67   8    -0.05  -0.09   0.14     0.11   0.18   0.06    -0.01   0.01   0.16
  68   1     0.00  -0.03   0.03     0.02   0.06   0.01     0.00   0.02   0.02
  69   1     0.02  -0.04   0.02     0.02   0.04   0.01    -0.01  -0.02   0.02
  70   8    -0.20  -0.05  -0.04    -0.04  -0.12  -0.24     0.07  -0.01  -0.02
  71   1    -0.04  -0.02  -0.00    -0.01  -0.05  -0.05     0.01  -0.01  -0.00
  72   1    -0.04  -0.01  -0.00    -0.02  -0.02  -0.05     0.02   0.00  -0.00
  73   8    -0.04   0.05   0.02    -0.06   0.03  -0.00    -0.14  -0.01  -0.21
  74   1    -0.01   0.01   0.00    -0.02   0.00   0.00    -0.06  -0.01  -0.04
  75   1    -0.01   0.02   0.01    -0.00   0.01  -0.00    -0.02  -0.00  -0.04
                      4                      5                      6
                        a                      a                      a 
 Frequencies --    37.0536                38.6506                40.9731
 Red. masses --    14.2260                14.4565                14.3736
 Frc consts  --     0.0000                 0.0000                 0.0000
 IR Inten    --     0.1660                 0.3492                 0.6142
 Raman Activ --     0.0000                 0.0000                 0.0000
 Depolar     --     0.0000                 0.0000                 0.0000
 Atom AN      X      Y      Z        X      Y      Z        X      Y      Z
   1   8     0.10   0.07  -0.20     0.05   0.13   0.18    -0.10  -0.09   0.03
   2   1     0.04   0.03  -0.07     0.02   0.03   0.06    -0.04  -0.03   0.02
   3   1     0.01   0.02  -0.04     0.02   0.02   0.04    -0.03  -0.02   0.01
   4   8     0.07  -0.02   0.10    -0.02   0.17  -0.06     0.10   0.02  -0.15
   5   1     0.03  -0.01   0.03     0.01   0.03  -0.03     0.03   0.01  -0.02
   6   1     0.02   0.00   0.02    -0.00   0.05  -0.01     0.03   0.01  -0.06
   7   8     0.02  -0.08   0.11    -0.07  -0.32   0.05    -0.05   0.12   0.02
   8   1     0.01  -0.02   0.03    -0.00  -0.06   0.00    -0.00   0.03   0.01
   9   1     0.01  -0.02   0.02    -0.01  -0.07   0.01    -0.03   0.01   0.01
  10   8    -0.19   0.13  -0.02     0.06  -0.02  -0.04     0.09  -0.13  -0.08
  11   1    -0.04   0.03  -0.01     0.02  -0.01  -0.02     0.02  -0.03  -0.01
  12   1    -0.04   0.03  -0.01     0.01   0.01  -0.00     0.02  -0.04  -0.02
  13   8     0.12  -0.05   0.11     0.16   0.01  -0.23     0.13   0.09   0.09
  14   1     0.02  -0.02   0.04     0.04   0.00  -0.06     0.03   0.02   0.02
  15   1     0.02  -0.00   0.02     0.04  -0.01  -0.06     0.03   0.02   0.02
  16   8    -0.11  -0.03   0.04    -0.13  -0.13   0.13     0.06   0.09   0.09
  17   1    -0.01  -0.01   0.02    -0.03  -0.05   0.02     0.00   0.03   0.02
  18   1    -0.04  -0.01   0.01    -0.01  -0.03   0.02     0.02   0.02   0.02
  19   8    -0.02   0.02  -0.13    -0.16  -0.02   0.18     0.09  -0.09   0.00
  20   1    -0.01   0.00  -0.02    -0.04  -0.02   0.05     0.01  -0.01   0.02
  21   1    -0.01   0.01  -0.03    -0.05  -0.00   0.04     0.02  -0.02   0.01
  22   8     0.08   0.07  -0.17    -0.00  -0.03   0.09     0.05  -0.02   0.01
  23   1     0.02   0.01  -0.04    -0.01  -0.01   0.03     0.02  -0.01  -0.01
  24   1    -0.01   0.04  -0.03    -0.01  -0.00   0.02     0.01  -0.00   0.01
  25   8    -0.04   0.05  -0.10    -0.19  -0.01   0.08    -0.01  -0.00   0.03
  26   1    -0.01   0.01  -0.03    -0.03   0.01   0.00     0.01   0.01  -0.02
  27   1    -0.02   0.02  -0.02    -0.05   0.01   0.02    -0.02   0.01   0.01
  28   8    -0.02   0.02  -0.06    -0.08   0.14  -0.11     0.07   0.19  -0.26
  29   1    -0.01   0.00  -0.01    -0.04   0.03  -0.04     0.01   0.04  -0.04
  30   1    -0.01  -0.00  -0.00    -0.01   0.01  -0.02     0.02   0.04  -0.06
  31   8     0.13  -0.03   0.17     0.01   0.08  -0.05    -0.10   0.18   0.08
  32   1     0.04  -0.01   0.03    -0.00   0.03  -0.01    -0.01   0.04   0.01
  33   1     0.05  -0.03   0.05     0.00   0.01  -0.02    -0.04   0.08   0.03
  34   8    -0.06   0.11  -0.08     0.13   0.01   0.12    -0.16  -0.08   0.08
  35   1    -0.00   0.02   0.00     0.03   0.00   0.02    -0.04   0.00   0.02
  36   1    -0.03   0.03  -0.01     0.03  -0.01   0.02    -0.02  -0.03   0.01
  37   8    -0.07   0.10  -0.12     0.01   0.08   0.01     0.07  -0.12  -0.05
  38   1    -0.00   0.01  -0.01    -0.00   0.03  -0.01     0.02  -0.02  -0.02
  39   1    -0.00   0.02  -0.04     0.01   0.03   0.02     0.00  -0.03  -0.00
  40   8    -0.07  -0.02   0.07    -0.01  -0.09  -0.04     0.06   0.10  -0.17
  41   1    -0.00  -0.01   0.03    -0.00   0.00  -0.01     0.02   0.03  -0.04
  42   1    -0.02  -0.01   0.01    -0.01  -0.03   0.01     0.02   0.02  -0.03
  43   8    -0.12  -0.03   0.16     0.09   0.12   0.02     0.03   0.00  -0.22
  44   1    -0.04   0.01   0.02     0.02   0.02  -0.00     0.01  -0.01  -0.05
  45   1    -0.00  -0.01   0.05     0.01   0.03   0.00     0.00   0.02  -0.03
  46   8    -0.22   0.26  -0.02    -0.13   0.04   0.05    -0.05   0.04   0.05
  47   1    -0.05   0.08  -0.01    -0.03   0.02  -0.00    -0.01   0.02   0.01
  48   1    -0.05   0.02   0.01    -0.02   0.00   0.02    -0.02  -0.00   0.01
  49   8    -0.01   0.08  -0.03     0.08  -0.07  -0.18     0.05  -0.04   0.14
  50   1     0.00   0.00   0.01     0.02  -0.02  -0.05     0.00  -0.02   0.04
  51   1    -0.01   0.04   0.00     0.02  -0.02  -0.05     0.01   0.00   0.04
  52   8     0.21  -0.04   0.08    -0.07   0.18  -0.03     0.02   0.07   0.01
  53   1     0.04  -0.01   0.03    -0.02   0.05  -0.01     0.02   0.01  -0.00
  54   1     0.05   0.00  -0.00    -0.01   0.04   0.01    -0.01   0.01   0.00
  55   8     0.07  -0.12   0.05     0.05  -0.20   0.04    -0.25  -0.07   0.09
  56   1     0.03  -0.04  -0.00     0.03  -0.05   0.02    -0.07  -0.02   0.01
  57   1     0.01  -0.01   0.00     0.01  -0.04   0.01    -0.06  -0.02   0.03
  58   8     0.02  -0.19   0.18     0.07  -0.05  -0.18    -0.02  -0.10   0.17
  59   1    -0.01  -0.05   0.04     0.02  -0.02  -0.03    -0.03  -0.03   0.04
  60   1     0.01  -0.06   0.04     0.02  -0.02  -0.03     0.00  -0.05   0.04
  61   8    -0.16  -0.16   0.08    -0.03  -0.02   0.10    -0.11  -0.05   0.03
  62   1    -0.03  -0.05  -0.00    -0.01  -0.00   0.02    -0.02  -0.01   0.01
  63   1    -0.05  -0.04   0.04    -0.00   0.00   0.02    -0.03  -0.02  -0.01
  64   8     0.09  -0.31  -0.10     0.00  -0.05   0.09     0.02  -0.15   0.01
  65   1     0.04  -0.09  -0.05     0.00  -0.01   0.03     0.02  -0.03  -0.00
  66   1     0.02  -0.04  -0.03     0.01  -0.01   0.03     0.01  -0.02  -0.00
  67   8     0.03   0.03  -0.08     0.06  -0.08   0.03    -0.19  -0.03   0.19
  68   1     0.02   0.01  -0.03     0.02  -0.02   0.01    -0.04  -0.01   0.05
  69   1    -0.00   0.01  -0.02     0.00  -0.01   0.02    -0.03  -0.02   0.04
  70   8     0.11   0.08   0.02    -0.02   0.22  -0.03     0.15   0.09  -0.31
  71   1     0.02   0.02   0.01     0.01   0.05  -0.01     0.03   0.02  -0.07
  72   1     0.02   0.03   0.01    -0.01   0.05  -0.01     0.03   0.03  -0.08
  73   8     0.01   0.07  -0.06     0.12  -0.09  -0.22     0.06  -0.03   0.11
  74   1     0.00   0.03  -0.01     0.03  -0.02  -0.05     0.01  -0.01   0.03
  75   1    -0.01   0.02  -0.02     0.02  -0.01  -0.04     0.02  -0.01   0.02
                      7                      8                      9
                        a                      a                      a 
 Frequencies --    43.0036                45.4612                47.9327
 Red. masses --    14.4309                14.4368                14.3713
 Frc consts  --     0.0000                 0.0000                 0.0000
 IR Inten    --     0.3527                 1.1775                 0.9342
 Raman Activ --     0.0000                 0.0000                 0.0000
 Depolar     --     0.0000                 0.0000                 0.0000
 Atom AN      X      Y      Z        X      Y      Z        X      Y      Z
   1   8     0.14   0.01   0.08     0.03   0.10   0.04    -0.07   0.07   0.08
   2   1     0.03   0.00   0.02     0.01   0.03   0.00    -0.01   0.02   0.04
   3   1     0.03   0.00   0.02     0.00   0.02   0.02    -0.00   0.01   0.01
   4   8     0.01  -0.10   0.16    -0.13   0.05  -0.04    -0.01   0.05   0.07
   5   1    -0.00  -0.02   0.04    -0.03   0.01  -0.01     0.01   0.00   0.03
   6   1     0.00  -0.03   0.03    -0.03   0.00  -0.02     0.00   0.03   0.02
   7   8    -0.00  -0.02  -0.10     0.24   0.09   0.06     0.18   0.04   0.13
   8   1    -0.01  -0.01  -0.02     0.04   0.01   0.02     0.04   0.01   0.03
   9   1    -0.01  -0.02  -0.02     0.07   0.03   0.01     0.04   0.01   0.03
  10   8     0.14  -0.01  -0.06    -0.08   0.06  -0.07     0.06  -0.08  -0.12
  11   1     0.04  -0.01  -0.02    -0.01   0.01  -0.02     0.00  -0.01  -0.02
  12   1     0.02   0.00  -0.00    -0.02   0.02  -0.02     0.01  -0.01  -0.02
  13   8    -0.12  -0.10  -0.02     0.01   0.01   0.07     0.09   0.01   0.12
  14   1    -0.04  -0.05   0.00     0.01   0.01   0.01     0.00  -0.01   0.05
  15   1    -0.03  -0.01  -0.01     0.00   0.00   0.02     0.01   0.01   0.01
  16   8     0.12  -0.02   0.01     0.07   0.19   0.01     0.06   0.03   0.04
  17   1     0.02  -0.01  -0.01     0.03   0.04   0.01     0.03   0.01   0.02
  18   1     0.02   0.01  -0.01     0.01   0.05   0.00    -0.00   0.01   0.01
  19   8     0.16  -0.11  -0.08     0.03  -0.19   0.03     0.14  -0.02  -0.13
  20   1     0.04  -0.02  -0.01     0.01  -0.03   0.01     0.03  -0.00  -0.02
  21   1     0.04  -0.02  -0.02     0.01  -0.05   0.02     0.02   0.01  -0.02
  22   8    -0.06   0.15   0.01    -0.08  -0.20   0.09    -0.11  -0.07  -0.04
  23   1     0.00   0.02  -0.01    -0.02  -0.06   0.02    -0.01  -0.02  -0.03
  24   1    -0.02   0.04   0.00    -0.02  -0.05   0.01    -0.02  -0.03  -0.01
  25   8     0.04  -0.01  -0.05    -0.07  -0.14   0.02    -0.02   0.11  -0.01
  26   1    -0.01  -0.02  -0.02    -0.02  -0.04  -0.00    -0.00   0.03   0.01
  27   1     0.00   0.01  -0.01    -0.02  -0.03   0.01    -0.00   0.01  -0.00
  28   8    -0.09  -0.16  -0.08    -0.05  -0.08  -0.07    -0.01   0.18   0.02
  29   1    -0.01  -0.04  -0.00     0.01  -0.01   0.00    -0.01   0.04  -0.01
  30   1    -0.04  -0.03  -0.01    -0.03   0.01  -0.02     0.00   0.03   0.01
  31   8     0.08   0.29   0.05     0.00   0.13   0.13    -0.04  -0.05  -0.21
  32   1     0.03   0.04   0.02     0.01   0.03   0.03    -0.03  -0.01  -0.04
  33   1     0.00   0.09   0.00    -0.00   0.05   0.04    -0.02  -0.01  -0.07
  34   8     0.08   0.03   0.13    -0.04   0.07   0.09     0.10  -0.06  -0.05
  35   1     0.02   0.03   0.03    -0.01   0.02   0.03     0.01  -0.02  -0.03
  36   1     0.03  -0.00   0.02    -0.01   0.01   0.01     0.03  -0.02  -0.02
  37   8     0.02   0.03   0.05    -0.10   0.09  -0.05    -0.08   0.05  -0.00
  38   1     0.00  -0.00   0.02    -0.03   0.02  -0.01    -0.02   0.02  -0.00
  39   1     0.02   0.01   0.01    -0.01   0.03  -0.01    -0.02   0.02   0.01
  40   8    -0.23  -0.06   0.09    -0.18   0.17  -0.07     0.04   0.02   0.09
  41   1    -0.04  -0.02   0.04    -0.04   0.04  -0.02     0.01   0.00   0.02
  42   1    -0.04  -0.01   0.02    -0.03   0.04  -0.01     0.02   0.01   0.02
  43   8     0.10   0.16  -0.16    -0.14  -0.04  -0.18     0.18   0.09   0.06
  44   1     0.03   0.03  -0.04    -0.03  -0.00  -0.04     0.04   0.01  -0.00
  45   1     0.02   0.05  -0.02    -0.02  -0.00  -0.02     0.02   0.01  -0.01
  46   8    -0.06   0.14  -0.01    -0.09  -0.20  -0.00     0.09  -0.20  -0.04
  47   1    -0.01   0.03  -0.00    -0.02  -0.05   0.00     0.02  -0.08  -0.01
  48   1    -0.01   0.03   0.00    -0.03  -0.03  -0.01     0.03  -0.04  -0.01
  49   8    -0.01   0.00  -0.07     0.05   0.06  -0.03    -0.29   0.02   0.04
  50   1    -0.02  -0.02  -0.01     0.01   0.01  -0.00    -0.06  -0.02   0.04
  51   1    -0.01   0.01  -0.01     0.02   0.02  -0.00    -0.11   0.02   0.02
  52   8     0.12  -0.09   0.15     0.06   0.06   0.10    -0.20   0.08  -0.10
  53   1     0.03  -0.02   0.05     0.01   0.02   0.02    -0.04   0.02  -0.02
  54   1     0.03  -0.02   0.03     0.01   0.02   0.02    -0.04   0.02  -0.01
  55   8    -0.06  -0.15  -0.14     0.31   0.06  -0.02     0.15  -0.08   0.08
  56   1    -0.01  -0.04  -0.05     0.05   0.02  -0.01     0.04  -0.02   0.00
  57   1     0.00  -0.02  -0.01     0.07  -0.01  -0.01     0.03  -0.01   0.01
  58   8    -0.20  -0.24  -0.03     0.09   0.02   0.02    -0.16  -0.24   0.29
  59   1    -0.04  -0.06  -0.01     0.03   0.01  -0.01    -0.03  -0.05   0.06
  60   1    -0.05  -0.04  -0.02     0.02   0.01   0.02    -0.04  -0.04   0.06
  61   8    -0.05   0.07   0.01    -0.12   0.04  -0.07     0.10  -0.13  -0.04
  62   1    -0.03   0.03  -0.01    -0.02   0.00   0.00    -0.00  -0.02  -0.02
  63   1     0.00   0.03  -0.01    -0.04  -0.01  -0.04     0.05  -0.01   0.00
  64   8    -0.26   0.19  -0.11     0.06  -0.06   0.15    -0.13   0.01  -0.07
  65   1    -0.06   0.06  -0.02     0.01  -0.01   0.05    -0.02   0.01  -0.02
  66   1    -0.05   0.05  -0.02     0.01  -0.03   0.03    -0.04  -0.00  -0.02
  67   8     0.12   0.02   0.19     0.26  -0.24  -0.10     0.07  -0.06  -0.11
  68   1     0.00   0.04   0.06     0.06  -0.06  -0.02     0.01  -0.00  -0.03
  69   1     0.04  -0.02   0.02     0.06  -0.06  -0.02     0.02  -0.02  -0.03
  70   8     0.07  -0.07   0.01    -0.15  -0.10  -0.13     0.03   0.17   0.02
  71   1     0.03   0.00  -0.01    -0.03  -0.02  -0.04     0.02   0.03   0.01
  72   1    -0.00  -0.03  -0.02    -0.03  -0.03  -0.04     0.00   0.05   0.00
  73   8    -0.04   0.03  -0.03     0.00   0.05   0.04    -0.16   0.06  -0.12
  74   1    -0.01   0.00  -0.01     0.01   0.02   0.01    -0.05   0.02  -0.02
  75   1    -0.01   0.01  -0.01    -0.01   0.01   0.00    -0.03   0.01  -0.03
                     10                     11                     12
                        a                      a                      a 
 Frequencies --    49.7239                55.0937                58.7588
 Red. masses --    14.3719                14.4032                14.4521
 Frc consts  --     0.0000                 0.0000                 0.0000
 IR Inten    --     1.4626                 0.4558                 1.4313
 Raman Activ --     0.0000                 0.0000                 0.0000
 Depolar     --     0.0000                 0.0000                 0.0000
 Atom AN      X      Y      Z        X      Y      Z        X      Y      Z
   1   8     0.03  -0.03  -0.07     0.06   0.02  -0.02    -0.09  -0.03  -0.04
   2   1     0.02   0.00  -0.03    -0.01  -0.01  -0.00    -0.03  -0.01  -0.01
   3   1    -0.00  -0.02  -0.01    -0.00   0.01   0.01    -0.03  -0.00  -0.01
   4   8    -0.06  -0.07   0.03     0.01  -0.04  -0.14    -0.06  -0.03  -0.06
   5   1    -0.02  -0.02   0.00    -0.01   0.00  -0.03    -0.01  -0.01  -0.01
   6   1    -0.02  -0.02   0.00    -0.00  -0.02  -0.03    -0.02   0.00   0.00
   7   8    -0.12  -0.13   0.13    -0.03  -0.09   0.21     0.15   0.07  -0.04
   8   1    -0.03  -0.03   0.03    -0.01  -0.01   0.04     0.02   0.01  -0.02
   9   1    -0.03  -0.03   0.03     0.00  -0.01   0.05     0.04   0.03  -0.00
  10   8     0.02  -0.10  -0.36     0.10   0.01   0.20     0.17  -0.03  -0.14
  11   1     0.00  -0.02  -0.08     0.02   0.00   0.05     0.03   0.00  -0.02
  12   1    -0.01  -0.02  -0.07     0.04  -0.00   0.03     0.04  -0.01  -0.03
  13   8    -0.10  -0.06   0.04    -0.10   0.08   0.02    -0.11   0.01  -0.05
  14   1    -0.02  -0.01   0.01    -0.02   0.02   0.00    -0.02   0.02  -0.02
  15   1    -0.02  -0.01   0.01    -0.02   0.03   0.00    -0.02   0.00  -0.01
  16   8    -0.11   0.06   0.25    -0.06  -0.27   0.05     0.03  -0.09  -0.24
  17   1    -0.03   0.00   0.05    -0.01  -0.05   0.03     0.02  -0.01  -0.04
  18   1     0.00   0.01   0.06    -0.02  -0.09   0.03    -0.02  -0.02  -0.06
  19   8    -0.03   0.27   0.12     0.04   0.15  -0.10     0.00  -0.15  -0.16
  20   1    -0.02   0.07   0.05     0.01   0.02  -0.02     0.01  -0.04  -0.06
  21   1    -0.01   0.06   0.03     0.00   0.04  -0.02    -0.00  -0.03  -0.02
  22   8     0.14  -0.05   0.03    -0.08  -0.04  -0.05    -0.02   0.02  -0.11
  23   1     0.03   0.01   0.01    -0.01   0.00  -0.02    -0.00  -0.00  -0.03
  24   1     0.05  -0.03   0.01    -0.01  -0.01   0.00    -0.02   0.01  -0.02
  25   8     0.09   0.17   0.12     0.12   0.12   0.06    -0.12  -0.02   0.10
  26   1     0.02   0.04   0.04     0.03   0.03   0.02    -0.04  -0.01   0.01
  27   1     0.03   0.03   0.03     0.02   0.02   0.02    -0.04   0.01   0.02
  28   8    -0.06  -0.02  -0.03     0.01  -0.04  -0.06    -0.15  -0.05  -0.09
  29   1    -0.02  -0.01   0.02    -0.02  -0.02  -0.01    -0.04  -0.01  -0.02
  30   1    -0.02   0.00  -0.01     0.02  -0.03  -0.02    -0.04  -0.02  -0.02
  31   8     0.12   0.12   0.09    -0.15   0.14   0.11    -0.03   0.05   0.11
  32   1     0.03   0.01   0.03    -0.02   0.02   0.02    -0.00  -0.01   0.03
  33   1     0.02   0.05   0.02    -0.04   0.06   0.04    -0.04   0.06   0.03
  34   8    -0.04  -0.09  -0.03    -0.13   0.06   0.14    -0.13  -0.00  -0.01
  35   1    -0.00   0.00   0.01    -0.03   0.02   0.04    -0.03   0.01   0.00
  36   1    -0.01  -0.04  -0.03    -0.02   0.02   0.04    -0.02  -0.01  -0.01
  37   8    -0.22  -0.01  -0.16     0.29   0.01   0.05     0.02  -0.04  -0.02
  38   1    -0.06  -0.01  -0.04     0.06  -0.00   0.00    -0.01  -0.01  -0.01
  39   1    -0.04  -0.00  -0.04     0.06   0.00   0.00    -0.00  -0.01  -0.00
  40   8    -0.14   0.06   0.01     0.13  -0.24  -0.12    -0.14  -0.09  -0.09
  41   1    -0.03   0.02   0.01     0.02  -0.04  -0.04    -0.02  -0.03  -0.02
  42   1    -0.04   0.01   0.01     0.02  -0.06  -0.02    -0.02  -0.02  -0.03
  43   8     0.15  -0.00  -0.12    -0.06   0.01  -0.10     0.33   0.07   0.17
  44   1     0.03  -0.01  -0.05     0.00   0.00   0.00     0.07   0.01   0.02
  45   1     0.05   0.01  -0.01    -0.02   0.01  -0.01     0.07   0.02   0.04
  46   8     0.24  -0.11   0.09     0.00  -0.10   0.12    -0.07   0.03   0.11
  47   1     0.06  -0.03   0.03    -0.00  -0.03   0.05    -0.01  -0.01   0.01
  48   1     0.05  -0.02   0.02    -0.01  -0.02   0.02     0.01  -0.02   0.05
  49   8    -0.02   0.03  -0.10    -0.03  -0.02   0.08     0.01   0.09   0.03
  50   1    -0.00   0.00  -0.02    -0.02  -0.00   0.01     0.00   0.03  -0.00
  51   1     0.01   0.02  -0.02    -0.03  -0.02   0.01     0.02   0.02   0.01
  52   8     0.13  -0.09   0.16     0.03  -0.03  -0.04     0.01  -0.04   0.09
  53   1     0.03  -0.02   0.05     0.00  -0.01  -0.01    -0.00  -0.01   0.01
  54   1     0.03  -0.01   0.02     0.01  -0.00  -0.02    -0.00  -0.01   0.01
  55   8     0.01  -0.02   0.08     0.21   0.01   0.04     0.05   0.18   0.11
  56   1     0.02  -0.01   0.03     0.07  -0.00   0.01    -0.00   0.05   0.04
  57   1    -0.01   0.01  -0.01     0.03   0.01  -0.03     0.01   0.03   0.03
  58   8     0.04   0.06  -0.05    -0.11   0.03  -0.04     0.01   0.27  -0.09
  59   1     0.01   0.01  -0.00    -0.01   0.01  -0.00    -0.00   0.06  -0.00
  60   1     0.01   0.02  -0.02    -0.03   0.02  -0.01     0.00   0.06  -0.02
  61   8     0.11  -0.04   0.02    -0.13  -0.01   0.04     0.15  -0.23   0.26
  62   1     0.02  -0.01   0.00    -0.04  -0.00  -0.00     0.02  -0.05   0.04
  63   1     0.03  -0.01  -0.01    -0.03  -0.00  -0.01     0.06  -0.04   0.07
  64   8     0.05   0.01  -0.03    -0.13   0.02  -0.09     0.04  -0.13  -0.04
  65   1    -0.00   0.00  -0.00    -0.05   0.00  -0.02    -0.01  -0.05  -0.03
  66   1     0.02  -0.00  -0.00    -0.03   0.00  -0.02     0.00  -0.02  -0.02
  67   8    -0.11   0.11  -0.18     0.04   0.04  -0.33     0.03  -0.03   0.10
  68   1    -0.01  -0.00  -0.04     0.02  -0.01  -0.08     0.01   0.01   0.01
  69   1    -0.03   0.05  -0.02     0.00   0.03  -0.07     0.00  -0.03   0.00
  70   8    -0.03  -0.05  -0.06    -0.02  -0.04  -0.07    -0.05   0.18   0.09
  71   1     0.01  -0.01  -0.02    -0.01  -0.00  -0.02     0.02   0.05   0.02
  72   1    -0.02  -0.02  -0.02    -0.00  -0.01  -0.02    -0.02   0.03   0.01
  73   8    -0.12  -0.03   0.00     0.02   0.20   0.06    -0.02   0.02   0.02
  74   1    -0.02   0.00  -0.00     0.00   0.03   0.02    -0.01   0.00   0.01
  75   1    -0.04  -0.01  -0.01     0.04   0.04   0.01     0.00   0.00   0.00
                     13                     14                     15
                        a                      a                      a 
 Frequencies --    60.2081                61.2597                62.7701
 Red. masses --    14.4507                14.4841                14.3683
 Frc consts  --     0.0000                 0.0000                 0.0000
 IR Inten    --     0.3926                 0.4097                 0.5582
 Raman Activ --     0.0000                 0.0000                 0.0000
 Depolar     --     0.0000                 0.0000                 0.0000
 Atom AN      X      Y      Z        X      Y      Z        X      Y      Z
   1   8    -0.06  -0.01  -0.29     0.10   0.10   0.05    -0.05  -0.08   0.04
   2   1    -0.01  -0.00  -0.08     0.04   0.04   0.01    -0.00  -0.01   0.01
   3   1    -0.03  -0.01  -0.07     0.02   0.00   0.02    -0.00  -0.02   0.00
   4   8     0.06   0.07   0.07    -0.07   0.02  -0.07    -0.04   0.01  -0.07
   5   1     0.01   0.02   0.01    -0.01   0.01   0.01    -0.01   0.01  -0.02
   6   1     0.01   0.01   0.01    -0.02   0.02  -0.01    -0.01  -0.00  -0.01
   7   8    -0.17   0.04   0.11    -0.29   0.19  -0.05    -0.03  -0.06   0.15
   8   1    -0.04   0.01   0.04    -0.04   0.06   0.01    -0.01  -0.02   0.03
   9   1    -0.02   0.01   0.01    -0.06   0.03  -0.03     0.00  -0.00   0.03
  10   8     0.10  -0.20   0.13    -0.12  -0.11  -0.20    -0.07   0.01  -0.18
  11   1     0.02  -0.05   0.02    -0.03  -0.03  -0.05    -0.00   0.00  -0.04
  12   1     0.03  -0.03   0.03    -0.03  -0.02  -0.05    -0.03  -0.01  -0.04
  13   8    -0.09   0.14   0.02    -0.01   0.09   0.20    -0.13   0.06  -0.02
  14   1    -0.02   0.02   0.00    -0.00   0.01   0.04    -0.02   0.01  -0.01
  15   1    -0.02   0.04   0.01     0.00   0.03   0.05    -0.03   0.00   0.01
  16   8    -0.08   0.19   0.29     0.11  -0.28  -0.02    -0.16   0.01   0.07
  17   1    -0.03   0.04   0.06    -0.01  -0.02  -0.01    -0.03   0.00   0.03
  18   1    -0.01   0.05   0.07     0.03  -0.08   0.01    -0.07   0.01   0.02
  19   8     0.00  -0.07   0.09     0.08  -0.05   0.07    -0.03  -0.14  -0.19
  20   1    -0.01  -0.00   0.06     0.02  -0.04   0.01    -0.01  -0.03  -0.03
  21   1    -0.00  -0.02   0.01     0.01  -0.00   0.01    -0.01  -0.03  -0.04
  22   8     0.04   0.02   0.06     0.03   0.00   0.08    -0.20   0.12  -0.11
  23   1     0.01  -0.01   0.01     0.01  -0.01   0.02    -0.04   0.02  -0.04
  24   1    -0.00   0.01   0.01     0.00   0.00   0.01    -0.05   0.03  -0.02
  25   8    -0.03  -0.08  -0.03    -0.03   0.01  -0.06    -0.03  -0.08   0.02
  26   1    -0.01  -0.02  -0.02    -0.01   0.00  -0.01     0.02  -0.00   0.00
  27   1    -0.01  -0.01  -0.01    -0.01   0.00  -0.01    -0.00  -0.02   0.00
  28   8     0.03  -0.02  -0.10    -0.02   0.02  -0.04     0.22   0.20   0.14
  29   1     0.03   0.01  -0.03    -0.03  -0.00  -0.02     0.04   0.04   0.04
  30   1    -0.01   0.01  -0.01     0.01  -0.02  -0.01     0.07   0.04   0.03
  31   8    -0.04  -0.10   0.00    -0.04  -0.02   0.07     0.14  -0.02  -0.01
  32   1    -0.00  -0.02  -0.01    -0.00  -0.00   0.01     0.03   0.00   0.00
  33   1    -0.01  -0.01   0.02    -0.00  -0.01   0.02     0.05  -0.04  -0.01
  34   8    -0.17  -0.12  -0.19    -0.02  -0.11   0.14     0.06  -0.05  -0.06
  35   1    -0.04  -0.03  -0.04    -0.00  -0.02   0.04     0.02  -0.00  -0.01
  36   1    -0.03  -0.02  -0.02    -0.01  -0.04   0.01     0.01  -0.02  -0.03
  37   8     0.13   0.04   0.12    -0.16   0.08  -0.17    -0.19  -0.08  -0.08
  38   1     0.03   0.01   0.03    -0.04   0.02  -0.05    -0.05  -0.01  -0.02
  39   1     0.01   0.00   0.01    -0.02   0.03  -0.03    -0.04  -0.02  -0.01
  40   8    -0.13   0.17   0.02     0.13  -0.28  -0.01     0.35   0.07   0.04
  41   1    -0.02   0.05   0.01     0.02  -0.06  -0.01     0.06   0.02  -0.01
  42   1    -0.03   0.04   0.02     0.04  -0.07   0.01     0.06   0.01   0.01
  43   8     0.10  -0.05   0.10     0.03   0.03   0.12    -0.01  -0.02  -0.02
  44   1     0.03  -0.03   0.03    -0.01  -0.01   0.00    -0.01   0.00  -0.02
  45   1     0.01  -0.01   0.02    -0.00   0.01   0.03     0.01  -0.01  -0.01
  46   8    -0.05   0.08  -0.03    -0.02   0.04  -0.08    -0.07   0.02   0.05
  47   1    -0.01   0.02  -0.02    -0.00   0.02  -0.03    -0.02  -0.02   0.01
  48   1     0.00   0.01   0.00     0.00   0.01  -0.02    -0.01   0.00   0.01
  49   8    -0.09  -0.24  -0.03     0.03  -0.06  -0.00     0.24   0.03   0.06
  50   1    -0.02  -0.04  -0.02     0.01  -0.02   0.01     0.02   0.00  -0.00
  51   1    -0.03  -0.08  -0.02     0.03   0.01   0.01     0.12   0.03   0.03
  52   8     0.07   0.02  -0.14     0.00   0.01  -0.01     0.03   0.01   0.08
  53   1     0.02   0.01  -0.02    -0.01   0.01  -0.01     0.01   0.00   0.02
  54   1     0.01   0.01  -0.05     0.01   0.01   0.01     0.01  -0.00   0.02
  55   8     0.13   0.00  -0.17    -0.04   0.13  -0.35     0.13  -0.06   0.03
  56   1     0.03   0.00  -0.04    -0.01   0.04  -0.07     0.04  -0.02   0.00
  57   1     0.04  -0.00  -0.03     0.00   0.02  -0.06     0.03  -0.01   0.01
  58   8    -0.02  -0.01  -0.18     0.09  -0.10   0.07    -0.11   0.02  -0.17
  59   1     0.01   0.00  -0.05     0.03  -0.00  -0.03    -0.02  -0.00  -0.02
  60   1    -0.01   0.01  -0.03     0.02  -0.03   0.03    -0.03   0.02  -0.05
  61   8     0.10  -0.06   0.08     0.10   0.05  -0.02    -0.04   0.00   0.07
  62   1     0.02  -0.01   0.01     0.03   0.01   0.00    -0.02   0.00   0.01
  63   1     0.03  -0.01   0.03     0.02   0.01   0.01    -0.00   0.00   0.01
  64   8    -0.08   0.05  -0.01     0.09   0.03   0.12    -0.18   0.11  -0.12
  65   1    -0.03   0.01  -0.00     0.04   0.02   0.04    -0.06   0.02  -0.04
  66   1    -0.01   0.01   0.00     0.02   0.00   0.03    -0.05   0.03  -0.03
  67   8     0.24  -0.07   0.04     0.12  -0.06  -0.03     0.16  -0.01   0.08
  68   1     0.05  -0.01   0.02     0.02  -0.02   0.01     0.02   0.05   0.01
  69   1     0.06  -0.02   0.01     0.05  -0.01  -0.00     0.02  -0.03  -0.01
  70   8     0.07   0.06  -0.01    -0.06   0.14   0.03    -0.03   0.02  -0.04
  71   1     0.03   0.01   0.00    -0.01   0.03   0.01    -0.01  -0.01  -0.00
  72   1     0.01   0.02  -0.00    -0.01   0.03   0.01     0.00   0.02   0.00
  73   8    -0.06   0.14   0.04    -0.05   0.13   0.15     0.03  -0.09   0.25
  74   1    -0.02   0.01   0.01    -0.01   0.03   0.03     0.03  -0.01   0.05
  75   1     0.01   0.03   0.02    -0.02   0.03   0.02    -0.01  -0.02   0.05
                     16                     17                     18
                        a                      a                      a 
 Frequencies --    66.1420                68.3412                70.4764
 Red. masses --    14.3767                14.3090                14.4484
 Frc consts  --     0.0000                 0.0000                 0.0000
 IR Inten    --     1.0874                 0.9223                 1.4641
 Raman Activ --     0.0000                 0.0000                 0.0000
 Depolar     --     0.0000                 0.0000                 0.0000
 Atom AN      X      Y      Z        X      Y      Z        X      Y      Z
   1   8    -0.05  -0.17   0.12    -0.07   0.13   0.09    -0.19   0.07   0.02
   2   1    -0.02  -0.05   0.03    -0.02   0.03   0.05    -0.07   0.00   0.01
   3   1     0.01  -0.03   0.01    -0.01   0.01   0.02    -0.04   0.03  -0.00
   4   8     0.21  -0.04   0.20     0.16   0.16   0.13     0.06  -0.07   0.08
   5   1     0.05  -0.01   0.04     0.03   0.05   0.03     0.01  -0.01   0.02
   6   1     0.06  -0.02   0.03     0.03   0.02   0.03     0.02  -0.03  -0.00
   7   8    -0.14   0.02  -0.01    -0.05   0.06   0.08    -0.19  -0.09  -0.06
   8   1    -0.03   0.01  -0.00     0.01   0.03   0.02    -0.04  -0.02  -0.01
   9   1    -0.02   0.02  -0.01    -0.01   0.01   0.01    -0.03  -0.02  -0.02
  10   8    -0.01   0.05   0.03     0.02  -0.12  -0.16     0.09   0.17   0.04
  11   1    -0.00   0.02   0.02     0.00  -0.03  -0.05     0.01   0.05   0.01
  12   1    -0.01   0.00   0.02    -0.01  -0.01  -0.02     0.02   0.04   0.01
  13   8    -0.04   0.03   0.01     0.14   0.17   0.02    -0.04  -0.06  -0.01
  14   1    -0.01   0.01   0.01     0.03   0.03   0.01    -0.01  -0.02   0.00
  15   1    -0.02  -0.00  -0.00     0.03   0.03   0.00    -0.01   0.00  -0.01
  16   8     0.01  -0.06   0.07    -0.17  -0.03  -0.07    -0.05  -0.09   0.05
  17   1    -0.01  -0.01   0.01    -0.03  -0.00  -0.00    -0.03  -0.02   0.00
  18   1     0.00  -0.01   0.01    -0.08  -0.00  -0.02    -0.01  -0.01   0.00
  19   8     0.08  -0.10  -0.05    -0.09  -0.06  -0.16     0.03  -0.08  -0.06
  20   1     0.01  -0.02  -0.00    -0.02  -0.01  -0.05    -0.00  -0.03  -0.00
  21   1     0.01  -0.01   0.00    -0.01  -0.03  -0.03    -0.01  -0.00  -0.01
  22   8     0.05  -0.16  -0.01     0.05   0.10  -0.14    -0.07   0.07  -0.00
  23   1     0.01  -0.05  -0.01    -0.00   0.04  -0.02    -0.02   0.03   0.00
  24   1    -0.01  -0.02   0.01     0.01   0.03  -0.02     0.00   0.00  -0.01
  25   8    -0.03  -0.01   0.04     0.12  -0.14   0.10    -0.14   0.10   0.06
  26   1     0.00   0.00  -0.01     0.03  -0.04   0.02    -0.02   0.04   0.02
  27   1    -0.04  -0.00   0.02     0.04  -0.02   0.02    -0.01   0.02   0.01
  28   8     0.04   0.10  -0.11     0.05  -0.27   0.14    -0.06   0.25   0.05
  29   1    -0.00   0.02  -0.02     0.05  -0.05   0.02    -0.06   0.04   0.04
  30   1     0.00   0.01  -0.01     0.00  -0.05   0.03     0.00   0.04   0.01
  31   8     0.11   0.07  -0.13    -0.19   0.07  -0.09    -0.02  -0.07   0.12
  32   1     0.02   0.01  -0.02    -0.05   0.03  -0.03    -0.02  -0.01   0.04
  33   1     0.04  -0.01  -0.05    -0.08   0.08  -0.01    -0.01  -0.02   0.02
  34   8     0.15   0.01  -0.05    -0.04  -0.08   0.07    -0.09   0.20  -0.06
  35   1     0.03   0.01  -0.02    -0.02  -0.02   0.00    -0.02   0.04  -0.01
  36   1     0.05   0.00  -0.01    -0.01  -0.03   0.00    -0.02   0.06   0.00
  37   8    -0.08  -0.14   0.08    -0.11   0.12  -0.04     0.09   0.05   0.04
  38   1     0.01  -0.03   0.04    -0.01   0.04  -0.00     0.02   0.00   0.02
  39   1    -0.02  -0.03   0.02    -0.02   0.04   0.00     0.01   0.01  -0.00
  40   8    -0.00  -0.07   0.14    -0.03  -0.03   0.09     0.08  -0.06   0.08
  41   1     0.02  -0.02   0.05     0.00   0.00   0.03     0.02  -0.02   0.02
  42   1     0.00  -0.02   0.03    -0.03  -0.01   0.02     0.02  -0.02   0.02
  43   8    -0.05   0.09  -0.09     0.02  -0.02  -0.18     0.00  -0.22  -0.13
  44   1    -0.01   0.02  -0.02     0.00  -0.01  -0.05     0.01  -0.03  -0.01
  45   1    -0.01   0.02  -0.02    -0.00  -0.01  -0.05     0.01  -0.05  -0.01
  46   8    -0.24   0.02   0.08     0.06   0.08   0.16     0.22  -0.12  -0.02
  47   1    -0.06   0.03   0.01     0.01   0.02   0.05     0.05  -0.06   0.00
  48   1    -0.05   0.01   0.02     0.01   0.01   0.04     0.05  -0.03  -0.01
  49   8    -0.16   0.04  -0.05    -0.01  -0.06  -0.07    -0.03   0.15  -0.16
  50   1    -0.01   0.03  -0.01     0.01  -0.02  -0.01    -0.00   0.03  -0.03
  51   1    -0.06  -0.01  -0.02     0.00  -0.00  -0.01    -0.03   0.04  -0.04
  52   8    -0.01  -0.05   0.05    -0.15   0.17  -0.14    -0.11  -0.03   0.19
  53   1     0.02  -0.02   0.03    -0.02   0.04  -0.02    -0.02  -0.01   0.05
  54   1    -0.01  -0.02   0.02    -0.04   0.03  -0.02    -0.03  -0.01   0.03
  55   8     0.05   0.25  -0.07     0.02   0.02  -0.01     0.01   0.08  -0.15
  56   1     0.00   0.07   0.02     0.01   0.00  -0.00     0.01   0.02  -0.02
  57   1     0.00   0.03  -0.04     0.01   0.01   0.00     0.02   0.02  -0.01
  58   8     0.08   0.23  -0.04     0.08  -0.00  -0.00     0.04  -0.02  -0.00
  59   1     0.03   0.06  -0.02     0.01   0.00  -0.01     0.01   0.01  -0.02
  60   1     0.02   0.06  -0.00     0.02  -0.01  -0.00     0.01  -0.02   0.02
  61   8    -0.13   0.11   0.12    -0.07  -0.01   0.12     0.08  -0.10  -0.09
  62   1    -0.03   0.02   0.02    -0.01  -0.01   0.02     0.03  -0.03  -0.00
  63   1    -0.03   0.02   0.02    -0.02  -0.01   0.01     0.01  -0.04  -0.04
  64   8     0.09   0.03  -0.01     0.12  -0.11  -0.06     0.06  -0.13   0.09
  65   1     0.02   0.02   0.01     0.04  -0.04  -0.03     0.02  -0.05   0.00
  66   1     0.02  -0.01  -0.00     0.02  -0.01  -0.02     0.00  -0.01   0.02
  67   8    -0.05  -0.15  -0.23     0.05   0.08   0.06     0.20   0.06   0.24
  68   1     0.01  -0.08  -0.06     0.01   0.05   0.00     0.01   0.07   0.06
  69   1     0.01  -0.02  -0.04    -0.00   0.00   0.00     0.05  -0.02   0.02
  70   8     0.31   0.01  -0.07     0.08  -0.32   0.10     0.12  -0.15  -0.19
  71   1     0.06   0.01  -0.02     0.02  -0.06   0.01     0.02  -0.05  -0.04
  72   1     0.05   0.02  -0.02     0.03  -0.10   0.02     0.01  -0.01  -0.04
  73   8    -0.19  -0.12  -0.04     0.00   0.06  -0.04    -0.05   0.10  -0.13
  74   1    -0.05  -0.02  -0.01    -0.00   0.01  -0.01    -0.01   0.03  -0.03
  75   1    -0.05  -0.03  -0.01    -0.01   0.02  -0.00    -0.00   0.02  -0.03
                     19                     20                     21
                        a                      a                      a 
 Frequencies --    72.0995                75.3937                78.9451
 Red. masses --    14.4183                14.4991                14.4226
 Frc consts  --     0.0000                 0.0000                 0.0000
 IR Inten    --     1.3131                 0.3571                 0.6662
 Raman Activ --     0.0000                 0.0000                 0.0000
 Depolar     --     0.0000                 0.0000                 0.0000
 Atom AN      X      Y      Z        X      Y      Z        X      Y      Z
   1   8     0.00  -0.10   0.17     0.19   0.03  -0.08    -0.06   0.02   0.05
   2   1    -0.03  -0.05   0.06     0.06   0.01  -0.03    -0.04  -0.01   0.03
   3   1     0.01  -0.01   0.03     0.03   0.00  -0.01    -0.01   0.01   0.01
   4   8    -0.04  -0.17  -0.12    -0.08  -0.12  -0.01     0.03  -0.13  -0.20
   5   1    -0.01  -0.04  -0.02    -0.01  -0.03   0.01     0.01  -0.03  -0.04
   6   1    -0.01  -0.04  -0.02    -0.01  -0.02  -0.01     0.00  -0.03  -0.03
   7   8     0.03   0.08   0.05    -0.01   0.01  -0.04    -0.12  -0.07  -0.01
   8   1    -0.01   0.00   0.02    -0.00  -0.01   0.00    -0.02  -0.02   0.01
   9   1     0.02   0.03   0.00     0.01   0.00  -0.02    -0.03  -0.02  -0.01
  10   8     0.08   0.06  -0.03    -0.08  -0.03   0.10     0.10   0.03  -0.09
  11   1     0.02   0.02  -0.00    -0.02  -0.01   0.01     0.01   0.02  -0.01
  12   1     0.03   0.00  -0.01    -0.01  -0.00   0.02     0.04  -0.00  -0.04
  13   8    -0.18  -0.03   0.09    -0.01  -0.12   0.11     0.11  -0.08   0.03
  14   1    -0.05  -0.00   0.03    -0.00  -0.03   0.03     0.02  -0.02   0.01
  15   1    -0.04   0.01   0.02    -0.00  -0.01   0.02     0.03  -0.00   0.00
  16   8    -0.07   0.08  -0.04    -0.17   0.04  -0.16    -0.02   0.13   0.20
  17   1    -0.02   0.03  -0.00    -0.03   0.01  -0.03    -0.02   0.02   0.03
  18   1    -0.00  -0.00   0.00    -0.06   0.01  -0.04     0.02   0.03   0.05
  19   8    -0.23   0.08   0.28    -0.17  -0.16  -0.09     0.08  -0.10  -0.08
  20   1    -0.05   0.01   0.05    -0.04  -0.03  -0.02     0.00  -0.01   0.02
  21   1    -0.04  -0.00   0.04    -0.05  -0.03   0.01     0.01  -0.01  -0.01
  22   8     0.29  -0.00   0.03     0.20  -0.03  -0.16    -0.02  -0.04  -0.03
  23   1     0.05  -0.00   0.03     0.05  -0.01  -0.04     0.00  -0.04  -0.02
  24   1     0.05   0.01   0.01     0.05  -0.01  -0.03    -0.02   0.01  -0.01
  25   8    -0.02  -0.14  -0.06    -0.19  -0.08   0.38    -0.13   0.04   0.02
  26   1     0.01  -0.03  -0.01    -0.02  -0.00   0.07    -0.04   0.01   0.01
  27   1     0.01  -0.03  -0.02    -0.02   0.00   0.08    -0.04   0.01   0.01
  28   8     0.12  -0.01   0.10    -0.03   0.16  -0.06    -0.08  -0.02   0.26
  29   1     0.03  -0.00   0.03    -0.03   0.03  -0.01    -0.02  -0.01   0.08
  30   1     0.03   0.01   0.01     0.00   0.03  -0.01    -0.01   0.01   0.03
  31   8    -0.05   0.11  -0.12    -0.01   0.00  -0.03    -0.02  -0.05   0.04
  32   1    -0.02   0.01  -0.02     0.00  -0.01  -0.01    -0.01  -0.01   0.02
  33   1    -0.03   0.05  -0.04     0.02  -0.03  -0.01    -0.02   0.00   0.01
  34   8     0.11   0.05   0.08     0.03  -0.02   0.06    -0.02   0.03   0.02
  35   1     0.02   0.02   0.00     0.01  -0.00   0.02    -0.01   0.01   0.00
  36   1     0.03   0.01   0.01     0.00  -0.00   0.01    -0.01   0.01  -0.00
  37   8     0.11  -0.12  -0.04     0.07   0.03  -0.03     0.20  -0.06  -0.17
  38   1     0.01  -0.03  -0.02     0.01  -0.01  -0.00     0.04  -0.02  -0.05
  39   1     0.03  -0.03  -0.00     0.03   0.01  -0.01     0.04  -0.01  -0.04
  40   8     0.17   0.09  -0.08    -0.02   0.06  -0.01     0.06   0.14  -0.18
  41   1     0.03   0.01  -0.03    -0.00  -0.00  -0.00    -0.00   0.03  -0.06
  42   1     0.03   0.03  -0.04    -0.01   0.02  -0.02     0.02   0.03  -0.03
  43   8     0.06   0.13  -0.04    -0.11   0.05   0.02     0.12  -0.07   0.01
  44   1     0.02   0.03  -0.01    -0.02   0.01   0.01     0.03  -0.01   0.00
  45   1     0.02   0.03  -0.02    -0.03   0.01   0.01     0.03  -0.02  -0.01
  46   8    -0.01   0.21  -0.10     0.24  -0.06   0.23    -0.26   0.14  -0.01
  47   1    -0.00   0.10  -0.02     0.06  -0.03   0.08    -0.06   0.06  -0.05
  48   1    -0.02   0.02  -0.02     0.04   0.01   0.04    -0.03   0.03   0.02
  49   8    -0.11   0.08  -0.10    -0.07  -0.09  -0.01    -0.01   0.11  -0.03
  50   1    -0.02   0.02  -0.02    -0.00  -0.02   0.01     0.00   0.01   0.01
  51   1    -0.05   0.02  -0.03    -0.06  -0.03  -0.01    -0.02   0.04   0.00
  52   8    -0.09  -0.10   0.01     0.04  -0.11  -0.06    -0.07  -0.02   0.06
  53   1    -0.01  -0.03  -0.01    -0.00  -0.02  -0.01    -0.02  -0.01   0.00
  54   1    -0.02  -0.03   0.01     0.02  -0.01  -0.02    -0.02  -0.01   0.01
  55   8     0.10   0.02  -0.04    -0.01  -0.02  -0.04    -0.04  -0.01  -0.05
  56   1     0.02   0.00  -0.03    -0.01  -0.00  -0.01    -0.01  -0.00   0.00
  57   1     0.03   0.00   0.01     0.00  -0.01   0.00    -0.02  -0.01  -0.03
  58   8    -0.07  -0.03  -0.00     0.06  -0.09   0.07     0.04  -0.09   0.15
  59   1    -0.02  -0.00  -0.01     0.02  -0.02   0.01     0.02  -0.01   0.02
  60   1    -0.01  -0.02  -0.00     0.01  -0.00  -0.01     0.01  -0.00   0.02
  61   8    -0.10  -0.16  -0.09    -0.01   0.23   0.05     0.16   0.14   0.19
  62   1    -0.03  -0.04  -0.03    -0.00   0.05  -0.01     0.04   0.03   0.04
  63   1    -0.02  -0.03  -0.01    -0.00   0.05  -0.00     0.04   0.03   0.04
  64   8    -0.01  -0.24  -0.08     0.12   0.19  -0.23     0.06   0.23  -0.02
  65   1    -0.01  -0.06  -0.02     0.04   0.06  -0.04     0.02   0.07   0.00
  66   1     0.03  -0.05  -0.01     0.03   0.03  -0.05     0.00   0.04  -0.01
  67   8     0.16   0.01   0.06     0.04  -0.08   0.07    -0.09  -0.14  -0.16
  68   1     0.05  -0.01   0.01     0.01  -0.00   0.00    -0.01  -0.06  -0.04
  69   1     0.02   0.02   0.04    -0.01  -0.03   0.01    -0.01  -0.02  -0.03
  70   8    -0.05   0.01   0.07    -0.01   0.13  -0.06    -0.08  -0.21   0.14
  71   1    -0.02   0.01   0.01    -0.01   0.03  -0.01    -0.01  -0.05   0.03
  72   1    -0.00  -0.01   0.02    -0.01   0.05  -0.01    -0.00  -0.06   0.04
  73   8    -0.20   0.12   0.01    -0.01   0.07  -0.01     0.07   0.09  -0.13
  74   1    -0.05   0.02  -0.00    -0.00   0.01  -0.00     0.01   0.03  -0.02
  75   1    -0.02   0.02  -0.01     0.01   0.01  -0.01     0.04   0.02  -0.05
                     22                     23                     24
                        a                      a                      a 
 Frequencies --    79.0803                83.2826                85.0343
 Red. masses --    14.4559                14.5151                14.4701
 Frc consts  --     0.0000                 0.0000                 0.0000
 IR Inten    --     1.6549                 0.8202                 0.5988
 Raman Activ --     0.0000                 0.0000                 0.0000
 Depolar     --     0.0000                 0.0000                 0.0000
 Atom AN      X      Y      Z        X      Y      Z        X      Y      Z
   1   8     0.03  -0.14   0.08    -0.24  -0.09   0.03     0.07  -0.04   0.19
   2   1    -0.00  -0.05   0.02    -0.07  -0.03   0.02    -0.01  -0.03   0.06
   3   1     0.01  -0.02   0.01    -0.04  -0.01  -0.01     0.02  -0.00   0.05
   4   8    -0.15   0.04  -0.15     0.12   0.19  -0.12     0.25  -0.09   0.01
   5   1    -0.02  -0.00  -0.04     0.03   0.05  -0.03     0.06  -0.02   0.01
   6   1    -0.04   0.03  -0.02     0.02   0.03  -0.02     0.06  -0.02  -0.00
   7   8    -0.28  -0.14  -0.05    -0.04   0.09   0.01    -0.00   0.01   0.03
   8   1    -0.05  -0.03  -0.00     0.02   0.04   0.01    -0.01  -0.00   0.01
   9   1    -0.05  -0.03  -0.03     0.00   0.02  -0.01     0.00   0.00   0.01
  10   8    -0.02   0.12   0.08    -0.03   0.05   0.03    -0.19   0.17  -0.07
  11   1    -0.00   0.04   0.03    -0.01   0.02   0.02    -0.04   0.04  -0.01
  12   1    -0.00   0.01   0.02    -0.01  -0.00   0.01    -0.03   0.02  -0.03
  13   8     0.11  -0.07  -0.03     0.19   0.21  -0.07    -0.02   0.05  -0.03
  14   1     0.03  -0.00  -0.01     0.04   0.04  -0.01    -0.01  -0.00  -0.00
  15   1     0.02  -0.03  -0.01     0.03   0.02  -0.02    -0.00   0.02  -0.01
  16   8    -0.13   0.09   0.23    -0.02  -0.11  -0.08    -0.01   0.09   0.08
  17   1    -0.04   0.01   0.04    -0.01  -0.01  -0.02    -0.00   0.02   0.02
  18   1    -0.02   0.04   0.05     0.01  -0.05  -0.01     0.02   0.02   0.02
  19   8     0.10  -0.05  -0.19    -0.12   0.03   0.15    -0.01   0.02   0.05
  20   1     0.01   0.01  -0.01    -0.03  -0.01   0.02    -0.00   0.02   0.02
  21   1     0.03  -0.02  -0.05    -0.03   0.01   0.03     0.00   0.00   0.01
  22   8    -0.11   0.11  -0.09     0.18  -0.04   0.02     0.01  -0.02   0.03
  23   1    -0.01   0.03  -0.03     0.04  -0.01   0.01     0.01  -0.00   0.00
  24   1    -0.02   0.02  -0.01     0.04  -0.01   0.00     0.01  -0.01   0.01
  25   8     0.23  -0.10  -0.01    -0.11   0.00   0.11     0.05  -0.02  -0.01
  26   1     0.04  -0.04   0.00    -0.03  -0.00   0.03     0.01  -0.01  -0.01
  27   1     0.06  -0.02  -0.00    -0.01   0.01   0.02     0.01   0.00  -0.00
  28   8     0.09  -0.22  -0.11    -0.17  -0.10   0.00    -0.05  -0.08  -0.20
  29   1     0.06  -0.04  -0.04    -0.05  -0.03  -0.00     0.00  -0.01  -0.07
  30   1     0.01  -0.03  -0.02    -0.03  -0.03  -0.01    -0.03  -0.02  -0.04
  31   8     0.01   0.06  -0.03     0.28  -0.01   0.07    -0.23  -0.23   0.02
  32   1     0.01   0.01  -0.01     0.06   0.02   0.02    -0.06  -0.05  -0.00
  33   1    -0.01   0.04  -0.00     0.09  -0.04   0.02    -0.08  -0.02   0.02
  34   8     0.08   0.08   0.04     0.03   0.02  -0.19     0.02   0.07   0.22
  35   1     0.01   0.01   0.00     0.01   0.01  -0.04    -0.01  -0.01   0.03
  36   1     0.02   0.02   0.01     0.01   0.01  -0.04    -0.02   0.01   0.04
  37   8    -0.01  -0.13   0.07    -0.03  -0.10   0.02    -0.04  -0.06  -0.22
  38   1    -0.01  -0.02   0.01     0.01  -0.00  -0.00     0.01  -0.01  -0.04
  39   1    -0.00  -0.03   0.02    -0.03  -0.02   0.01     0.01  -0.01  -0.04
  40   8    -0.05   0.07  -0.11    -0.09  -0.10  -0.19    -0.20   0.07  -0.11
  41   1    -0.02   0.04  -0.04    -0.01  -0.01  -0.05    -0.02   0.01  -0.01
  42   1    -0.02   0.01  -0.00    -0.03  -0.03  -0.03    -0.04   0.02  -0.03
  43   8    -0.01   0.11   0.09    -0.04  -0.04   0.01    -0.05  -0.09   0.21
  44   1    -0.00   0.03   0.02    -0.01   0.00   0.00    -0.02  -0.02   0.03
  45   1     0.00   0.02   0.02     0.01  -0.01   0.01    -0.02  -0.03   0.03
  46   8     0.14  -0.06   0.09     0.13   0.01   0.01     0.10  -0.08   0.03
  47   1     0.03  -0.06   0.05     0.03   0.01   0.01     0.02  -0.04   0.01
  48   1     0.02  -0.01   0.01     0.02  -0.00  -0.00     0.02  -0.02   0.00
  49   8    -0.08   0.09   0.05    -0.04   0.04   0.17     0.18   0.18  -0.00
  50   1    -0.01   0.02   0.02    -0.02  -0.00   0.05     0.02   0.03  -0.01
  51   1    -0.04   0.02   0.01    -0.02   0.01   0.04     0.10   0.07   0.01
  52   8     0.05   0.02  -0.07     0.09   0.19   0.17    -0.13  -0.06  -0.13
  53   1     0.01   0.01  -0.03     0.03   0.04   0.03    -0.02  -0.02  -0.03
  54   1     0.01  -0.00  -0.00     0.01   0.04   0.04    -0.03  -0.02  -0.01
  55   8     0.02   0.19  -0.15     0.07   0.05  -0.10     0.04  -0.02  -0.01
  56   1     0.02   0.05  -0.00     0.01   0.01  -0.04     0.01  -0.01  -0.01
  57   1     0.01   0.05  -0.02     0.02   0.01  -0.01     0.01  -0.00  -0.00
  58   8     0.02  -0.01   0.18    -0.17  -0.10   0.12    -0.09   0.01  -0.09
  59   1     0.00   0.01   0.01    -0.04  -0.02   0.02    -0.02  -0.00  -0.01
  60   1     0.00  -0.01   0.05    -0.04  -0.01   0.00    -0.02   0.01  -0.03
  61   8    -0.03  -0.03   0.01    -0.01  -0.02  -0.06     0.07  -0.06   0.02
  62   1    -0.01  -0.01   0.00    -0.01  -0.00  -0.03     0.01  -0.01  -0.01
  63   1    -0.01  -0.01   0.00     0.00   0.00  -0.01     0.02  -0.00   0.03
  64   8     0.08  -0.11   0.06    -0.16   0.10  -0.19    -0.16   0.10  -0.10
  65   1     0.05  -0.04  -0.01    -0.06   0.03  -0.03    -0.06   0.02  -0.02
  66   1    -0.00  -0.00   0.00    -0.01   0.01  -0.03    -0.02   0.02  -0.02
  67   8     0.12   0.08   0.06     0.12  -0.04  -0.02     0.05  -0.00   0.01
  68   1     0.01   0.06   0.02     0.04  -0.02  -0.00     0.01   0.00   0.00
  69   1     0.04  -0.01  -0.02     0.02   0.01   0.01     0.01  -0.00   0.00
  70   8    -0.19   0.17   0.05     0.00  -0.11   0.07     0.32   0.05   0.02
  71   1    -0.04   0.05   0.01    -0.00  -0.02   0.01     0.06   0.01   0.01
  72   1    -0.03   0.02   0.01     0.01  -0.04   0.01     0.06   0.03   0.00
  73   8    -0.02  -0.20  -0.08     0.03  -0.13   0.02     0.04   0.03   0.05
  74   1    -0.01  -0.04  -0.01     0.00  -0.03   0.01     0.02   0.02   0.01
  75   1    -0.01  -0.05  -0.02    -0.00  -0.03   0.01     0.01   0.00  -0.01
                     25                     26                     27
                        a                      a                      a 
 Frequencies --    89.1150                91.5076               104.9476
 Red. masses --    14.4224                14.5341                14.3226
 Frc consts  --     0.0000                 0.0000                 0.0000
 IR Inten    --     0.4150                 0.7907                 0.4143
 Raman Activ --     0.0000                 0.0000                 0.0000
 Depolar     --     0.0000                 0.0000                 0.0000
 Atom AN      X      Y      Z        X      Y      Z        X      Y      Z
   1   8     0.20   0.10  -0.12    -0.09   0.09   0.02     0.34  -0.25  -0.15
   2   1     0.08   0.05  -0.05    -0.02   0.02  -0.00     0.13  -0.03  -0.11
   3   1     0.03   0.00  -0.01    -0.02   0.02   0.01     0.05  -0.04  -0.01
   4   8     0.03  -0.04   0.09    -0.17   0.08   0.10     0.00   0.16   0.02
   5   1     0.01  -0.01   0.01    -0.03   0.01   0.02    -0.00   0.04  -0.01
   6   1     0.01  -0.01   0.02    -0.03   0.02   0.00    -0.00   0.03   0.00
   7   8    -0.11  -0.20  -0.18     0.01  -0.08  -0.09     0.02   0.12   0.07
   8   1    -0.03  -0.05  -0.05     0.00  -0.02  -0.03     0.02   0.04   0.02
   9   1    -0.01  -0.01  -0.04     0.01  -0.01  -0.02     0.00   0.02   0.01
  10   8     0.01  -0.11  -0.09     0.10   0.08  -0.03     0.11   0.13   0.00
  11   1    -0.01  -0.02  -0.01     0.02   0.03   0.01     0.03   0.04   0.01
  12   1    -0.00  -0.02  -0.02     0.01   0.02   0.00     0.01   0.02   0.01
  13   8     0.02  -0.14  -0.16     0.01  -0.10  -0.04     0.09   0.14   0.00
  14   1     0.00  -0.03  -0.03    -0.00  -0.02  -0.00     0.02   0.03   0.00
  15   1     0.01  -0.03  -0.04     0.00  -0.03  -0.01     0.01  -0.00   0.00
  16   8    -0.00   0.03   0.05     0.01  -0.03  -0.06     0.02  -0.03  -0.01
  17   1    -0.02  -0.02  -0.02    -0.00  -0.02  -0.02     0.00   0.00   0.00
  18   1     0.03   0.03  -0.00     0.01  -0.00  -0.02    -0.01  -0.01   0.00
  19   8    -0.02   0.02   0.08    -0.10   0.00   0.14    -0.01  -0.01   0.02
  20   1    -0.01  -0.00   0.03    -0.02   0.00   0.02    -0.00  -0.01   0.00
  21   1    -0.02   0.01   0.02    -0.01  -0.02   0.02    -0.02   0.01   0.01
  22   8     0.08  -0.08   0.02     0.17  -0.00   0.02    -0.01   0.01   0.01
  23   1     0.02  -0.02   0.00     0.04  -0.02   0.01    -0.00  -0.00   0.00
  24   1     0.02  -0.02   0.01     0.02   0.01   0.00    -0.00   0.00  -0.00
  25   8    -0.14   0.08   0.00     0.17  -0.24  -0.02    -0.19   0.11   0.05
  26   1    -0.03   0.03   0.01     0.06  -0.05  -0.04    -0.04   0.03   0.02
  27   1    -0.03   0.01  -0.00     0.02  -0.04  -0.00    -0.04   0.02   0.01
  28   8    -0.04   0.12   0.15     0.26  -0.03  -0.22    -0.07   0.10   0.13
  29   1    -0.02   0.02   0.04     0.08  -0.00  -0.05    -0.03   0.02   0.03
  30   1    -0.00   0.03   0.03     0.04  -0.01  -0.02    -0.00   0.02   0.02
  31   8    -0.10   0.06  -0.06    -0.11  -0.14   0.12    -0.20   0.00   0.07
  32   1    -0.02   0.01  -0.02    -0.02  -0.03   0.03    -0.02  -0.01  -0.01
  33   1    -0.02   0.02  -0.01    -0.05   0.01   0.04    -0.05   0.03   0.05
  34   8    -0.04  -0.13   0.07    -0.09   0.10   0.02    -0.06   0.10   0.15
  35   1    -0.01  -0.02   0.02    -0.03   0.01  -0.00    -0.01   0.02   0.04
  36   1    -0.01  -0.04  -0.00    -0.03   0.03   0.01    -0.02   0.03   0.04
  37   8    -0.00   0.08  -0.07    -0.11   0.11   0.14    -0.12  -0.13   0.17
  38   1     0.00   0.01  -0.01    -0.04   0.03   0.03    -0.02  -0.02   0.04
  39   1     0.01   0.02  -0.02    -0.03   0.03   0.03    -0.02  -0.03   0.04
  40   8     0.01   0.04   0.11     0.09  -0.03   0.19     0.04  -0.03   0.00
  41   1     0.00   0.00   0.03     0.02  -0.01   0.04     0.00   0.00  -0.01
  42   1     0.01   0.01   0.02     0.01  -0.01   0.04     0.01  -0.01   0.01
  43   8     0.01   0.03  -0.09     0.10  -0.22  -0.05     0.08  -0.08  -0.07
  44   1     0.00  -0.00  -0.02     0.03  -0.04  -0.01     0.02  -0.01  -0.01
  45   1    -0.01   0.01  -0.02     0.03  -0.05  -0.01     0.01  -0.02  -0.02
  46   8    -0.04  -0.00  -0.06    -0.03   0.17   0.03    -0.01   0.03  -0.04
  47   1    -0.01   0.02  -0.01    -0.00   0.07  -0.02    -0.00   0.02  -0.03
  48   1    -0.02  -0.01  -0.01     0.01   0.02   0.02     0.01  -0.00  -0.00
  49   8     0.02   0.03   0.37    -0.01   0.15   0.07     0.01   0.17  -0.14
  50   1    -0.02   0.00   0.08    -0.01   0.02   0.03     0.00   0.03  -0.03
  51   1     0.03   0.02   0.10    -0.01   0.05   0.02     0.01   0.06  -0.03
  52   8     0.01  -0.02  -0.13    -0.05   0.02   0.03     0.17   0.01  -0.30
  53   1    -0.00  -0.00  -0.01    -0.02   0.01  -0.00     0.03   0.00  -0.06
  54   1     0.01   0.00  -0.03    -0.01   0.00   0.01     0.05   0.00  -0.06
  55   8     0.08   0.35  -0.04     0.02   0.04  -0.03    -0.01  -0.06  -0.02
  56   1     0.02   0.09   0.03    -0.00   0.01  -0.01    -0.01  -0.02  -0.02
  57   1     0.02   0.07  -0.00    -0.00   0.00  -0.02    -0.00  -0.01  -0.00
  58   8    -0.16   0.13   0.15    -0.09  -0.05   0.13    -0.01  -0.05   0.01
  59   1    -0.03   0.04   0.02    -0.02  -0.01   0.02    -0.01  -0.01   0.00
  60   1    -0.04   0.04   0.02    -0.02   0.00   0.01    -0.00  -0.02   0.00
  61   8    -0.10  -0.12  -0.08     0.16   0.01   0.16     0.09  -0.04   0.02
  62   1    -0.03  -0.03  -0.03     0.04   0.00   0.02     0.02  -0.01   0.01
  63   1    -0.02  -0.02  -0.02     0.04  -0.00   0.03     0.02  -0.01  -0.00
  64   8    -0.12  -0.09  -0.08    -0.07   0.17  -0.13    -0.02   0.01  -0.01
  65   1    -0.04  -0.02  -0.02    -0.04   0.04  -0.02    -0.01  -0.00  -0.00
  66   1    -0.02  -0.02  -0.02     0.00   0.03  -0.02    -0.00   0.00  -0.00
  67   8     0.10  -0.01   0.05    -0.05  -0.08  -0.19     0.01  -0.03  -0.01
  68   1     0.03   0.00   0.01     0.02  -0.08  -0.05     0.00  -0.01   0.00
  69   1     0.03  -0.01   0.01    -0.01   0.02  -0.01     0.00  -0.00   0.00
  70   8     0.04  -0.09   0.03    -0.12   0.05  -0.24    -0.07  -0.13  -0.01
  71   1     0.01  -0.01   0.00    -0.00  -0.02  -0.05    -0.00  -0.04   0.00
  72   1     0.00  -0.02   0.01    -0.02   0.01  -0.05    -0.01  -0.03   0.00
  73   8     0.26  -0.07  -0.02     0.02  -0.06  -0.05    -0.21  -0.28   0.03
  74   1     0.05  -0.01   0.01     0.00  -0.00  -0.01    -0.04  -0.05  -0.00
  75   1     0.05  -0.01   0.00    -0.01  -0.01  -0.00    -0.08  -0.06   0.01
                     28                     29                     30
                        a                      a                      a 
 Frequencies --   119.9112               124.9128               132.5709
 Red. masses --    14.6348                13.0649                13.0102
 Frc consts  --     0.0000                 0.0000                 0.0000
 IR Inten    --     1.0387                 4.3814                 3.3393
 Raman Activ --     0.0000                 0.0000                 0.0000
 Depolar     --     0.0000                 0.0000                 0.0000
 Atom AN      X      Y      Z        X      Y      Z        X      Y      Z
   1   8    -0.01  -0.02   0.01     0.10   0.18  -0.05     0.02   0.04  -0.07
   2   1    -0.01  -0.01   0.01     0.09   0.09  -0.09     0.09   0.07  -0.06
   3   1    -0.00  -0.01   0.00     0.02   0.07  -0.01    -0.01  -0.02  -0.01
   4   8     0.04  -0.01   0.02     0.05   0.04  -0.04     0.00   0.12   0.02
   5   1     0.01  -0.00  -0.00     0.01   0.02  -0.01     0.00   0.03   0.00
   6   1     0.01  -0.00   0.01     0.01  -0.00  -0.02     0.00   0.02  -0.00
   7   8     0.04  -0.04   0.01    -0.01   0.06   0.04    -0.01   0.12   0.06
   8   1    -0.00  -0.01  -0.01     0.01   0.02   0.01     0.02   0.04   0.02
   9   1     0.00  -0.01   0.01    -0.00   0.01   0.01    -0.00   0.02   0.01
  10   8    -0.02  -0.01   0.00    -0.03   0.03  -0.03     0.08  -0.10   0.09
  11   1    -0.01  -0.00   0.00    -0.01   0.02   0.01     0.02  -0.05  -0.02
  12   1    -0.00  -0.00  -0.00    -0.02   0.01   0.00     0.01   0.00   0.03
  13   8    -0.07   0.00  -0.06     0.10   0.10  -0.04     0.20   0.13  -0.03
  14   1    -0.02   0.00  -0.01     0.03   0.03  -0.02     0.05   0.03   0.00
  15   1    -0.02   0.00  -0.02     0.02   0.00   0.00     0.04   0.02  -0.01
  16   8     0.08   0.01   0.08     0.01   0.02   0.04     0.00   0.02   0.05
  17   1     0.02  -0.00   0.02    -0.00   0.01   0.01    -0.00   0.01   0.02
  18   1     0.03   0.00   0.02     0.01  -0.01   0.02    -0.00  -0.00   0.02
  19   8     0.07  -0.23  -0.08    -0.00  -0.03   0.00    -0.02   0.01   0.02
  20   1     0.02  -0.04  -0.02    -0.00  -0.00   0.00    -0.00   0.00   0.01
  21   1     0.02  -0.05   0.02     0.00  -0.01   0.00    -0.00  -0.00   0.00
  22   8    -0.09   0.30   0.11    -0.03   0.05   0.01    -0.03   0.01  -0.02
  23   1    -0.02   0.03   0.02    -0.01   0.01   0.00    -0.00   0.00  -0.01
  24   1    -0.03   0.08   0.00    -0.01   0.01   0.00    -0.01   0.00  -0.00
  25   8    -0.13  -0.16   0.32     0.01  -0.05   0.01     0.05  -0.05   0.04
  26   1    -0.02  -0.03   0.06     0.01  -0.01  -0.00     0.02  -0.01   0.00
  27   1     0.01   0.00   0.06     0.01  -0.01   0.00     0.01  -0.01   0.01
  28   8    -0.03   0.01   0.01    -0.01  -0.01   0.01    -0.00  -0.02   0.01
  29   1    -0.00   0.00  -0.00    -0.05  -0.03   0.07    -0.06  -0.04   0.08
  30   1    -0.01   0.00   0.00     0.02   0.00  -0.02     0.02  -0.01  -0.02
  31   8     0.02   0.02  -0.02    -0.14   0.03  -0.05    -0.03  -0.08  -0.07
  32   1     0.00   0.01  -0.01    -0.04  -0.04   0.01    -0.03  -0.06   0.01
  33   1     0.02  -0.01  -0.00    -0.07   0.03  -0.05     0.00  -0.08  -0.07
  34   8    -0.01  -0.05   0.00     0.11   0.40  -0.03    -0.09  -0.31   0.03
  35   1    -0.00  -0.01   0.00     0.02   0.07  -0.03    -0.02  -0.05   0.02
  36   1    -0.00  -0.01  -0.00     0.02   0.11  -0.00    -0.01  -0.08   0.01
  37   8     0.02  -0.01  -0.02    -0.15   0.09  -0.01    -0.01   0.08   0.16
  38   1     0.01  -0.00  -0.00    -0.04   0.02   0.00    -0.01   0.03   0.03
  39   1     0.00  -0.00  -0.01    -0.03   0.02   0.01    -0.03   0.02   0.03
  40   8    -0.03   0.01   0.01     0.06   0.02  -0.19     0.03  -0.01  -0.11
  41   1    -0.00   0.00   0.01     0.01   0.02  -0.06     0.00   0.02  -0.03
  42   1     0.00   0.00   0.01     0.01   0.00  -0.03     0.00  -0.01  -0.01
  43   8    -0.02   0.03   0.01     0.07   0.02  -0.00    -0.02   0.07  -0.01
  44   1    -0.01   0.00   0.00     0.02   0.00  -0.00    -0.00   0.01   0.01
  45   1    -0.01   0.01   0.00     0.01   0.01   0.00    -0.01   0.02  -0.00
  46   8     0.34   0.35  -0.11     0.03   0.05  -0.02    -0.03  -0.01  -0.00
  47   1     0.08   0.09  -0.01     0.01   0.02  -0.01    -0.01   0.00   0.01
  48   1     0.06   0.05  -0.03     0.01   0.00  -0.00    -0.02   0.00  -0.01
  49   8     0.02   0.04   0.06    -0.19  -0.31   0.11     0.18   0.21  -0.15
  50   1    -0.01   0.01   0.01    -0.01  -0.05   0.03     0.01   0.02  -0.04
  51   1     0.06   0.03   0.02    -0.21  -0.17  -0.02     0.23   0.16   0.02
  52   8     0.00   0.03  -0.02    -0.13  -0.37   0.21    -0.11  -0.46   0.27
  53   1     0.00   0.01  -0.00    -0.04  -0.09   0.07    -0.05  -0.11   0.08
  54   1     0.00   0.01  -0.00    -0.03  -0.07   0.03    -0.02  -0.09   0.04
  55   8     0.01  -0.02   0.01    -0.00  -0.01  -0.00     0.02   0.10   0.02
  56   1    -0.00  -0.01  -0.01    -0.00  -0.00  -0.01     0.00   0.03   0.01
  57   1    -0.02  -0.01  -0.03    -0.00  -0.00  -0.00     0.00   0.02   0.00
  58   8    -0.06   0.03  -0.02     0.01   0.03  -0.06    -0.01  -0.02   0.04
  59   1    -0.01   0.01  -0.00     0.01   0.01  -0.01    -0.01  -0.00   0.01
  60   1    -0.01  -0.01   0.02    -0.00   0.01  -0.01     0.00  -0.01   0.01
  61   8     0.01  -0.06  -0.20     0.06  -0.07   0.02    -0.12   0.03  -0.08
  62   1     0.01  -0.02  -0.03     0.01  -0.01   0.00    -0.03   0.01  -0.02
  63   1    -0.01  -0.02  -0.04     0.02  -0.01   0.01    -0.03   0.01  -0.02
  64   8    -0.07  -0.14   0.23    -0.04  -0.01   0.01    -0.07   0.01  -0.06
  65   1    -0.00  -0.05   0.03    -0.02  -0.01   0.00    -0.01   0.00  -0.02
  66   1    -0.02   0.00   0.05    -0.01   0.00   0.00    -0.01   0.00  -0.02
  67   8    -0.18  -0.11  -0.35    -0.02  -0.01  -0.04    -0.01   0.01   0.01
  68   1    -0.00  -0.12  -0.08    -0.00  -0.01  -0.01     0.00   0.00  -0.00
  69   1    -0.02   0.04  -0.03    -0.00   0.01  -0.00    -0.00   0.00  -0.00
  70   8     0.04   0.02   0.02     0.06  -0.03  -0.03    -0.03   0.10   0.00
  71   1     0.00   0.01   0.00     0.02  -0.01  -0.01    -0.01   0.03  -0.00
  72   1     0.00   0.01   0.00     0.01  -0.01  -0.01    -0.01   0.02  -0.01
  73   8     0.00   0.03  -0.01     0.11  -0.21   0.13    -0.03   0.01  -0.23
  74   1    -0.01   0.00   0.00     0.05  -0.05   0.01    -0.04  -0.00  -0.03
  75   1     0.01   0.01  -0.00    -0.02  -0.04   0.05    -0.00   0.01  -0.03
                     31                     32                     33
                        a                      a                      a 
 Frequencies --   145.1969               149.0742               151.3445
 Red. masses --    11.6265                13.1134                12.2029
 Frc consts  --     0.0000                 0.0000                 0.0000
 IR Inten    --     6.6803                10.4330                 3.2532
 Raman Activ --     0.0000                 0.0000                 0.0000
 Depolar     --     0.0000                 0.0000                 0.0000
 Atom AN      X      Y      Z        X      Y      Z        X      Y      Z
   1   8    -0.06  -0.37   0.12     0.01  -0.14   0.03     0.03   0.07  -0.02
   2   1    -0.24  -0.24   0.18    -0.05  -0.07   0.06     0.02   0.03   0.01
   3   1     0.02  -0.05   0.00     0.02  -0.03  -0.00     0.02  -0.00  -0.01
   4   8    -0.08   0.07   0.06     0.03   0.14   0.03    -0.03  -0.07  -0.03
   5   1    -0.01   0.01   0.01    -0.01   0.04  -0.02    -0.00  -0.02   0.00
   6   1    -0.02   0.02   0.01     0.00   0.01   0.00    -0.00  -0.01  -0.01
   7   8     0.02   0.13   0.05    -0.01  -0.16  -0.05     0.05   0.11   0.03
   8   1     0.02   0.04   0.01    -0.00  -0.04  -0.02     0.01   0.03   0.01
   9   1     0.00   0.03   0.01    -0.01  -0.04  -0.01     0.01   0.02   0.01
  10   8    -0.05   0.05  -0.11    -0.08   0.03   0.04    -0.11  -0.01   0.12
  11   1    -0.00   0.02  -0.01    -0.03   0.02   0.02    -0.02  -0.02   0.01
  12   1    -0.02  -0.00  -0.03    -0.03   0.01   0.02    -0.02   0.00   0.02
  13   8     0.16   0.07  -0.00    -0.10   0.14  -0.15     0.06  -0.07   0.05
  14   1     0.05   0.02  -0.01    -0.03   0.03  -0.03     0.02  -0.01   0.02
  15   1     0.05   0.04   0.00    -0.02   0.04  -0.04     0.01  -0.02   0.01
  16   8     0.06   0.00   0.07    -0.14  -0.01  -0.15     0.16  -0.03   0.14
  17   1     0.01   0.01   0.02    -0.01  -0.02  -0.03     0.02   0.01   0.03
  18   1     0.01   0.00   0.02    -0.07   0.03  -0.05     0.09  -0.04   0.05
  19   8    -0.02   0.03   0.05     0.05  -0.02  -0.09    -0.11  -0.07   0.12
  20   1    -0.01   0.00   0.01     0.02  -0.01  -0.03    -0.04  -0.03   0.04
  21   1    -0.01   0.01   0.01     0.01  -0.00  -0.02    -0.03  -0.03  -0.02
  22   8    -0.09   0.04  -0.04     0.13  -0.06   0.07    -0.03   0.21  -0.05
  23   1    -0.02   0.00  -0.01     0.03  -0.01   0.02    -0.01   0.03  -0.01
  24   1    -0.02   0.00  -0.01     0.03  -0.01   0.02    -0.03   0.07  -0.01
  25   8    -0.09   0.02   0.10     0.02   0.11  -0.16    -0.20  -0.06  -0.42
  26   1    -0.02   0.01   0.02     0.00   0.03  -0.03    -0.06  -0.01  -0.07
  27   1    -0.02   0.01   0.02     0.01   0.02  -0.04     0.00  -0.01  -0.13
  28   8     0.03   0.01   0.01    -0.01   0.05   0.04    -0.05   0.05   0.05
  29   1     0.01   0.00   0.01    -0.03  -0.00   0.05     0.00   0.02   0.02
  30   1    -0.00  -0.00   0.02     0.01   0.02  -0.01    -0.02   0.02   0.02
  31   8    -0.05   0.01   0.03    -0.07   0.09  -0.02    -0.03   0.18  -0.01
  32   1     0.01  -0.03   0.00    -0.00  -0.01  -0.00     0.01   0.02  -0.01
  33   1    -0.07   0.10   0.02    -0.12   0.19   0.01    -0.15   0.29   0.03
  34   8     0.07   0.02  -0.03     0.09  -0.09  -0.08     0.14  -0.09  -0.15
  35   1     0.01  -0.00  -0.02     0.02  -0.04  -0.04     0.03  -0.05  -0.06
  36   1     0.01   0.00  -0.01     0.02  -0.02  -0.01     0.02  -0.01  -0.01
  37   8    -0.05   0.04  -0.04    -0.12   0.07   0.06     0.04  -0.01  -0.03
  38   1    -0.01  -0.00  -0.00    -0.02   0.02   0.02     0.01  -0.00  -0.00
  39   1     0.04   0.02  -0.00    -0.01   0.02   0.02     0.01  -0.00  -0.01
  40   8    -0.02  -0.04   0.22     0.01   0.05  -0.09     0.02  -0.03   0.03
  41   1    -0.01  -0.01   0.05    -0.00   0.02  -0.03    -0.00  -0.02   0.01
  42   1     0.00  -0.01   0.05    -0.01   0.01  -0.02     0.02  -0.01   0.01
  43   8    -0.03  -0.05  -0.01    -0.02  -0.01   0.02    -0.10  -0.06   0.02
  44   1    -0.01  -0.00  -0.01    -0.01   0.00  -0.00    -0.03   0.01   0.00
  45   1     0.01  -0.01   0.00     0.01  -0.01   0.01     0.01  -0.02   0.01
  46   8    -0.02  -0.01  -0.04     0.06   0.00   0.04     0.24  -0.05   0.21
  47   1    -0.01   0.00  -0.01     0.02   0.02  -0.00     0.06  -0.15   0.10
  48   1    -0.00  -0.01  -0.01     0.03   0.01   0.01     0.05  -0.00   0.04
  49   8    -0.01  -0.08  -0.04    -0.07   0.11   0.36     0.05  -0.02  -0.05
  50   1     0.02  -0.01  -0.00    -0.04   0.03   0.08     0.01  -0.00  -0.02
  51   1    -0.19  -0.11  -0.06     0.09   0.07   0.11     0.11   0.03   0.01
  52   8     0.16  -0.26  -0.08     0.05  -0.20   0.03    -0.02   0.04   0.02
  53   1     0.02  -0.06  -0.00     0.00  -0.05   0.03    -0.00   0.01  -0.00
  54   1     0.04  -0.05  -0.07     0.01  -0.04  -0.02    -0.01   0.01   0.01
  55   8    -0.00   0.05   0.00    -0.04  -0.32  -0.10    -0.01   0.08  -0.01
  56   1    -0.01   0.01  -0.00    -0.02  -0.09  -0.08    -0.02   0.02  -0.00
  57   1    -0.00   0.01   0.00    -0.01  -0.06  -0.01    -0.01   0.01  -0.01
  58   8     0.04   0.03  -0.04    -0.06   0.05  -0.01     0.04   0.03  -0.00
  59   1     0.01   0.00  -0.01    -0.02   0.01   0.01     0.01   0.01  -0.00
  60   1     0.01   0.01  -0.01    -0.02   0.00   0.00     0.01   0.01  -0.00
  61   8    -0.02  -0.07  -0.05     0.11   0.12   0.12    -0.00  -0.06   0.26
  62   1    -0.01  -0.02  -0.01     0.04   0.02   0.04    -0.01  -0.02   0.04
  63   1    -0.00  -0.02  -0.01     0.02   0.02   0.02     0.01  -0.01   0.05
  64   8    -0.05   0.03  -0.08     0.15  -0.06   0.18    -0.05   0.01  -0.10
  65   1    -0.02   0.00  -0.02     0.05  -0.01   0.04    -0.02  -0.02  -0.05
  66   1    -0.01   0.01  -0.02     0.03  -0.02   0.05    -0.01   0.03  -0.03
  67   8    -0.02   0.02   0.01     0.11  -0.10  -0.02    -0.08  -0.05  -0.09
  68   1    -0.01   0.01   0.00     0.02  -0.02   0.00    -0.00  -0.05  -0.02
  69   1    -0.00   0.00   0.00     0.02  -0.03  -0.00    -0.01   0.02   0.00
  70   8    -0.15   0.04  -0.04     0.01  -0.02  -0.03    -0.01  -0.04  -0.04
  71   1    -0.02   0.00  -0.00     0.01  -0.01  -0.01    -0.01  -0.02  -0.00
  72   1    -0.03   0.01  -0.01     0.00  -0.00  -0.01    -0.01   0.01  -0.00
  73   8     0.35   0.25  -0.14    -0.08   0.20  -0.07    -0.02  -0.07  -0.08
  74   1     0.10   0.07  -0.04    -0.06   0.04   0.01    -0.02  -0.02  -0.01
  75   1     0.07   0.06  -0.04     0.00   0.05  -0.00     0.01  -0.02  -0.02
                     34                     35                     36
                        a                      a                      a 
 Frequencies --   152.1959               155.8493               159.4380
 Red. masses --     9.4811                 9.8717                13.5607
 Frc consts  --     0.0000                 0.0000                 0.0000
 IR Inten    --    27.2593                 3.4523                 1.2241
 Raman Activ --     0.0000                 0.0000                 0.0000
 Depolar     --     0.0000                 0.0000                 0.0000
 Atom AN      X      Y      Z        X      Y      Z        X      Y      Z
   1   8    -0.00   0.09   0.01     0.04   0.05  -0.02     0.01   0.07  -0.01
   2   1    -0.04  -0.00   0.05     0.11   0.08  -0.03     0.07   0.06  -0.05
   3   1     0.02   0.02  -0.01     0.00  -0.05   0.01    -0.01  -0.00   0.01
   4   8     0.00  -0.02  -0.02     0.02   0.01  -0.00     0.01  -0.04   0.02
   5   1     0.00  -0.00   0.00     0.00   0.01  -0.00     0.00  -0.01   0.00
   6   1     0.00  -0.01  -0.01     0.00  -0.00  -0.01     0.00  -0.01   0.00
   7   8    -0.03  -0.05  -0.02    -0.02  -0.08  -0.03     0.08   0.05  -0.00
   8   1    -0.01  -0.01  -0.01    -0.01  -0.02  -0.01     0.02   0.01   0.01
   9   1    -0.00  -0.01  -0.00    -0.00  -0.01  -0.00     0.01  -0.00  -0.00
  10   8    -0.06  -0.11   0.09    -0.09   0.29   0.11    -0.02   0.07   0.02
  11   1    -0.01  -0.06  -0.03     0.00   0.10   0.09    -0.02   0.04   0.04
  12   1    -0.01   0.00   0.02    -0.03   0.01   0.03    -0.00   0.00  -0.00
  13   8    -0.01  -0.04   0.04    -0.04  -0.00   0.01     0.03  -0.05   0.03
  14   1    -0.01  -0.01   0.01    -0.00  -0.01  -0.01     0.02   0.01   0.01
  15   1    -0.01  -0.01   0.00     0.00   0.00   0.02     0.00  -0.02   0.00
  16   8    -0.00  -0.02  -0.02    -0.02  -0.02  -0.05     0.18  -0.00   0.16
  17   1     0.00  -0.01  -0.01    -0.00  -0.01  -0.01     0.02   0.00   0.03
  18   1     0.01  -0.01  -0.00     0.00  -0.01  -0.01     0.13  -0.05   0.06
  19   8     0.05   0.06  -0.03     0.03  -0.01  -0.03    -0.13   0.15   0.18
  20   1     0.01   0.02  -0.01     0.01   0.00  -0.01    -0.04   0.04   0.05
[...]
  70   8     0.00   0.00  -0.00     0.00   0.00   0.00    -0.00  -0.01   0.00
  71   1     0.00   0.00   0.00    -0.00  -0.01  -0.01     0.00   0.01   0.01
  72   1    -0.00  -0.00   0.00    -0.00  -0.00   0.00     0.01   0.02  -0.02
  73   8     0.09   0.14   0.03     0.04   0.05   0.02    -0.00  -0.00   0.00
  74   1    -0.28   0.09  -0.36    -0.15   0.05  -0.19     0.00  -0.00   0.00
  75   1    -0.09  -0.66   0.25    -0.03  -0.23   0.09     0.00   0.01  -0.00
                    211                    212                    213
                        a                      a                      a 
 Frequencies --  3569.8163              3623.3314              3677.5410
 Red. masses --     1.7810                 1.8186                 1.8369
 Frc consts  --     0.0000                 0.0000                 0.0000
 IR Inten    --    68.3130                39.8716                10.6765
 Raman Activ --     0.0000                 0.0000                 0.0000
 Depolar     --     0.0000                 0.0000                 0.0000
 Atom AN      X      Y      Z        X      Y      Z        X      Y      Z
   1   8     0.00   0.00   0.00    -0.00   0.00   0.00     0.00  -0.00   0.00
   2   1     0.00  -0.00   0.00     0.00  -0.00  -0.00    -0.00   0.00  -0.00
   3   1    -0.00   0.00  -0.00    -0.00  -0.00  -0.00     0.00  -0.00   0.00
   4   8     0.00   0.00   0.00     0.00  -0.00  -0.00     0.00   0.00  -0.00
   5   1    -0.00  -0.00   0.00    -0.00  -0.00   0.00    -0.00  -0.00   0.00
   6   1    -0.00   0.00  -0.00    -0.00  -0.00   0.00    -0.00   0.00  -0.00
   7   8    -0.00   0.00  -0.00     0.00   0.00  -0.00    -0.00   0.00  -0.00
   8   1     0.00  -0.00  -0.00    -0.00   0.00   0.00    -0.00   0.00   0.00
   9   1     0.00  -0.00   0.00     0.00  -0.00   0.00     0.02  -0.01   0.02
  10   8     0.00   0.00  -0.00     0.00  -0.00   0.00    -0.00  -0.00   0.00
  11   1    -0.00  -0.00   0.00     0.00   0.00  -0.00     0.00   0.00  -0.00
  12   1    -0.00   0.00  -0.00    -0.00   0.00  -0.00     0.00  -0.00   0.00
  13   8    -0.00   0.00   0.00     0.00  -0.00  -0.00     0.00   0.00   0.00
  14   1    -0.00  -0.00  -0.00    -0.00  -0.00  -0.00    -0.00   0.00  -0.00
  15   1     0.00  -0.00  -0.00    -0.00   0.00   0.00     0.00  -0.00  -0.00
  16   8     0.00   0.00   0.00     0.00  -0.00  -0.00     0.00   0.00   0.01
  17   1    -0.00  -0.00   0.00    -0.00  -0.00   0.00    -0.00  -0.00   0.00
  18   1    -0.00  -0.00  -0.00     0.00   0.00   0.00    -0.00  -0.02  -0.02
  19   8     0.00   0.00   0.00    -0.00  -0.00  -0.00     0.00   0.00  -0.00
  20   1    -0.01   0.00  -0.00     0.00  -0.00   0.00     0.00  -0.00   0.00
  21   1     0.00  -0.00  -0.00     0.00   0.00  -0.00    -0.00  -0.00   0.00
  22   8    -0.00  -0.01   0.00     0.00   0.00  -0.00     0.00   0.00  -0.00
  23   1    -0.02  -0.00  -0.02     0.00  -0.00   0.00     0.00   0.00  -0.00
  24   1     0.02   0.03  -0.00    -0.00  -0.00  -0.00    -0.00  -0.00   0.00
  25   8     0.00  -0.00   0.00    -0.01   0.01  -0.00    -0.00   0.00   0.00
  26   1    -0.00   0.00  -0.00     0.03  -0.04   0.01     0.00  -0.00   0.00
  27   1    -0.00   0.00  -0.00    -0.00  -0.00  -0.00    -0.00  -0.00  -0.00
  28   8     0.00  -0.00   0.00     0.09  -0.21  -0.04    -0.00   0.00   0.00
  29   1    -0.00   0.00   0.00    -0.32   0.89   0.19     0.00  -0.00  -0.00
  30   1    -0.00  -0.00  -0.00    -0.03  -0.05  -0.03    -0.00   0.00  -0.00
  31   8     0.00  -0.00   0.00    -0.00  -0.00   0.00    -0.00  -0.00   0.00
  32   1    -0.00  -0.00  -0.00    -0.01  -0.00  -0.01    -0.00  -0.00  -0.00
  33   1    -0.00   0.00   0.00     0.01   0.00  -0.00     0.00   0.00  -0.00
  34   8     0.00  -0.00  -0.00    -0.00  -0.00   0.00     0.00  -0.00  -0.00
  35   1    -0.00   0.00   0.00     0.00  -0.00  -0.00    -0.00  -0.00   0.00
  36   1    -0.00   0.00  -0.00     0.00   0.00  -0.00     0.00   0.00  -0.00
  37   8     0.00   0.00   0.00     0.00  -0.00  -0.00     0.00   0.00  -0.00
  38   1     0.00  -0.00  -0.00    -0.00   0.00   0.00    -0.00   0.00   0.00
  39   1    -0.00   0.00  -0.00     0.00   0.00  -0.00     0.00  -0.00   0.00
  40   8    -0.00   0.00   0.00     0.00  -0.00  -0.00    -0.00  -0.00   0.00
  41   1    -0.00  -0.00  -0.00    -0.00  -0.00   0.00     0.00  -0.00  -0.00
  42   1     0.00  -0.00  -0.00    -0.00   0.00   0.00    -0.00   0.00   0.00
  43   8     0.00  -0.00   0.00     0.00  -0.00   0.00     0.00   0.00  -0.00
  44   1    -0.00   0.00   0.00    -0.00   0.00   0.00    -0.00   0.00   0.00
  45   1     0.00   0.00  -0.00     0.00   0.01  -0.00    -0.00  -0.00   0.00
  46   8    -0.00  -0.00   0.00     0.00   0.00  -0.00    -0.00  -0.00  -0.00
  47   1     0.00   0.00   0.00    -0.00  -0.00  -0.00     0.01   0.00   0.00
  48   1     0.00   0.00  -0.00    -0.00   0.00   0.00    -0.00   0.00   0.00
  49   8    -0.00   0.00   0.00     0.00  -0.00  -0.00     0.00   0.00  -0.00
  50   1     0.00  -0.00  -0.00    -0.00   0.00   0.00    -0.00   0.00   0.00
  51   1    -0.00   0.00  -0.00    -0.00   0.00  -0.00    -0.00  -0.01   0.02
  52   8     0.00   0.00  -0.00    -0.01  -0.00   0.00    -0.00   0.00   0.00
  53   1    -0.00  -0.00  -0.00     0.01   0.03  -0.00    -0.00  -0.00   0.00
  54   1    -0.00   0.00   0.00     0.02  -0.02  -0.01     0.00  -0.00  -0.00
  55   8    -0.01  -0.00   0.00    -0.00  -0.00   0.00    -0.07  -0.22   0.04
  56   1     0.00   0.00  -0.00     0.00   0.00  -0.00     0.29   0.91  -0.17
  57   1     0.04   0.00  -0.02    -0.00  -0.00   0.00    -0.03  -0.02   0.01
  58   8     0.00   0.00   0.00     0.00   0.00  -0.00    -0.00   0.00   0.00
  59   1     0.00  -0.01  -0.00     0.00  -0.00  -0.00     0.00  -0.02  -0.01
  60   1    -0.01  -0.00  -0.00     0.00  -0.00   0.00     0.00   0.00   0.00
  61   8     0.00  -0.00  -0.00     0.00   0.00  -0.00    -0.00   0.00  -0.00
  62   1    -0.00   0.00   0.00    -0.00  -0.00   0.00    -0.00  -0.00   0.00
  63   1    -0.00   0.00  -0.00    -0.00   0.00   0.00     0.00  -0.00   0.00
  64   8     0.00  -0.00  -0.00     0.00  -0.00   0.00    -0.00   0.00  -0.00
  65   1    -0.00   0.00  -0.00    -0.00   0.00  -0.00     0.01  -0.02   0.01
  66   1    -0.01   0.00   0.01    -0.00  -0.00   0.00    -0.00   0.00  -0.00
  67   8     0.16   0.10   0.13    -0.00  -0.00  -0.00     0.00  -0.00  -0.00
  68   1    -0.65  -0.33  -0.62     0.00   0.00   0.00     0.00   0.00   0.00
  69   1     0.03  -0.07   0.11     0.00  -0.00   0.00    -0.00   0.00  -0.00
  70   8    -0.00  -0.00   0.00     0.00   0.00  -0.01     0.00  -0.00  -0.00
  71   1    -0.00   0.00   0.00     0.00   0.00   0.00     0.00   0.00   0.00
  72   1     0.00   0.00  -0.00    -0.01  -0.02   0.03    -0.00  -0.00   0.00
  73   8     0.00   0.00   0.00    -0.00  -0.00   0.00     0.00   0.00   0.00
  74   1    -0.00   0.00  -0.00    -0.00   0.00  -0.00    -0.00   0.00  -0.00
  75   1    -0.00  -0.00   0.00     0.00   0.00  -0.00    -0.00  -0.00   0.00
                    214                    215                    216
                        a                      a                      a 
 Frequencies --  3679.2727              3680.4539              3683.8890
 Red. masses --     1.8404                 1.8353                 1.8396
 Frc consts  --     0.0000                 0.0000                 0.0000
 IR Inten    --     7.3097                15.3684                11.9470
 Raman Activ --     0.0000                 0.0000                 0.0000
 Depolar     --     0.0000                 0.0000                 0.0000
 Atom AN      X      Y      Z        X      Y      Z        X      Y      Z
   1   8    -0.00   0.00  -0.00    -0.00   0.00   0.00     0.00  -0.00   0.00
   2   1     0.00  -0.00   0.00     0.00  -0.00   0.00    -0.00   0.01  -0.00
   3   1    -0.00   0.00  -0.00    -0.00   0.00  -0.00     0.00  -0.00   0.00
   4   8    -0.00   0.00  -0.00    -0.00  -0.00   0.00     0.00   0.00  -0.00
   5   1     0.00   0.00  -0.00     0.00   0.00   0.00    -0.00  -0.00   0.00
   6   1     0.00  -0.00   0.00    -0.00   0.00  -0.00     0.00   0.00   0.00
   7   8     0.00  -0.00   0.00     0.00  -0.00   0.00    -0.00  -0.00   0.00
   8   1     0.00  -0.00  -0.00    -0.00   0.00  -0.00    -0.00   0.00   0.00
   9   1    -0.00   0.00  -0.00    -0.00   0.00  -0.00     0.00  -0.00  -0.00
  10   8     0.00   0.00  -0.00    -0.00  -0.01   0.00     0.00   0.00  -0.00
  11   1    -0.00  -0.00   0.00     0.00   0.03  -0.02    -0.00  -0.00   0.00
  12   1    -0.00   0.00  -0.00     0.00  -0.00   0.00    -0.00   0.00  -0.00
  13   8     0.00  -0.00   0.00     0.00  -0.00   0.00    -0.00   0.00   0.00
  14   1    -0.00   0.00  -0.00    -0.00   0.00  -0.00    -0.00  -0.00   0.00
  15   1    -0.00   0.00   0.00     0.00   0.00   0.00     0.00  -0.00  -0.00
  16   8    -0.00  -0.00  -0.00    -0.00  -0.00  -0.01    -0.02  -0.13  -0.20
  17   1     0.00   0.00  -0.00     0.00   0.00  -0.00     0.01  -0.00  -0.03
  18   1     0.00   0.01   0.01     0.00   0.02   0.03     0.07   0.52   0.82
  19   8     0.00  -0.00   0.00     0.00  -0.00   0.00     0.00  -0.00   0.00
  20   1    -0.00   0.00  -0.00    -0.00   0.00  -0.00    -0.02   0.00  -0.01
  21   1     0.00   0.00  -0.00     0.00   0.00  -0.00     0.00  -0.00  -0.00
  22   8    -0.00  -0.00   0.00    -0.00  -0.00   0.00     0.00   0.00   0.00
  23   1     0.00   0.00   0.00     0.00   0.00  -0.00    -0.00   0.00  -0.00
  24   1     0.00   0.00  -0.00     0.00   0.00  -0.00    -0.00  -0.00  -0.00
  25   8    -0.00  -0.00  -0.00    -0.00  -0.00  -0.00     0.00   0.00   0.00
  26   1    -0.00   0.00  -0.00    -0.00   0.00  -0.00     0.00  -0.00   0.00
  27   1     0.00   0.00   0.00     0.00   0.00   0.00    -0.00  -0.00  -0.00
  28   8     0.00  -0.00  -0.00     0.00  -0.00  -0.00    -0.00   0.00   0.00
  29   1    -0.00   0.00   0.00    -0.00   0.00   0.00     0.00  -0.00  -0.00
  30   1     0.00   0.00   0.00     0.00   0.00   0.00     0.00   0.00  -0.00
  31   8     0.00   0.00  -0.00     0.00   0.00  -0.00    -0.00  -0.00   0.00
  32   1     0.00   0.00   0.00     0.00   0.00   0.00    -0.00  -0.00  -0.00
  33   1    -0.00  -0.00   0.00    -0.01  -0.01   0.01     0.01   0.01  -0.01
  34   8    -0.00  -0.00   0.00    -0.00   0.00  -0.00     0.00  -0.00  -0.00
  35   1     0.00  -0.00  -0.00     0.00   0.00  -0.00    -0.00  -0.00   0.00
  36   1     0.00   0.00  -0.00    -0.00  -0.00   0.00     0.00   0.00  -0.00
  37   8     0.00  -0.00   0.00    -0.00  -0.00   0.00     0.00   0.00  -0.00
  38   1     0.00  -0.00  -0.00     0.00  -0.00   0.00    -0.00   0.00   0.00
  39   1    -0.00   0.00  -0.00    -0.00   0.00  -0.00     0.00  -0.00   0.00
  40   8    -0.00   0.00   0.00     0.00   0.00  -0.00    -0.00   0.01   0.00
  41   1     0.00   0.00  -0.00    -0.00   0.00   0.00    -0.00   0.00   0.00
  42   1     0.00  -0.00  -0.00     0.00  -0.00  -0.00     0.00  -0.03  -0.01
  43   8    -0.00  -0.00   0.00     0.00  -0.00   0.00     0.00   0.00  -0.00
  44   1     0.00  -0.00  -0.00    -0.00  -0.00   0.00     0.00   0.00  -0.00
  45   1     0.00   0.00  -0.00     0.00   0.00  -0.00    -0.00  -0.00   0.00
  46   8     0.01   0.00   0.00     0.00   0.00   0.00    -0.01  -0.00  -0.00
  47   1    -0.05  -0.00  -0.01    -0.02  -0.00  -0.00     0.04   0.00   0.00
  48   1     0.00  -0.00  -0.00     0.00  -0.00  -0.00    -0.00   0.00   0.00
  49   8     0.00  -0.02   0.04    -0.00   0.11  -0.20     0.00  -0.00   0.01
  50   1    -0.00   0.00   0.01     0.01  -0.00  -0.04    -0.00  -0.00   0.00
  51   1     0.00   0.09  -0.17    -0.00  -0.45   0.84     0.00   0.01  -0.03
  52   8     0.00  -0.00  -0.00     0.00   0.00  -0.00    -0.00  -0.00   0.00
  53   1     0.00   0.00  -0.00    -0.00  -0.00   0.00     0.00   0.00  -0.00
  54   1    -0.00   0.00   0.00    -0.00   0.00   0.00     0.00  -0.00  -0.00
  55   8     0.00   0.00  -0.00     0.00   0.01  -0.00    -0.00  -0.01   0.00
  56   1    -0.00  -0.01   0.00    -0.01  -0.02   0.00     0.01   0.03  -0.01
  57   1     0.00   0.00  -0.00     0.00   0.00  -0.00    -0.00  -0.00   0.00
  58   8     0.00   0.00   0.00    -0.00   0.00   0.00    -0.00   0.00   0.00
  59   1    -0.00  -0.00  -0.00     0.00  -0.00  -0.00     0.00  -0.00  -0.00
  60   1    -0.01  -0.00  -0.00    -0.00   0.00  -0.00     0.00  -0.00   0.00
  61   8    -0.00  -0.00   0.00    -0.00  -0.00   0.00     0.00   0.00  -0.00
  62   1     0.01   0.03  -0.00     0.00   0.01  -0.00    -0.00  -0.00   0.00
  63   1     0.00  -0.00   0.00     0.00  -0.00  -0.00     0.00  -0.00   0.00
  64   8    -0.06   0.18  -0.13    -0.01   0.04  -0.03     0.00  -0.00   0.00
  65   1     0.25  -0.73   0.56     0.05  -0.15   0.11    -0.00   0.01  -0.01
  66   1     0.00   0.02  -0.03     0.00   0.00  -0.01     0.00  -0.00   0.00
  67   8     0.00   0.00   0.00     0.00   0.00   0.00     0.00  -0.00   0.00
  68   1    -0.00  -0.00  -0.00    -0.00  -0.00  -0.00    -0.00  -0.00  -0.00
  69   1     0.00   0.00  -0.00     0.00   0.00  -0.00    -0.00   0.00  -0.00
  70   8    -0.00   0.00   0.00    -0.00  -0.00   0.00    -0.00  -0.00   0.00
  71   1    -0.00  -0.00  -0.00    -0.00  -0.00  -0.00    -0.00  -0.00  -0.00
  72   1     0.00   0.00  -0.00     0.00   0.00  -0.00     0.00   0.00  -0.00
  73   8    -0.00  -0.00  -0.00     0.00  -0.00   0.01    -0.00   0.00  -0.00
  74   1     0.00  -0.00   0.00    -0.02   0.01  -0.02     0.00  -0.00   0.00
  75   1    -0.00   0.00  -0.00     0.00  -0.00   0.00    -0.00   0.00  -0.00
                    217                    218                    219
                        a                      a                      a 
 Frequencies --  3685.6844              3686.8757              3690.1584
 Red. masses --     1.8412                 1.8405                 1.8405
 Frc consts  --     0.0000                 0.0000                 0.0000
 IR Inten    --    11.6002                11.5138                 8.4957
 Raman Activ --     0.0000                 0.0000                 0.0000
 Depolar     --     0.0000                 0.0000                 0.0000
 Atom AN      X      Y      Z        X      Y      Z        X      Y      Z
   1   8    -0.00   0.00  -0.00    -0.02   0.03  -0.00    -0.13   0.19  -0.01
   2   1     0.01  -0.02   0.00     0.09  -0.12   0.01     0.55  -0.78   0.05
   3   1    -0.00   0.00  -0.00    -0.00   0.00  -0.00    -0.02   0.02  -0.02
   4   8    -0.00   0.00  -0.00     0.00   0.00  -0.00    -0.00  -0.00   0.00
   5   1    -0.00  -0.00   0.00    -0.00  -0.00   0.00     0.00   0.00  -0.00
   6   1     0.00  -0.00   0.00    -0.00   0.00  -0.00    -0.00  -0.00  -0.00
   7   8     0.00  -0.00   0.00    -0.00   0.00  -0.00     0.00  -0.00   0.00
   8   1    -0.00   0.00   0.00     0.00  -0.00  -0.00    -0.00   0.00   0.00
   9   1    -0.00   0.00  -0.00     0.00  -0.00   0.00    -0.00   0.00  -0.00
  10   8     0.00  -0.00   0.00    -0.00   0.00  -0.00    -0.00  -0.00  -0.00
  11   1     0.00   0.00  -0.00    -0.00  -0.00   0.00     0.00   0.00  -0.00
  12   1    -0.00  -0.00  -0.00     0.00   0.00   0.00     0.00  -0.00   0.00
  13   8     0.00  -0.00   0.00     0.00  -0.00  -0.00     0.00  -0.00   0.00
  14   1    -0.00   0.00  -0.00    -0.00  -0.00   0.00    -0.00  -0.00  -0.00
  15   1    -0.00   0.00   0.00    -0.00   0.00   0.00    -0.00   0.00   0.00
  16   8     0.00   0.01   0.01     0.00   0.00   0.00    -0.00  -0.00  -0.00
  17   1    -0.00   0.00   0.00    -0.00   0.00   0.00     0.00  -0.00  -0.00
  18   1    -0.00  -0.02  -0.03    -0.00  -0.01  -0.01     0.00   0.00   0.01
  19   8     0.00   0.00  -0.00    -0.00   0.00  -0.00     0.00  -0.00   0.00
  20   1     0.00   0.00   0.00     0.00  -0.00   0.00    -0.00   0.00  -0.00
  21   1    -0.00  -0.00   0.00     0.00  -0.00  -0.00     0.00   0.00  -0.00
  22   8     0.00   0.00  -0.00    -0.00  -0.00   0.00    -0.00  -0.00   0.00
  23   1     0.00   0.00   0.00    -0.00  -0.00  -0.00    -0.00   0.00  -0.00
  24   1    -0.02  -0.02   0.00     0.00   0.00   0.00     0.00   0.00  -0.00
  25   8     0.00   0.00   0.00    -0.00   0.00  -0.00     0.00  -0.00  -0.00
  26   1     0.00  -0.00   0.00     0.00  -0.00   0.00    -0.00   0.00  -0.00
  27   1    -0.01  -0.00  -0.02     0.00   0.00   0.00     0.00   0.00   0.00
  28   8     0.00  -0.00  -0.00    -0.00   0.00   0.00     0.00  -0.00  -0.00
  29   1    -0.00   0.00   0.00     0.00  -0.01  -0.00    -0.00   0.00   0.00
  30   1    -0.00  -0.00  -0.00    -0.00   0.00  -0.00    -0.00  -0.00  -0.00
  31   8    -0.00  -0.00   0.00    -0.17  -0.11   0.10     0.03   0.02  -0.02
  32   1    -0.00  -0.00  -0.00    -0.03  -0.02  -0.00     0.01   0.00   0.00
  33   1     0.02   0.01  -0.01     0.72   0.47  -0.42    -0.11  -0.07   0.07
  34   8     0.00  -0.00  -0.00     0.01  -0.00  -0.00    -0.00   0.00   0.00
  35   1    -0.00   0.00   0.00    -0.02  -0.00   0.01     0.00   0.00  -0.00
  36   1    -0.00  -0.00   0.00     0.00   0.00  -0.00    -0.00  -0.00   0.00
  37   8     0.00  -0.00   0.00     0.00  -0.00   0.00     0.00  -0.01   0.00
  38   1     0.00  -0.00  -0.00    -0.00  -0.00   0.00     0.00  -0.00  -0.00
  39   1    -0.00   0.00  -0.00    -0.00   0.00  -0.00    -0.00   0.03  -0.01
  40   8     0.00  -0.00  -0.00     0.00   0.00   0.00     0.00  -0.00   0.00
  41   1    -0.00  -0.00   0.00    -0.00  -0.00   0.00     0.00  -0.00  -0.00
  42   1    -0.00   0.00   0.00     0.00  -0.00  -0.00    -0.00   0.00   0.00
  43   8     0.00   0.00  -0.00     0.00   0.01  -0.00    -0.00  -0.00   0.00
  44   1    -0.00   0.00   0.00     0.00   0.00  -0.00    -0.00  -0.00   0.00
  45   1    -0.00  -0.00   0.00    -0.01  -0.03   0.01     0.00   0.01  -0.00
  46   8    -0.23  -0.01  -0.03     0.01   0.00   0.00     0.00   0.00   0.00
  47   1     0.96   0.04   0.11    -0.03  -0.00  -0.00    -0.02  -0.00  -0.00
  48   1    -0.03   0.00   0.01     0.00  -0.00  -0.00     0.00  -0.00  -0.00
  49   8     0.00   0.00  -0.00    -0.00   0.00  -0.00     0.00  -0.00   0.00
  50   1     0.00   0.00  -0.00     0.00  -0.00  -0.00    -0.00   0.00   0.00
  51   1    -0.00  -0.01   0.01    -0.00  -0.01   0.01    -0.00   0.00  -0.00
  52   8     0.00  -0.00  -0.00     0.00  -0.00   0.00     0.00  -0.00  -0.00
  53   1    -0.00  -0.00   0.00    -0.00  -0.00   0.00    -0.00  -0.01  -0.00
  54   1    -0.00   0.00   0.00    -0.00   0.00   0.00    -0.02   0.02   0.01
  55   8     0.00   0.00  -0.00     0.00   0.00  -0.00    -0.00  -0.00   0.00
  56   1    -0.00  -0.01   0.00    -0.00  -0.00   0.00     0.00   0.00  -0.00
  57   1     0.00   0.00  -0.00     0.00   0.00  -0.00    -0.00  -0.00   0.00
  58   8     0.00   0.00   0.00     0.00   0.00   0.00    -0.00  -0.00  -0.00
  59   1    -0.00   0.00  -0.00     0.00  -0.00  -0.00    -0.00   0.00   0.00
  60   1    -0.00  -0.00  -0.00    -0.00  -0.00  -0.00     0.00  -0.00   0.00
  61   8     0.00  -0.00  -0.00     0.00  -0.00   0.00    -0.00   0.00  -0.00
  62   1     0.00   0.00  -0.00    -0.00  -0.00   0.00     0.00   0.00   0.00
  63   1     0.00  -0.00   0.00    -0.00   0.00  -0.00     0.00  -0.00   0.00
  64   8    -0.00   0.01  -0.01    -0.00   0.00  -0.00     0.00  -0.00   0.00
  65   1     0.01  -0.04   0.03     0.00  -0.01   0.00    -0.00   0.01  -0.00
  66   1     0.00   0.00  -0.00    -0.00   0.00  -0.00    -0.00  -0.00   0.00
  67   8     0.00   0.00   0.00     0.00   0.00  -0.00    -0.00  -0.00  -0.00
  68   1    -0.00  -0.00  -0.00    -0.00  -0.00  -0.00     0.00   0.00   0.00
  69   1    -0.00   0.00  -0.00     0.00  -0.00   0.00    -0.00   0.00  -0.00
  70   8     0.00   0.00   0.00    -0.00  -0.00  -0.00    -0.00   0.00   0.00
  71   1    -0.00  -0.00  -0.00     0.00   0.00   0.00     0.00  -0.00  -0.00
  72   1    -0.00  -0.00   0.00    -0.00  -0.00   0.00     0.00   0.00  -0.00
  73   8     0.00   0.00   0.00     0.00   0.00   0.00     0.00   0.00  -0.00
  74   1    -0.00   0.00  -0.00    -0.00   0.00  -0.00    -0.00   0.00  -0.00
  75   1    -0.00  -0.00   0.00    -0.00  -0.00   0.00    -0.00  -0.00   0.00
