75
 energy: -127.140252926016 gnorm: 0.048352549802 xtb: 6.5.1 (579679a)
o           -2.63589849474906        4.40195791729916        1.22515499073392
h           -3.27856355562445        5.10923091628066        1.27959155248313
h           -2.48247922998273        4.09044264490050        2.16450762198335
o           -3.53694311465291        0.76981918817849       -1.96643503965972
h           -3.20260356687167       -0.09368552170837       -1.57790028070703
h           -4.43990233567904        0.60140154640359       -2.23876467489422
o           -2.16675472047486       -3.86971171277943       -1.43826786336190
h           -2.49765488137494       -2.97335534564066       -1.22297888573573
h           -1.69981104269656       -4.15995520215182       -0.63589818790348
o           -1.30389335002865        1.17414550626624        2.37205807222744
h           -1.59755228198391        0.36103315120440        2.82244538064175
h           -1.94405509163604        1.32486072658326        1.64673724022048
o           -2.66748929281828       -1.33803365156094       -0.72740567681367
h           -1.73960364400491       -1.03299206516187       -0.51125995576690
h           -3.20152693567179       -1.24372674371058        0.09433210644839
o           -0.32674765908527       -3.22751140706119       -3.16169135386751
h           -1.07904102608973       -3.47194677148299       -2.54860236204828
h           -0.13946622126100       -4.00964142909698       -3.68122069086717
o            1.54895658459234       -2.60435614957565       -1.33477123736363
h            0.86423475721860       -2.73738779413340       -2.02111702248660
h            2.36494088658780       -2.31328467948022       -1.81539789877279
o            3.12375651968703       -2.77289310363928        0.90870528649325
h            2.47955637035400       -2.70231319178735        0.18494076884194
h            3.80614346217744       -2.11412547395747        0.67765772462886
o            3.78013485129004       -1.69051731735870       -2.39088027318111
h            3.44638677685430       -1.07903795089014       -3.07913950012662
h            4.13420486854050       -1.14616050106257       -1.67693140751943
o            2.63541899149344       -0.15814009202843       -4.32560286528336
h            2.99951351341375       -0.31823851377500       -5.19668623916677
h            1.68196883975206       -0.40324651518804       -4.39000853110779
o            0.38585480140169        4.76275471282578        3.74893456788504
h            0.29997862976883        5.00127480089650        2.79020647993267
h            0.67294189656632        5.55263758994259        4.20580817099745
o           -2.05552492679446        3.49137036788079        3.60921053254789
h           -1.22568553008454        3.94003048195541        3.84578814569900
h           -1.79787008539896        2.59330298970086        3.32080468680531
o           -3.24732089052299        1.79880541321233        0.58208560169582
h           -3.32809543982899        1.57999091141300       -0.36357609246843
h           -3.13105049811037        2.76122206202184        0.65240747087181
o            0.08395035701158       -0.87835581610874       -4.59752817215459
h           -0.65925941303596       -0.25678752457606       -4.51189359089986
h           -0.15723902071189       -1.67304775527936       -4.09619651166687
o            1.08280938394022        2.48460742678522        2.18866423114235
h            0.26826325061142        1.95812100473143        2.28466756043507
h            1.10160474279633        3.08445752893305        2.94385343747807
o            4.59419306366406       -0.58052372844046        0.24165996237932
h            5.51393039343353       -0.41530503916944        0.44860661147936
h            4.06806535107677       -0.02386304298622        0.86715705524796
o           -2.29247576081065       -1.08679706817013        3.49373350216190
h           -1.66929117542818       -1.83413861253422        3.27528542142855
h           -2.53595608192142       -1.19943675811978        4.41243901732680
o            0.06849076334540        4.98787655863952        1.12524462010287
h            0.51801621294018        4.14740000421658        0.96711578197400
h           -0.88043199351608        4.81629485435836        0.98878030446412
o           -0.76354276496062       -4.67089269004834        0.82743459263287
h           -1.11286492925180       -5.51620262092303        1.11193552443799
h            0.12808012781726       -4.85404887535563        0.43491567204961
o           -0.56607299098162       -2.96695247483502        2.98835488184895
h           -0.67472318360106       -3.49750706961175        2.17931635870948
h            0.27689036351080       -2.48526199282465        2.89883632465434
o            3.13879611299196        0.64725869564918        2.10360001823409
h            2.61206692216018       -0.09028417662388        2.45547218508872
h            2.51266986418188        1.38666440264952        2.01461812808968
o            1.86349679791050       -1.69120444959500        2.91621279894243
h            2.28834333559397       -1.97963598863533        3.72489092271549
h            2.33738591074417       -2.15534557503357        2.16977988749431
o            1.61479214548453       -5.07182277855108       -0.26008109807061
h            2.34455353687926       -4.95665387883620        0.35456136650467
h            1.60742513926779       -4.25047040235384       -0.80041430133999
o           -1.89395057558506        1.01823990643061       -4.16474217700767
h           -2.48000133221279        0.91073089950517       -3.39216762298480
h           -1.46512768317002        1.86876577552121       -4.05888559472849
o           -4.09067923987856       -0.72751421630324        1.44436715849564
h           -3.54224857146032       -0.92167910418915        2.22257711909582
h           -4.02786847770643        0.22769487277498        1.30399030791985
75
 energy: -127.143082755569 gnorm: 0.020815435828 xtb: 6.5.1 (579679a)
o           -2.64069650475475        4.39542075253247        1.22682250236504
h           -3.27746197317630        5.10830184663808        1.28005806081145
h           -2.47960995896157        4.09336844288523        2.16820708088719
o           -3.54027526002444        0.77648970739755       -1.97138696440015
h           -3.21168626487045       -0.08596496675063       -1.58981008435632
h           -4.44395052816386        0.61366733776420       -2.24517860668597
o           -2.17395408288345       -3.88274923050348       -1.43592225699048
h           -2.50417391014589       -2.98941071620039       -1.22047700331681
h           -1.70082277262570       -4.17529976934298       -0.63699520480846
o           -1.30842754853526        1.18126743474912        2.38184153526978
h           -1.59034308171007        0.35985654676653        2.82453749606914
h           -1.94599216754334        1.32994370065383        1.65562936674627
o           -2.64004887264736       -1.32368089829575       -0.70293463793198
h           -1.73436949693199       -1.05652983803769       -0.46254534043842
h           -3.19683333692061       -1.23481621098594        0.11039523950957
o           -0.34062342331747       -3.23084477298182       -3.17063160699426
h           -1.08355445436781       -3.49793998157888       -2.55819190767276
h           -0.13115290744701       -4.00743171759412       -3.69042490973321
o            1.54708554149303       -2.62591368478305       -1.33740922419779
h            0.86554521170005       -2.73704273356421       -2.02846227041300
h            2.36073116290114       -2.31212949884681       -1.80688942603965
o            3.12116976379099       -2.77379397002089        0.90460011006904
h            2.47052030416936       -2.68059781563229        0.18857542541396
h            3.80052626707228       -2.10889364134676        0.68252038143717
o            3.77990355936263       -1.68441890673460       -2.38944163665334
h            3.43782348372387       -1.06778926216050       -3.06915396368671
h            4.11998337482648       -1.14495748001225       -1.66501915437726
o            2.63820095704812       -0.15252751543052       -4.31813934384171
h            2.99998435282581       -0.31621741214001       -5.18975592119646
h            1.68439439096468       -0.39326854047390       -4.38148874877936
o            0.38084584092246        4.76533486107375        3.75017567791166
h            0.30488533798365        4.99888391606610        2.78948365237099
h            0.67534058209787        5.55415471266942        4.20429978976224
o           -2.05677729704057        3.49361732103071        3.61203845926479
h           -1.22783573348893        3.94445146942353        3.84774539540716
h           -1.79531917699921        2.59633898320212        3.32530776281353
o           -3.24733885529464        1.79361618175172        0.57490323894026
h           -3.31706895852495        1.59658982834926       -0.37581926134789
h           -3.13350340435696        2.75553089753138        0.66474052438637
o            0.08471847098768       -0.88474432273897       -4.61369368040850
h           -0.64756072860653       -0.25431347616497       -4.50704156144621
h           -0.14692196726633       -1.66978256169996       -4.09362985942962
o            1.08621678329411        2.49683472359456        2.15866803058496
h            0.28446827158271        1.94819386305106        2.23825379670597
h            1.09188722671962        3.07185358279550        2.93445861210500
o            4.58947687255387       -0.57310386299640        0.23228522619504
h            5.50515482214555       -0.40506321777052        0.45651648012571
h            4.04863724175464       -0.02676352507711        0.85453266963196
o           -2.30248757593695       -1.09400443524135        3.48610187573478
h           -1.66788651861479       -1.83513728374513        3.27782983553207
h           -2.53582041627446       -1.19367780052537        4.40914827313285
o            0.07043954696528        4.97972047232653        1.12153691374026
h            0.51597462955176        4.13234449391426        0.98578381082982
h           -0.87983215266881        4.80984453927904        0.99114653262492
o           -0.76847431351130       -4.66850222586559        0.81967700610408
h           -1.10881344943691       -5.51444922505657        1.11377106016149
h            0.13030010985044       -4.84663728172164        0.43841165315131
o           -0.56628248885362       -2.96438318559973        2.98619308660383
h           -0.66402142498068       -3.50297952996911        2.18111725965733
h            0.28016381876884       -2.48558856525596        2.90482097883887
o            3.14109937336434        0.64961527423037        2.10998842869385
h            2.60827720448722       -0.09299448145858        2.44249449265140
h            2.51178793025772        1.38515997767553        2.01102599740516
o            1.86265428199625       -1.70106727904874        2.92034723041656
h            2.29927312468459       -1.98329459430403        3.72508046114392
h            2.33898587599611       -2.15437664127163        2.16784661064079
o            1.61046145526482       -5.07325357314666       -0.25654732984053
h            2.34218822483802       -4.95746357301299        0.35574406806933
h            1.60948757790181       -4.25498524330210       -0.80290281464346
o           -1.88820361522519        1.01695339831759       -4.16019905971432
h           -2.48244108351412        0.92772719444895       -3.39278572499730
h           -1.45744489285107        1.86821711672933       -4.06918726369498
o           -4.06785282830427       -0.72957219998034        1.42612384390891
h           -3.54832820678588       -0.91789817485509        2.22732679533772
h           -4.03385282488282        0.23135633120328        1.30695408459043
75
 energy: -127.144131252818 gnorm: 0.008553260424 xtb: 6.5.1 (579679a)
o           -2.64416093026797        4.39059694039879        1.23258663959669
h           -3.27637022405658        5.10770297440828        1.28419975247248
h           -2.48512779633491        4.08841736935110        2.17452182682252
o           -3.54174321109725        0.78109854756632       -1.97765541451567
h           -3.20431872828454       -0.07212739399802       -1.59911074669607
h           -4.44551418518261        0.61174898716392       -2.24783156037767
o           -2.18263184746184       -3.89997992701187       -1.43230813672044
h           -2.51532611354107       -3.01132870083206       -1.21629320380729
h           -1.70155266743383       -4.19282373161071       -0.63672461467798
o           -1.31076691435333        1.18650158706695        2.38935538771725
h           -1.58600708516700        0.36189904668388        2.82928394287571
h           -1.94693992004726        1.33374215056395        1.66319111897906
o           -2.61298832366985       -1.31362784537538       -0.67109660651515
h           -1.72447302778823       -1.07767035628402       -0.41354247794239
h           -3.19239220717249       -1.21233472212281        0.13390760821947
o           -0.35287802482355       -3.23415553582715       -3.17840096643158
h           -1.09255681365774       -3.50942161249737       -2.56878162082166
h           -0.13023322191294       -4.00841457373726       -3.69660630982967
o            1.54355009638400       -2.64082281811561       -1.34034641624107
h            0.86546462999830       -2.73662421455792       -2.03514318675821
h            2.36165494509397       -2.33064369039150       -1.80188167370229
o            3.11594418010031       -2.76656502404371        0.90568181617354
h            2.46236577297154       -2.68603102553515        0.19079850617930
h            3.79316347461424       -2.10550771121348        0.66772477516298
o            3.77085655212857       -1.67260138359887       -2.38027493987352
h            3.43346934670108       -1.05446719314413       -3.06132880830635
h            4.10569136387196       -1.13553023771159       -1.65149283907098
o            2.63908718489155       -0.13597632105228       -4.30253870784365
h            3.00393736149978       -0.30767229207816       -5.17159692029814
h            1.68762370898977       -0.38148086986513       -4.36828779392230
o            0.38048758076419        4.76444986085619        3.74927673065390
h            0.30036737064964        4.99908382246541        2.78967021954471
h            0.68028470735850        5.55197334317588        4.20229427755287
o           -2.05725114785506        3.49732158287651        3.61807347190844
h           -1.22962233411503        3.95275298066178        3.85018222264281
h           -1.79024846712255        2.60154437722822        3.33021617824913
o           -3.24550832779147        1.79475684323131        0.57194842604391
h           -3.30414401231291        1.61143644279462       -0.38190314347807
h           -3.13151743504581        2.75611727646711        0.67315595435864
o            0.09125314920899       -0.88813251600037       -4.62490347736663
h           -0.63557239022398       -0.25451488625439       -4.50558407427824
h           -0.14182833602825       -1.67672651230435       -4.11259427734942
o            1.08462173847981        2.50233368702136        2.11320400989432
h            0.29176258749155        1.94240430888098        2.19300306028392
h            1.09226101759157        3.05999662890454        2.90236056357264
o            4.57495200939295       -0.56110934092440        0.22167881375524
h            5.49048822967682       -0.39749538464271        0.44968597931051
h            4.03609261196558       -0.01685619135627        0.84578386909222
o           -2.31018422444199       -1.09869650288260        3.47954090091379
h           -1.66989044924018       -1.83686563207274        3.27552072569706
h           -2.53556139264203       -1.19045238641728        4.40558804051575
o            0.07319000267401        4.96570027355306        1.11832470337669
h            0.51537902355915        4.11011129781127        1.01171720087410
h           -0.87705712851138        4.79763036393143        0.98779279357587
o           -0.76793817037343       -4.66496367235873        0.81741611616150
h           -1.10477910695296       -5.51131669252073        1.11457300191934
h            0.12903433828448       -4.84354525654075        0.42889075854995
o           -0.56631546481230       -2.96213371692423        2.98595775353597
h           -0.65648335860357       -3.50533254794897        2.18305534752666
h            0.28476359194551       -2.48836554549648        2.91283329843074
o            3.13347424313023        0.64878540954615        2.10693856265579
h            2.60018292599950       -0.09003402534053        2.44561234506283
h            2.50686691850624        1.38631804274473        2.00634539481487
o            1.86256928239959       -1.70712942513391        2.92681239834439
h            2.31053536026188       -1.98655078836090        3.72643623657354
h            2.33439472354291       -2.15553517739151        2.16813480309246
o            1.60742865344954       -5.07416266420370       -0.24991920232768
h            2.33897724889422       -4.95588825447518        0.36205246635889
h            1.60760981702784       -4.25466716923755       -0.79714564435128
o           -1.87769717988845        1.01876169003109       -4.15626771305512
h           -2.47425893745931        0.94551636766447       -3.38953958815515
h           -1.44426081825156        1.87053835818116       -4.08240834337438
o           -4.06107965890642       -0.73095277702415        1.41686050780923
h           -3.54385845171338       -0.92436070620789        2.21893654081714
h           -4.02819919955356        0.23075447621950        1.30338540613775
75
 energy: -127.144542422354 gnorm: 0.005082141918 xtb: 6.5.1 (579679a)
o           -2.64896726316136        4.38691226889278        1.23863361114088
h           -3.27756820438238        5.10731158322078        1.28739626519176
h           -2.48649506495088        4.09140244763997        2.18240260113564
o           -3.53485787704813        0.78454938824005       -1.98059570622810
h           -3.18423870775150       -0.05997172644483       -1.60225671064120
h           -4.43788470684962        0.60368725363304       -2.24671200647464
o           -2.18969074339741       -3.90914364679591       -1.42998971131152
h           -2.52515318147093       -3.02334732463207       -1.21272112846259
h           -1.70421074327676       -4.20077327146432       -0.63610903229275
o           -1.30941063703376        1.18953397700411        2.39322503734530
h           -1.58335132550127        0.36453097775170        2.83245539554736
h           -1.94489120799149        1.33637895098204        1.66669207173793
o           -2.59553800741555       -1.30774547836716       -0.65432127914965
h           -1.70295743452007       -1.11134705631747       -0.36575749477636
h           -3.19485865513194       -1.19825485408019        0.14047749392230
o           -0.36166416982125       -3.23813776197188       -3.18526144228069
h           -1.10056629023325       -3.51203286345569       -2.57647635095293
h           -0.13517426474033       -4.01304629590475       -3.70053153785967
o            1.54286001091957       -2.65940401298507       -1.34611433991305
h            0.85804656770218       -2.73924145765761       -2.03605670613663
h            2.35489998203079       -2.33326901560032       -1.80788243628621
o            3.11054202151324       -2.76108250600738        0.90350216422821
h            2.45353359235391       -2.67748440908578        0.19207851103000
h            3.78615447738611       -2.09874509668310        0.66461096016425
o            3.76327291264503       -1.66423842723959       -2.37110812930363
h            3.42574796386435       -1.04276739166520       -3.04946896212066
h            4.09240255900223       -1.12971382852429       -1.63755091582097
o            2.63860555081793       -0.12058517218663       -4.28862002071380
h            3.00939741147155       -0.29603814072381       -5.15452676287081
h            1.68867973513719       -0.36962994591109       -4.36021233479856
o            0.38126569998372        4.76158610569973        3.74637381848921
h            0.30219101033820        4.99721034211271        2.78704246124386
h            0.68459151389187        5.54768819185226        4.19953980889783
o           -2.05724471868514        3.49957622282369        3.62428712830081
h           -1.22946441960643        3.95582352358903        3.85458072578150
h           -1.78909906349179        2.60424385474403        3.33512228170402
o           -3.24222298473088        1.79691512544126        0.57440146909838
h           -3.29818845960897        1.61812434395614       -0.37980864606880
h           -3.13057229644243        2.75832072221441        0.67866695536808
o            0.09804389355103       -0.89145557705490       -4.63265351320767
h           -0.62555319748640       -0.25535203907396       -4.50979156573133
h           -0.13834455880912       -1.68053747487530       -4.12294711676333
o            1.08165441009292        2.50183971993163        2.07949768262118
h            0.29034383431553        1.94118813610023        2.16227918062563
h            1.09580067974888        3.05204509289330        2.87337536199684
o            4.56170206410271       -0.55171069883482        0.21287405681125
h            5.47691175518374       -0.38732906623695        0.44134365159313
h            4.02272987866212       -0.01024580114767        0.83910660082822
o           -2.31127673612244       -1.10002382142362        3.47431353109716
h           -1.67177486356440       -1.83917491143239        3.27047850443616
h           -2.53587561305195       -1.19031893216923        4.40050019342253
o            0.07268948069911        4.95342321584405        1.11600006817339
h            0.51336200720763        4.09422465824664        1.02379285046254
h           -0.87692656455914        4.78624214098980        0.98354420042687
o           -0.76659403151620       -4.66350832194083        0.81668249939215
h           -1.10197267779879       -5.50957687061188        1.11619319403525
h            0.13185009687535       -4.84223823152405        0.42951451998697
o           -0.56564713501493       -2.96235907074500        2.98708919868225
h           -0.65402958036006       -3.50447893839622        2.18332647231596
h            0.28728955674052       -2.49073565094104        2.91819176108779
o            3.12716108314178        0.65016196454118        2.10780219550729
h            2.59315471480172       -0.08876707957003        2.44495085273145
h            2.49800714873959        1.38336267542179        1.98900180700145
o            1.86443882361275       -1.71124583436942        2.93265596537758
h            2.31905676654297       -1.98919932475799        3.72898930950514
h            2.33485750601203       -2.15601812212115        2.17062811952848
o            1.60675592283776       -5.07991088117101       -0.24571285428046
h            2.33685600247623       -4.95617008983981        0.36697583729434
h            1.60556662830705       -4.26156931561977       -0.79663288401182
o           -1.86514159338423        1.02216137706828       -4.15610428387328
h           -2.46270837803028        0.95706284186988       -3.38960397478954
h           -1.43036551852375        1.87393490794507       -4.09182667146236
o           -4.06508652732030       -0.72822543887284        1.41685922176954
h           -3.53950463153732       -0.92746601519872        2.21207691074390
h           -4.02480271298547        0.23257526580927        1.30082405652147
75
 energy: -127.144872538671 gnorm: 0.007355171970 xtb: 6.5.1 (579679a)
o           -2.65575281688090        4.38444091682391        1.24835634704597
h           -3.28239019739149        5.10640488776029        1.29496392508817
h           -2.49201490184687        4.09170901166912        2.19298486272902
o           -3.51566542766626        0.78561193505016       -1.98059669291685
h           -3.15271855196520       -0.04887614815441       -1.59840492658548
h           -4.41726633660142        0.59158599263837       -2.24336351577163
o           -2.20006752740815       -3.91924439883195       -1.42622201275274
h           -2.53746988366287       -3.03575155314725       -1.20749606054797
h           -1.70927553243445       -4.20861975441761       -0.63460674996388
o           -1.30548181025104        1.19244725225039        2.39642545892946
h           -1.58115364729925        0.36846464947309        2.83578315716633
h           -1.94172427013463        1.34136808506291        1.67068160906499
o           -2.57216712569148       -1.30518738750384       -0.63224945308563
h           -1.67249138966900       -1.15793569447307       -0.31711214591604
h           -3.17953468667900       -1.18574021927963        0.15669091056834
o           -0.37610294934328       -3.24389143563201       -3.19544636558118
h           -1.11293005885547       -3.51543627294090       -2.58625046329611
h           -0.14637481271900       -4.02023818493750       -3.70672366976496
o            1.53626719318644       -2.67705891577088       -1.35437073762957
h            0.85193681143915       -2.74966444175864       -2.04441565008756
h            2.35059117405958       -2.34879084039377       -1.81124275227993
o            3.10028292161072       -2.75185140877781        0.90027039353534
h            2.44173945335098       -2.67815713521365        0.18934887436368
h            3.77270647046745       -2.08850087375689        0.65486443691430
o            3.74829608929010       -1.65045486662815       -2.35772832931881
h            3.41044919106132       -1.02165007320184       -3.02965088888902
h            4.07352783699393       -1.12214477706799       -1.61747383182430
o            2.63538223488522       -0.09278659997780       -4.26693840810762
h            3.01976639384689       -0.27297700733988       -5.12619722382132
h            1.68929077882964       -0.35369736359942       -4.34999409839397
o            0.38847780668558        4.75376180836026        3.73857192316097
h            0.30248085281975        4.99317275989320        2.78076750744015
h            0.69202620624563        5.53900019958952        4.19290755218495
o           -2.05512198958613        3.50306012122191        3.63386942432111
h           -1.22539470360356        3.95822585996262        3.85982278032382
h           -1.78909058972552        2.60723880593535        3.34391502437455
o           -3.23768173310130        1.79998750292054        0.58139382031054
h           -3.28812388049010        1.62506559540547       -0.37307155573579
h           -3.13018649416882        2.76187399081409        0.68900006349334
o            0.10907565706025       -0.89606209185137       -4.64216836445054
h           -0.61081555839200       -0.25638285816667       -4.51892165418692
h           -0.13463191299532       -1.68537533798077       -4.13626727752025
o            1.07376270675691        2.49701465139344        2.03343417021719
h            0.28136944919950        1.93965988833495        2.12576064031529
h            1.10556028146404        3.03729178509581        2.83321773148316
o            4.54065738600486       -0.53748336446215        0.20055065802602
h            5.45656224456752       -0.37064032202729        0.42369273935385
h            4.00419619133791        0.00082141039685        0.83198797734944
o           -2.31071025864481       -1.10126776955034        3.46523192597312
h           -1.67373239788639       -1.84322395129986        3.26308407549425
h           -2.53823282887194       -1.19020605841430        4.39056540400242
o            0.07043345370905        4.93837715626624        1.11013216075824
h            0.50773560097671        4.07599760158727        1.02742139531269
h           -0.87870834468784        4.77389579093172        0.97662419700476
o           -0.76418094377416       -4.66123644746560        0.81748194413479
h           -1.09973496859293       -5.50622491676488        1.11951608967983
h            0.13515897517569       -4.84236563670716        0.43108972513974
o           -0.56424456092782       -2.96403021071862        2.98921290953375
h           -0.65094558414336       -3.50374550626680        2.18364093130701
h            0.29078507893715       -2.49535061673106        2.92638718455989
o            3.11478513834608        0.65133441152332        2.10469792576145
h            2.58440125875215       -0.08577842195565        2.45078611502581
h            2.48215445214696        1.37840472777592        1.96309730213819
o            1.86679779938543       -1.71401449159315        2.94129796806665
h            2.32889347635261       -1.99198346275182        3.73316239999684
h            2.33425679634048       -2.15519347991369        2.17500530410202
o            1.60590697420841       -5.08607843253051       -0.23982088873920
h            2.33399209874397       -4.95833952464899        0.37445117612671
h            1.60621979531062       -4.26919449773610       -0.79535874100621
o           -1.84311932667165        1.02857100694101       -4.15770785972422
h           -2.44049351774632        0.96985547865508       -3.39095448524691
h           -1.40766126611223        1.88026186128053       -4.10281468656871
o           -4.07288171972914       -0.72070029486848        1.41747214688726
h           -3.54207019862682       -0.92259185499859        2.20940232299570
h           -4.02703300917021        0.23961984202212        1.29754894367512
75
 energy: -127.145160318693 gnorm: 0.006073083046 xtb: 6.5.1 (579679a)
o           -2.66454045086476        4.38381510432123        1.25920567964114
h           -3.29062378313645        5.10605093631925        1.30520108323783
h           -2.49529015355888        4.09549696772302        2.20434156476474
o           -3.48761477199561        0.77989280098013       -1.97595973306153