      -----------------------------------------------------------      
     |                   =====================                   |     
     |                           x T B                           |     
     |                   =====================                   |     
     |                         S. Grimme                         |     
     |          Mulliken Center for Theoretical Chemistry        |     
     |                    University of Bonn                     |     
      -----------------------------------------------------------      

   * xtb version 6.5.1 (579679a) compiled by 'ehlert@majestix' on 2022-07-11

   xtb is free software: you can redistribute it and/or modify it under
   the terms of the GNU Lesser General Public License as published by
   the Free Software Foundation, either version 3 of the License, or
   (at your option) any later version.
   
   xtb is distributed in the hope that it will be useful,
   but WITHOUT ANY WARRANTY; without even the implied warranty of
   MERCHANTABILITY or FITNESS FOR A PARTICULAR PURPOSE.  See the
   GNU Lesser General Public License for more details.
   
   Cite this work as:
   * C. Bannwarth, E. Caldeweyher, S. Ehlert, A. Hansen, P. Pracht,
     J. Seibert, S. Spicher, S. Grimme, WIREs Comput. Mol. Sci., 2020, 11,
     e01493. DOI: 10.1002/wcms.1493
   
   for GFN2-xTB:
   * C. Bannwarth, S. Ehlert and S. Grimme., J. Chem. Theory Comput., 2019,
     15, 1652-1671. DOI: 10.1021/acs.jctc.8b01176
   for GFN1-xTB:
   * S. Grimme, C. Bannwarth, P. Shushkov, J. Chem. Theory Comput., 2017,
     13, 1989-2009. DOI: 10.1021/acs.jctc.7b00118
   for GFN0-xTB:
   * P. Pracht, E. Caldeweyher, S. Ehlert, S. Grimme, ChemRxiv, 2019, preprint.
     DOI: 10.26434/chemrxiv.8326202.v1
   for GFN-FF:
   * S. Spicher and S. Grimme, Angew. Chem. Int. Ed., 2020, 59, 15665-15673.
     DOI: 10.1002/anie.202004239
   
   for ALPB and GBSA implicit solvation:
   * S. Ehlert, M. Stahn, S. Spicher, S. Grimme, J. Chem. Theory Comput.,
     2021, 17, 4250-4261. DOI: 10.1021/acs.jctc.1c00471
   
   for DFT-D4:
   * E. Caldeweyher, C. Bannwarth and S. Grimme, J. Chem. Phys., 2017,
     147, 034112. DOI: 10.1063/1.4993215
   * E. Caldeweyher, S. Ehlert, A. Hansen, H. Neugebauer, S. Spicher,
     C. Bannwarth and S. Grimme, J. Chem. Phys., 2019, 150, 154122.
     DOI: 10.1063/1.5090222
   * E. Caldeweyher, J.-M. Mewes, S. Ehlert and S. Grimme, Phys. Chem. Chem. Phys.
     2020, 22, 8499-8512. DOI: 10.1039/D0CP00502A
   
   for sTDA-xTB:
   * S. Grimme and C. Bannwarth, J. Chem. Phys., 2016, 145, 054103.
     DOI: 10.1063/1.4959605
   
   in the mass-spec context:
   * V. Asgeirsson, C. Bauer and S. Grimme, Chem. Sci., 2017, 8, 4879.
     DOI: 10.1039/c7sc00601b
   * J. Koopman and S. Grimme, ACS Omega 2019, 4, 12, 15120-15133.
     DOI: 10.1021/acsomega.9b02011
   
   for metadynamics refer to:
   * S. Grimme, J. Chem. Theory Comput., 2019, 155, 2847-2862
     DOI: 10.1021/acs.jctc.9b00143
   
   for SPH calculations refer to:
   * S. Spicher and S. Grimme, J. Chem. Theory Comput., 2021, 17, 1701-1714
     DOI: 10.1021/acs.jctc.0c01306
   
   with help from (in alphabetical order)
   P. Atkinson, C. Bannwarth, F. Bohle, G. Brandenburg, E. Caldeweyher
   M. Checinski, S. Dohm, S. Ehlert, S. Ehrlich, I. Gerasimov, C. Hölzer
   A. Katbashev, J. Koopman, C. Lavigne, S. Lehtola, F. März, M. Müller,
   F. Musil, H. Neugebauer, J. Pisarek, C. Plett, P. Pracht, F. Pultar,
   J. Seibert, P. Shushkov, S. Spicher, M. Stahn, M. Steiner, T. Strunk,
   J. Stückrath, T. Rose, and J. Unsleber
   
 * started run on 2022/11/24 at 09:07:52.368     

           -------------------------------------------------
          |                Calculation Setup                |
           -------------------------------------------------

          program call               : xtb solvent_cluster.coord --gfn2 --input xcontrol --opt 1
          hostname                   : cn0341
          coordinate file            : solvent_cluster.coord
          omp threads                :                     2

   ID    Z sym.   atoms
    1    8 o      1, 4, 7, 10, 13, 16, 19, 22, 25, 28, 31, 34, 37, 40, 43,
                  46, 49, 52, 55, 58, 61, 64, 67, 70, 73, 76, 79, 82, 85, 88,
                  91, 94, 97, 100, 103, 106, 109, 112, 115, 118, 121, 124,
                  127, 130, 133, 136, 139, 142, 145, 148, 151, 154, 157, 160,
                  163, 166, 169, 172, 175, 178, 181, 184, 187, 190, 193, 196,
                  199, 202, 205, 208, 211, 214, 217, 220, 223, 226, 229, 232,
                  235, 238, 241, 244, 247, 250, 253, 256, 259, 262, 265, 268,
                  271, 274, 277, 280, 283, 286, 289, 292, 295, 298, 301, 304,
                  307, 310, 313, 316, 319, 322, 325, 328, 331, 334, 337, 340,
                  343, 346, 349, 352, 355, 358, 361, 364, 367, 370, 373, 376,
                  379, 382, 385, 388, 391, 394, 397, 400, 403, 406, 409, 412,
                  415, 418, 421, 424, 427, 430, 433, 436, 439, 442, 445, 448,
                  451, 454, 457, 460, 463, 466, 469, 472, 475, 478, 481, 484,
                  487, 490, 493, 496, 499, 502, 505, 508, 511, 514, 517, 520,
                  523, 526, 529, 532, 535, 538, 541, 544, 547, 550, 553, 556,
                  559, 562, 565, 568, 571, 574, 577, 580, 583, 586, 589, 592,
                  595, 598, 601, 604, 607, 610, 613, 616, 619, 622, 625, 628,
                  631, 634, 637, 640, 643, 646, 649, 652, 655, 658, 661, 664,
                  667, 670, 673, 676, 679, 682, 685, 688, 691, 694, 697, 700,
                  703, 706, 709, 712, 715, 718, 721, 724, 727, 730, 733, 736,
                  739, 742, 745, 748, 751, 754
    2    1 h      2, 3, 5, 6, 8, 9, 11, 12, 14, 15, 17, 18, 20, 21, 23, 24,
                  26, 27, 29, 30, 32, 33, 35, 36, 38, 39, 41, 42, 44, 45, 47,
                  48, 50, 51, 53, 54, 56, 57, 59, 60, 62, 63, 65, 66, 68, 69,
                  71, 72, 74, 75, 77, 78, 80, 81, 83, 84, 86, 87, 89, 90, 92,
                  93, 95, 96, 98, 99, 101, 102, 104, 105, 107, 108, 110, 111,
                  113, 114, 116, 117, 119, 120, 122, 123, 125, 126, 128, 129,
                  131, 132, 134, 135, 137, 138, 140, 141, 143, 144, 146, 147,
                  149, 150, 152, 153, 155, 156, 158, 159, 161, 162, 164, 165,
                  167, 168, 170, 171, 173, 174, 176, 177, 179, 180, 182, 183,
                  185, 186, 188, 189, 191, 192, 194, 195, 197, 198, 200, 201,
                  203, 204, 206, 207, 209, 210, 212, 213, 215, 216, 218, 219,
                  221, 222, 224, 225, 227, 228, 230, 231, 233, 234, 236, 237,
                  239, 240, 242, 243, 245, 246, 248, 249, 251, 252, 254, 255,
                  257, 258, 260, 261, 263, 264, 266, 267, 269, 270, 272, 273,
                  275, 276, 278, 279, 281, 282, 284, 285, 287, 288, 290, 291,
                  293, 294, 296, 297, 299, 300, 302, 303, 305, 306, 308, 309,
                  311, 312, 314, 315, 317, 318, 320, 321, 323, 324, 326, 327,
                  329, 330, 332, 333, 335, 336, 338, 339, 341, 342, 344, 345,
                  347, 348, 350, 351, 353, 354, 356, 357, 359, 360, 362, 363,
                  365, 366, 368, 369, 371, 372, 374, 375, 377, 378, 380, 381,
                  383, 384, 386, 387, 389, 390, 392, 393, 395, 396, 398, 399,
                  401, 402, 404, 405, 407, 408, 410, 411, 413, 414, 416, 417,
                  419, 420, 422, 423, 425, 426, 428, 429, 431, 432, 434, 435,
                  437, 438, 440, 441, 443, 444, 446, 447, 449, 450, 452, 453,
                  455, 456, 458, 459, 461, 462, 464, 465, 467, 468, 470, 471,
                  473, 474, 476, 477, 479, 480, 482, 483, 485, 486, 488, 489,
                  491, 492, 494, 495, 497, 498, 500, 501, 503, 504, 506, 507,
                  509, 510, 512, 513, 515, 516, 518, 519, 521, 522, 524, 525,
                  527, 528, 530, 531, 533, 534, 536, 537, 539, 540, 542, 543,
                  545, 546, 548, 549, 551, 552, 554, 555, 557, 558, 560, 561,
                  563, 564, 566, 567, 569, 570, 572, 573, 575, 576, 578, 579,
                  581, 582, 584, 585, 587, 588, 590, 591, 593, 594, 596, 597,
                  599, 600, 602, 603, 605, 606, 608, 609, 611, 612, 614, 615,
                  617, 618, 620, 621, 623, 624, 626, 627, 629, 630, 632, 633,
                  635, 636, 638, 639, 641, 642, 644, 645, 647, 648, 650, 651,
                  653, 654, 656, 657, 659, 660, 662, 663, 665, 666, 668, 669,
                  671, 672, 674, 675, 677, 678, 680, 681, 683, 684, 686, 687,
                  689, 690, 692, 693, 695, 696, 698, 699, 701, 702, 704, 705,
                  707, 708, 710, 711, 713, 714, 716, 717, 719, 720, 722, 723,
                  725, 726, 728, 729, 731, 732, 734, 735, 737, 738, 740, 741,
                  743, 744, 746, 747, 749, 750, 752, 753, 755, 756

molecular fragmentation (1/2 indicates fragments):
111222222222222222222222222222222222222222222222222222222222222222222222
222222222222222222222222222222222222222222222222222222222222222222222222
222222222222222222222222222222222222222222222222222222222222222222222222
222222222222222222222222222222222222222222222222222222222222222222222222
222222222222222222222222222222222222222222222222222222222222222222222222
222222222222222222222222222222222222222222222222222222222222222222222222
222222222222222222222222222222222222222222222222222222222222222222222222
222222222222222222222222222222222222222222222222222222222222222222222222
222222222222222222222222222222222222222222222222222222222222222222222222
222222222222222222222222222222222222222222222222222222222222222222222222
222222222222222222222222222222222222
# atoms in fragment 1/2:     3   753
 fragment masses (1/2) :       18.02     4521.84
CMA distance (Bohr)    :  15.331
constraining FC (au)   :  0.0500

           -------------------------------------------------
          |                 G F N 2 - x T B                 |
           -------------------------------------------------

        Reference                      10.1021/acs.jctc.8b01176
      * Hamiltonian:
        H0-scaling (s, p, d)           1.850000    2.230000    2.230000
        zeta-weighting                 0.500000
      * Dispersion:
        s8                             2.700000
        a1                             0.520000
        a2                             5.000000
        s9                             5.000000
      * Repulsion:
        kExp                           1.500000    1.000000
        rExp                           1.000000
      * Coulomb:
        alpha                          2.000000
        third order                    shell-resolved
        anisotropic                    true
        a3                             3.000000
        a5                             4.000000
        cn-shift                       1.200000
        cn-exp                         4.000000
        max-rad                        5.000000


          ...................................................
          :                      SETUP                      :
          :.................................................:
          :  # basis functions                1512          :
          :  # atomic orbitals                1512          :
          :  # shells                         1008          :
          :  # electrons                      2016          :
          :  max. iterations                   250          :
          :  Hamiltonian                  GFN2-xTB          :
          :  restarted?                      false          :
          :  GBSA solvation                  false          :
          :  PC potential                    false          :
          :  electronic temp.          300.0000000     K    :
          :  accuracy                    1.0000000          :
          :  -> integral cutoff          0.2500000E+02      :
          :  -> integral neglect         0.1000000E-07      :
          :  -> SCF convergence          0.1000000E-05 Eh   :
          :  -> wf. convergence          0.1000000E-03 e    :
          :  Broyden damping             0.4000000          :
          ...................................................

 iter      E             dE          RMSdq      gap      omega  full diag
   1  -1291.0047422 -0.129100E+04  0.406E+00    8.55       0.0  T
   2  -1291.0743900 -0.696478E-01  0.241E+00    8.37       1.0  T
   3  -1291.1048981 -0.305081E-01  0.207E-01    7.70       1.0  T
   4  -1291.1098266 -0.492845E-02  0.449E-02    7.88       1.0  T
   5  -1291.1099009 -0.743214E-04  0.306E-02    7.86       1.0  T
   6  -1291.1099391 -0.381958E-04  0.408E-03    7.88       1.0  T
   7  -1291.1099412 -0.214542E-05  0.789E-04    7.88       4.6  T
   8  -1291.1099413 -0.359696E-07  0.412E-04    7.88       8.8  T
   9  -1291.1099413 -0.165603E-07  0.625E-05    7.88      58.1  T

   *** convergence criteria satisfied after 9 iterations ***

         #    Occupation            Energy/Eh            Energy/eV
      -------------------------------------------------------------
         1        2.0000           -0.6967982             -18.9608
       ...           ...                  ...                  ...
      1002        2.0000           -0.4098958             -11.1538
      1003        2.0000           -0.4092676             -11.1367
      1004        2.0000           -0.4090052             -11.1296
      1005        2.0000           -0.4077557             -11.0956
      1006        2.0000           -0.4067150             -11.0673
      1007        2.0000           -0.4027446             -10.9592
      1008        2.0000           -0.4000653             -10.8863 (HOMO)
      1009                         -0.1106491              -3.0109 (LUMO)
      1010                         -0.0932349              -2.5371
      1011                         -0.0860500              -2.3415
      1012                         -0.0819737              -2.2306
      1013                         -0.0766502              -2.0858
       ...                                ...                  ...
      1512                          0.4305776              11.7166
      -------------------------------------------------------------
                  HL-Gap            0.2894162 Eh            7.8754 eV
             Fermi-level           -0.2553572 Eh           -6.9486 eV

 SCC (total)                   0 d,  0 h,  0 min, 21.478 sec
 SCC setup                      ...        0 min,  0.041 sec (  0.192%)
 Dispersion                     ...        0 min,  0.110 sec (  0.513%)
 classical contributions        ...        0 min,  0.023 sec (  0.108%)
 integral evaluation            ...        0 min,  0.595 sec (  2.770%)
 iterations                     ...        0 min,  8.131 sec ( 37.859%)
 molecular gradient             ...        0 min, 12.513 sec ( 58.262%)
 printout                       ...        0 min,  0.064 sec (  0.296%)

         :::::::::::::::::::::::::::::::::::::::::::::::::::::
         ::                     SUMMARY                     ::
         :::::::::::::::::::::::::::::::::::::::::::::::::::::
         :: total energy           -1283.340266091856 Eh    ::
         :: gradient norm              0.032417014089 Eh/a0 ::
         :: HOMO-LUMO gap              7.875415163217 eV    ::
         ::.................................................::
         :: SCC energy             -1291.109941279810 Eh    ::
         :: -> isotropic ES            7.165461298376 Eh    ::
         :: -> anisotropic ES         -1.617109864562 Eh    ::
         :: -> anisotropic XC         -0.126868518138 Eh    ::
         :: -> dispersion             -0.792545560258 Eh    ::
         :: repulsion energy           7.614431838179 Eh    ::
         :: add. restraining           0.000000000000 Eh    ::
         :: total charge              -0.000000000000 e     ::
         :::::::::::::::::::::::::::::::::::::::::::::::::::::

      ----------------------------------------------------------- 
     |                       L-ANC optimizer                     |
      ----------------------------------------------------------- 
          low memory version by Sebastian Ehlert

          ...................................................
          :                      SETUP                      :
          :.................................................:
          :   energy convergence        0.1000000E-05 Eh    :
          :   grad. convergence         0.8000000E-03 Eh/a0 :
          :   optimization log               true           :
          :   writing optlog all                1     steps :
          :   Hessian reset                    20     steps :
          :   maximium step len.        1.0000000     a0    :
          :   LBFGS images                     20           :
          ...................................................
 * calculating model hessian...
Using Lindh-Hessian (1995)
 Shifting diagonal of input Hessian by   1.000000000000023E-002
 Lowest  eigenvalues of input Hessian
   -0.000000   -0.000000   -0.000000   -0.000000   -0.000000   -0.000000
   -0.000000   -0.000000   -0.000000   -0.000000   -0.000000   -0.000000
   -0.000000   -0.000000   -0.000000   -0.000000   -0.000000   -0.000000
 Highest eigenvalues
    0.305001    0.320447    1.199839    1.231161    1.415894    1.451324
 

........................................................................
.............................. CYCLE    1 ..............................
........................................................................
   1  -1291.1091661 -0.129111E+04  0.246E-02    7.90       0.0  T
   2  -1291.1091750 -0.897419E-05  0.151E-02    7.90       1.0  T
   3  -1291.1091784 -0.331845E-05  0.152E-03    7.91       2.4  T
   4  -1291.1091786 -0.239806E-06  0.404E-04    7.91       9.0  T
   5  -1291.1091786 -0.354771E-08  0.492E-05    7.91      74.0  T
     SCC iter.                  ...        0 min,  3.616 sec
     gradient                   ...        0 min, 12.510 sec
 * total energy  : -1283.3420806 Eh     change       -0.1814521E-02 Eh
   gradient norm :     0.0142007 Eh/a0  converged?    E=F G=F D=F
   step length   :     0.3109301 a0

........................................................................
.............................. CYCLE    2 ..............................
........................................................................
   1  -1291.1059259 -0.129111E+04  0.237E-02    7.91       0.0  T
   2  -1291.1059353 -0.947062E-05  0.142E-02    7.91       1.0  T
   3  -1291.1059374 -0.202388E-05  0.165E-03    7.92       2.2  T
   4  -1291.1059377 -0.324029E-06  0.381E-04    7.92       9.5  T
   5  -1291.1059377 -0.273189E-08  0.533E-05    7.92      68.2  T
     SCC iter.                  ...        0 min,  3.445 sec
     gradient                   ...        0 min, 12.564 sec
 * total energy  : -1283.3425800 Eh     change       -0.4994335E-03 Eh
   gradient norm :     0.0406659 Eh/a0  converged?    E=F G=F D=F
   step length   :     0.4348909 a0

........................................................................
.............................. CYCLE    3 ..............................
........................................................................
   1  -1291.1127363 -0.129111E+04  0.130E-02    7.91       0.0  T
   2  -1291.1127398 -0.342146E-05  0.789E-03    7.91       1.0  T
   3  -1291.1127411 -0.135077E-05  0.104E-03    7.91       3.5  T
   4  -1291.1127412 -0.870293E-07  0.333E-04    7.91      10.9  T
   5  -1291.1127412 -0.260707E-08  0.310E-05    7.91     117.1  T
     SCC iter.                  ...        0 min,  3.314 sec
     gradient                   ...        0 min, 12.505 sec
 * total energy  : -1283.3435751 Eh     change       -0.9950581E-03 Eh
   gradient norm :     0.0090641 Eh/a0  converged?    E=F G=F D=F
   step length   :     0.1697049 a0

........................................................................
.............................. CYCLE    4 ..............................
........................................................................
   1  -1291.1128549 -0.129111E+04  0.891E-03    7.91       0.0  T
   2  -1291.1128567 -0.178574E-05  0.534E-03    7.91       1.0  T
   3  -1291.1128570 -0.291196E-06  0.707E-04    7.91       5.1  T
   4  -1291.1128571 -0.656753E-07  0.132E-04    7.91      27.5  T
     SCC iter.                  ...        0 min,  2.622 sec
     gradient                   ...        0 min, 12.625 sec
 * total energy  : -1283.3439092 Eh     change       -0.3341056E-03 Eh
   gradient norm :     0.0070853 Eh/a0  converged?    E=F G=F D=F
   step length   :     0.2008814 a0

........................................................................
.............................. CYCLE    5 ..............................
........................................................................
   1  -1291.1106678 -0.129111E+04  0.186E-02    7.91       0.0  T
   2  -1291.1106702 -0.242775E-05  0.112E-02    7.91       1.0  T
   3  -1291.1106707 -0.467044E-06  0.774E-04    7.91       4.7  T
   4  -1291.1106708 -0.972789E-07  0.173E-04    7.91      21.0  T
     SCC iter.                  ...        0 min,  2.507 sec
     gradient                   ...        0 min, 12.602 sec
 * total energy  : -1283.3442350 Eh     change       -0.3258111E-03 Eh
   gradient norm :     0.0188565 Eh/a0  converged?    E=F G=F D=F
   step length   :     0.3602052 a0

........................................................................
.............................. CYCLE    6 ..............................
........................................................................
   1  -1291.1138835 -0.129111E+04  0.613E-03    7.91       0.0  T
   2  -1291.1138842 -0.685587E-06  0.365E-03    7.91       1.0  T
   3  -1291.1138843 -0.190324E-06  0.452E-04    7.91       8.0  T
   4  -1291.1138844 -0.215871E-07  0.129E-04    7.91      28.2  T
     SCC iter.                  ...        0 min,  2.512 sec
     gradient                   ...        0 min, 12.651 sec
 * total energy  : -1283.3445732 Eh     change       -0.3382079E-03 Eh
   gradient norm :     0.0085705 Eh/a0  converged?    E=F G=F D=F
   step length   :     0.0875370 a0

........................................................................
.............................. CYCLE    7 ..............................
........................................................................
   1  -1291.1140104 -0.129111E+04  0.134E-02    7.91       0.0  T
   2  -1291.1140125 -0.216575E-05  0.805E-03    7.91       1.0  T
   3  -1291.1140129 -0.410259E-06  0.747E-04    7.91       4.9  T
   4  -1291.1140130 -0.839393E-07  0.167E-04    7.91      21.7  T
     SCC iter.                  ...        0 min,  2.553 sec
     gradient                   ...        0 min, 12.698 sec
 * total energy  : -1283.3449801 Eh     change       -0.4068682E-03 Eh
   gradient norm :     0.0103027 Eh/a0  converged?    E=F G=F D=F
   step length   :     0.2718259 a0

........................................................................
.............................. CYCLE    8 ..............................
........................................................................
   1  -1291.1122228 -0.129111E+04  0.165E-02    7.91       0.0  T
   2  -1291.1122254 -0.260741E-05  0.992E-03    7.90       1.0  T
   3  -1291.1122261 -0.671119E-06  0.831E-04    7.90       4.4  T
   4  -1291.1122262 -0.908028E-07  0.223E-04    7.90      16.3  T
     SCC iter.                  ...        0 min,  2.514 sec
     gradient                   ...        0 min, 12.706 sec
 * total energy  : -1283.3450545 Eh     change       -0.7439973E-04 Eh
   gradient norm :     0.0196121 Eh/a0  converged?    E=F G=F D=F
   step length   :     0.2974895 a0

........................................................................
.............................. CYCLE    9 ..............................
........................................................................
   1  -1291.1167353 -0.129112E+04  0.955E-03    7.90       0.0  T
   2  -1291.1167366 -0.133580E-05  0.570E-03    7.90       1.0  T
   3  -1291.1167370 -0.425620E-06  0.608E-04    7.90       6.0  T
   4  -1291.1167371 -0.394682E-07  0.189E-04    7.90      19.2  T
     SCC iter.                  ...        0 min,  2.506 sec
     gradient                   ...        0 min, 12.623 sec
 * total energy  : -1283.3453740 Eh     change       -0.3194804E-03 Eh
   gradient norm :     0.0074596 Eh/a0  converged?    E=F G=F D=F
   step length   :     0.1927708 a0

........................................................................
.............................. CYCLE   10 ..............................
........................................................................
   1  -1291.1152403 -0.129112E+04  0.107E-02    7.90       0.0  T
   2  -1291.1152415 -0.117167E-05  0.648E-03    7.90       1.0  T
   3  -1291.1152420 -0.496798E-06  0.588E-04    7.91       6.2  T
   4  -1291.1152420 -0.328216E-07  0.200E-04    7.91      18.2  T
     SCC iter.                  ...        0 min,  2.564 sec
     gradient                   ...        0 min, 12.614 sec
 * total energy  : -1283.3455880 Eh     change       -0.2140452E-03 Eh
   gradient norm :     0.0170280 Eh/a0  converged?    E=F G=F D=F
   step length   :     0.1494867 a0

........................................................................
.............................. CYCLE   11 ..............................
........................................................................
   1  -1291.1140086 -0.129111E+04  0.933E-03    7.91       0.0  T
   2  -1291.1140090 -0.426978E-06  0.561E-03    7.91       1.0  T
   3  -1291.1140091 -0.963400E-07  0.329E-04    7.91      11.1  T
   4  -1291.1140091 -0.168509E-07  0.856E-05    7.91      42.5  T
     SCC iter.                  ...        0 min,  2.520 sec
     gradient                   ...        0 min, 12.675 sec
 * total energy  : -1283.3458499 Eh     change       -0.2619121E-03 Eh
   gradient norm :     0.0158858 Eh/a0  converged?    E=F G=F D=F
   step length   :     0.1651711 a0

........................................................................
.............................. CYCLE   12 ..............................
........................................................................
   1  -1291.1128185 -0.129111E+04  0.157E-02    7.91       0.0  T
   2  -1291.1128201 -0.160613E-05  0.944E-03    7.91       1.0  T
   3  -1291.1128205 -0.346397E-06  0.643E-04    7.91       5.7  T
   4  -1291.1128206 -0.665409E-07  0.164E-04    7.91      22.1  T
     SCC iter.                  ...        0 min,  2.530 sec
     gradient                   ...        0 min, 12.677 sec
 * total energy  : -1283.3462543 Eh     change       -0.4043634E-03 Eh
   gradient norm :     0.0186260 Eh/a0  converged?    E=F G=F D=F
   step length   :     0.3052365 a0

........................................................................
.............................. CYCLE   13 ..............................
........................................................................
   1  -1291.1141008 -0.129111E+04  0.119E-02    7.91       0.0  T
   2  -1291.1141022 -0.138031E-05  0.714E-03    7.91       1.0  T
   3  -1291.1141024 -0.292996E-06  0.620E-04    7.91       5.9  T
   4  -1291.1141025 -0.539885E-07  0.151E-04    7.91      24.0  T
     SCC iter.                  ...        0 min,  2.453 sec
     gradient                   ...        0 min, 12.653 sec
 * total energy  : -1283.3466986 Eh     change       -0.4442823E-03 Eh
   gradient norm :     0.0122893 Eh/a0  converged?    E=F G=F D=F
   step length   :     0.2307610 a0

........................................................................
.............................. CYCLE   14 ..............................
........................................................................
   1  -1291.1025205 -0.129110E+04  0.382E-02    7.90       0.0  T
   2  -1291.1025410 -0.204957E-04  0.233E-02    7.90       1.0  T
   3  -1291.1025487 -0.770105E-05  0.237E-03    7.90       1.5  T
   4  -1291.1025494 -0.664386E-06  0.843E-04    7.90       4.3  T
   5  -1291.1025494 -0.300602E-07  0.949E-05    7.90      38.3  T
     SCC iter.                  ...        0 min,  3.057 sec
     gradient                   ...        0 min, 12.625 sec
 * total energy  : -1283.3452756 Eh     change        0.1422985E-02 Eh
   gradient norm :     0.0568662 Eh/a0  converged?    E=F G=F D=F
   step length   :     0.7830361 a0

........................................................................
.............................. CYCLE   15 ..............................
........................................................................
   1  -1291.1169712 -0.129112E+04  0.292E-02    7.90       0.0  T
   2  -1291.1169842 -0.129850E-04  0.177E-02    7.90       1.0  T
   3  -1291.1169904 -0.615670E-05  0.199E-03    7.90       1.8  T
   4  -1291.1169907 -0.324736E-06  0.723E-04    7.90       5.0  T
   5  -1291.1169907 -0.216348E-07  0.695E-05    7.90      52.4  T
     SCC iter.                  ...        0 min,  3.011 sec
     gradient                   ...        0 min, 12.627 sec
 * total energy  : -1283.3473548 Eh     change       -0.2079226E-02 Eh
   gradient norm :     0.0095921 Eh/a0  converged?    E=F G=F D=F
   step length   :     0.5136493 a0

........................................................................
.............................. CYCLE   16 ..............................
........................................................................
   1  -1291.1159101 -0.129112E+04  0.978E-03    7.91       0.0  T
   2  -1291.1159107 -0.680210E-06  0.591E-03    7.91       1.0  T
   3  -1291.1159109 -0.169003E-06  0.411E-04    7.90       8.9  T
   4  -1291.1159109 -0.246205E-07  0.106E-04    7.90      34.2  T
     SCC iter.                  ...        0 min,  2.390 sec
     gradient                   ...        0 min, 12.516 sec
 * total energy  : -1283.3477319 Eh     change       -0.3770936E-03 Eh
   gradient norm :     0.0090373 Eh/a0  converged?    E=F G=F D=F
   step length   :     0.1764038 a0

........................................................................
.............................. CYCLE   17 ..............................
........................................................................
   1  -1291.0955825 -0.129110E+04  0.485E-02    7.90       0.0  T
   2  -1291.0956433 -0.607569E-04  0.295E-02    7.90       1.0  T
   3  -1291.0956573 -0.139705E-04  0.397E-03    7.90       1.0  T
   4  -1291.0956594 -0.215458E-05  0.110E-03    7.90       3.3  T
   5  -1291.0956595 -0.458067E-07  0.161E-04    7.90      22.6  T
   6  -1291.0956595 -0.176215E-08  0.648E-05    7.90      56.1  T
     SCC iter.                  ...        0 min,  3.605 sec
     gradient                   ...        0 min, 12.499 sec
 * total energy  : -1283.3436944 Eh     change        0.4037496E-02 Eh
   gradient norm :     0.0664952 Eh/a0  converged?    E=F G=F D=F
   step length   :     1.2709758 a0

........................................................................
.............................. CYCLE   18 ..............................
........................................................................
   1  -1291.1168281 -0.129112E+04  0.428E-02    7.91       0.0  T
   2  -1291.1168821 -0.540088E-04  0.256E-02    7.91       1.0  T
   3  -1291.1168943 -0.122460E-04  0.383E-03    7.91       1.0  T
   4  -1291.1168960 -0.167997E-05  0.966E-04    7.91       3.8  T
   5  -1291.1168961 -0.316941E-07  0.143E-04    7.91      25.5  T
   6  -1291.1168961 -0.145019E-08  0.525E-05    7.91      69.3  T
     SCC iter.                  ...        0 min,  3.596 sec
     gradient                   ...        0 min, 12.366 sec
 * total energy  : -1283.3482122 Eh     change       -0.4517741E-02 Eh
   gradient norm :     0.0087360 Eh/a0  converged?    E=F G=F D=F
   step length   :     0.8704513 a0

........................................................................
.............................. CYCLE   19 ..............................
........................................................................
   1  -1291.1171162 -0.129112E+04  0.705E-03    7.91       0.0  T
   2  -1291.1171165 -0.340812E-06  0.428E-03    7.91       1.0  T
   3  -1291.1171166 -0.110981E-06  0.291E-04    7.91      12.5  T
   4  -1291.1171167 -0.110806E-07  0.889E-05    7.91      40.9  T
     SCC iter.                  ...        0 min,  2.420 sec
     gradient                   ...        0 min, 12.306 sec
 * total energy  : -1283.3485368 Eh     change       -0.3246268E-03 Eh
   gradient norm :     0.0076790 Eh/a0  converged?    E=F G=F D=F
   step length   :     0.1277410 a0

........................................................................
.............................. CYCLE   20 ..............................
........................................................................
   1  -1291.0997946 -0.129110E+04  0.490E-02    7.90       0.0  T
   2  -1291.0998520 -0.574245E-04  0.300E-02    7.90       1.0  T
   3  -1291.0998687 -0.166483E-04  0.388E-03    7.90       1.0  T
   4  -1291.0998707 -0.197458E-05  0.122E-03    7.90       3.0  T
   5  -1291.0998707 -0.550097E-07  0.161E-04    7.90      22.5  T
   6  -1291.0998707 -0.184036E-08  0.668E-05    7.90      54.4  T
     SCC iter.                  ...        0 min,  3.615 sec
     gradient                   ...        0 min, 12.316 sec
 * total energy  : -1283.3450414 Eh     change        0.3495342E-02 Eh
   gradient norm :     0.0628447 Eh/a0  converged?    E=F G=F D=F
   step length   :     1.7452437 a0
 * RMSD in coord.:     0.1149165 a0     energy gain  -0.4775353E-02 Eh
 * calculating model hessian...
Using Lindh-Hessian (1995)
 Shifting diagonal of input Hessian by   1.000012049039810E-002
 Lowest  eigenvalues of input Hessian
    0.010000    0.010000   -0.000000   -0.000000   -0.000000   -0.000000
   -0.000000   -0.000000   -0.000000   -0.000000   -0.000000   -0.000000
   -0.000000   -0.000000   -0.000000   -0.000000   -0.000000   -0.000000
 Highest eigenvalues
    0.234832    0.293429    0.977511    1.183447    1.305520    1.390580
 

........................................................................
.............................. CYCLE   21 ..............................
........................................................................
   1  -1291.1122959 -0.129111E+04  0.157E-02    7.90       0.0  T
   2  -1291.1123004 -0.453648E-05  0.933E-03    7.90       1.0  T
   3  -1291.1123023 -0.185554E-05  0.117E-03    7.90       3.1  T
   4  -1291.1123024 -0.110389E-06  0.401E-04    7.90       9.1  T
   5  -1291.1123024 -0.637692E-08  0.418E-05    7.90      87.1  T
     SCC iter.                  ...        0 min,  3.015 sec
     gradient                   ...        0 min, 12.422 sec
 * total energy  : -1283.3489838 Eh     change       -0.3942384E-02 Eh
   gradient norm :     0.0287167 Eh/a0  converged?    E=F G=F D=F
   step length   :     0.1213888 a0

........................................................................
.............................. CYCLE   22 ..............................
........................................................................
   1  -1291.1206689 -0.129112E+04  0.149E-02    7.90       0.0  T
   2  -1291.1206737 -0.482751E-05  0.900E-03    7.90       1.0  T
   3  -1291.1206762 -0.250412E-05  0.126E-03    7.90       2.9  T
   4  -1291.1206763 -0.108567E-06  0.429E-04    7.90       8.5  T
   5  -1291.1206763 -0.824048E-08  0.409E-05    7.90      89.0  T
     SCC iter.                  ...        0 min,  3.036 sec
     gradient                   ...        0 min, 12.298 sec
 * total energy  : -1283.3497929 Eh     change       -0.8090222E-03 Eh
   gradient norm :     0.0117779 Eh/a0  converged?    E=F G=F D=F
   step length   :     0.1839386 a0

........................................................................
.............................. CYCLE   23 ..............................
........................................................................
   1  -1291.1185564 -0.129112E+04  0.472E-03    7.90       0.0  T
   2  -1291.1185568 -0.351696E-06  0.281E-03    7.90       1.3  T
   3  -1291.1185569 -0.106787E-06  0.338E-04    7.90      10.8  T
   4  -1291.1185569 -0.100238E-07  0.940E-05    7.90      38.7  T
     SCC iter.                  ...        0 min,  2.390 sec
     gradient                   ...        0 min, 12.311 sec
 * total energy  : -1283.3499153 Eh     change       -0.1224385E-03 Eh
   gradient norm :     0.0025409 Eh/a0  converged?    E=F G=F D=F
   step length   :     0.0579871 a0

........................................................................
.............................. CYCLE   24 ..............................
........................................................................
   1  -1291.1184380 -0.129112E+04  0.215E-03    7.90       0.0  T
   2  -1291.1184382 -0.231494E-06  0.125E-03    7.90       2.9  T
   3  -1291.1184383 -0.380824E-07  0.279E-04    7.90      13.0  T
   4  -1291.1184383 -0.527461E-08  0.406E-05    7.90      89.5  T
     SCC iter.                  ...        0 min,  2.390 sec
     gradient                   ...        0 min, 12.314 sec
 * total energy  : -1283.3499492 Eh     change       -0.3389539E-04 Eh
   gradient norm :     0.0015902 Eh/a0  converged?    E=F G=F D=F
   step length   :     0.0587365 a0

........................................................................
.............................. CYCLE   25 ..............................
........................................................................
   1  -1291.1185865 -0.129112E+04  0.467E-03    7.90       0.0  T
   2  -1291.1185873 -0.895589E-06  0.276E-03    7.90       1.3  T
   3  -1291.1185875 -0.132871E-06  0.526E-04    7.90       6.9  T
   4  -1291.1185875 -0.235968E-07  0.763E-05    7.90      47.7  T
     SCC iter.                  ...        0 min,  2.385 sec
     gradient                   ...        0 min, 12.296 sec
 * total energy  : -1283.3499776 Eh     change       -0.2840766E-04 Eh
   gradient norm :     0.0032947 Eh/a0  converged?    E=F G=F D=F
   step length   :     0.1504206 a0

........................................................................
.............................. CYCLE   26 ..............................
........................................................................
   1  -1291.1186809 -0.129112E+04  0.991E-04    7.90       0.0  T
   2  -1291.1186809 -0.205087E-07  0.609E-04    7.90       6.0  T
   3  -1291.1186809 -0.972773E-08  0.804E-05    7.90      45.2  T
     SCC iter.                  ...        0 min,  1.794 sec
     gradient                   ...        0 min, 12.242 sec
 * total energy  : -1283.3499849 Eh     change       -0.7322089E-05 Eh
   gradient norm :     0.0009865 Eh/a0  converged?    E=F G=F D=F
   step length   :     0.0154050 a0

........................................................................
.............................. CYCLE   27 ..............................
........................................................................
   1  -1291.1189871 -0.129112E+04  0.232E-03    7.90       0.0  T
   2  -1291.1189872 -0.134550E-06  0.141E-03    7.90       2.6  T
   3  -1291.1189872 -0.315088E-07  0.203E-04    7.90      17.9  T
   4  -1291.1189872 -0.451996E-08  0.424E-05    7.90      85.8  T
     SCC iter.                  ...        0 min,  2.383 sec
     gradient                   ...        0 min, 12.264 sec
 * total energy  : -1283.3499912 Eh     change       -0.6298357E-05 Eh
   gradient norm :     0.0011203 Eh/a0  converged?    E=F G=F D=F
   step length   :     0.0398778 a0

........................................................................
.............................. CYCLE   28 ..............................
........................................................................
   1  -1291.1187989 -0.129112E+04  0.140E-03    7.90       0.0  T
   2  -1291.1187989 -0.315640E-07  0.841E-04    7.90       4.3  T
   3  -1291.1187989 -0.598607E-08  0.968E-05    7.90      37.6  T
     SCC iter.                  ...        0 min,  1.795 sec
     gradient                   ...        0 min, 12.268 sec
 * total energy  : -1283.3499942 Eh     change       -0.2981812E-05 Eh
   gradient norm :     0.0005756 Eh/a0  converged?    E=F G=T D=F
   step length   :     0.0307306 a0

........................................................................
.............................. CYCLE   29 ..............................
........................................................................
   1  -1291.1188229 -0.129112E+04  0.929E-04    7.90       0.0  T
   2  -1291.1188229 -0.122611E-07  0.557E-04    7.90       6.5  T
   3  -1291.1188229 -0.287787E-08  0.609E-05    7.90      59.8  T
     SCC iter.                  ...        0 min,  1.795 sec
     gradient                   ...        0 min, 12.253 sec
 * total energy  : -1283.3499952 Eh     change       -0.9627383E-06 Eh
   gradient norm :     0.0002938 Eh/a0  converged?    E=T G=T D=F
   step length   :     0.0215158 a0

   *** GEOMETRY OPTIMIZATION CONVERGED AFTER 29 CYCLES ***

------------------------------------------------------------------------
 total energy gain   :        -0.0097291 Eh       -6.1051 kcal/mol
 total RMSD          :         0.1011205 a0        0.0535 Å
 total power (kW/mol):        -0.8808158 (step)   -0.0527 (real)
------------------------------------------------------------------------

 L-ANCopt (total)              0 d,  0 h,  8 min,  4.502 sec
 setup                          ...        0 min,  0.029 sec (  0.006%)
 model hessian                  ...        0 min, 15.085 sec (  3.113%)
 ANC generation                 ...        0 min,  4.968 sec (  1.025%)
 coordinate transformation      ...        0 min,  0.002 sec (  0.000%)
 Rational function              ...        0 min,  0.000 sec (  0.000%)
 singlepoint calculation        ...        7 min, 44.215 sec ( 95.813%)
 optimization log               ...        0 min,  0.196 sec (  0.041%)
 hessian update                 ...        0 min,  0.001 sec (  0.000%)

================
 final structure:
================
$coord
       -5.53371919269500      -12.36989835239700       -7.14783937881200      o
       -6.77901670736900      -11.16114467390400       -6.56937411993100      h
       -5.02800769386800      -11.80708406498800       -8.80348877727700      h
        6.44512778837100       -6.45198060457100        9.73924566845500      o
        7.87691376156300       -5.29568639778700        9.73994462101400      h
        5.55472913461900       -6.15000011848600       11.33703225002500      h
        3.04903920814700        1.59832643677800       -6.56869757026200      o
        3.24508813077100        0.65329049286800       -5.00970240293400      h
        2.83674537507500        3.36950922513200       -6.09024113564500      h
        7.54614411397800       -0.52176126653700        1.32735937916200      o
        6.97637878146900       -2.27517503700000        1.24999632429400      h
        8.63699739743200       -0.30221294448700       -0.13453569754700      h
        6.26323580986800       -2.59954028429000       -6.01809361536100      o
        6.59294279406500       -3.67470507632900       -7.45973033950900      h
        4.58334938315400       -3.09923359707500       -5.38704398692400      h
       -1.05977360516200       -9.34072835310400       -1.65113393818200      o
       -0.99879186985500       -8.18723580072200       -0.18864572827600      h
       -1.93988224928600       -8.45443990677200       -3.02074413156000      h
        8.98805802445100        0.10667799954200        6.09091313882200      o
        7.89901732417600       -0.65300811962300        7.34108139038300      h
        8.39289315890100       -0.28340600217800        4.37487578906900      h
        1.84208484147600       -4.27583140099400       -4.62489977195900      o
        0.56775442637100       -3.47465366198800       -3.47821211591700      h
        0.90372962927400       -4.60470395987900       -6.17511622513800      h
        7.87192348703700       -9.73611328347700        5.11308765025200      o
        8.42927920693300       -8.00650059981800        5.35876594810600      h
        9.37928433187000      -10.73605783060300        5.17298425011700      h
        0.65385361306000        6.39259632679600        5.89052620704100      o
        0.67498756333600        4.54546539622700        5.99702342406000      h
        2.24424318063100        7.02937826655700        6.48323090735200      h
       -3.98074976785700        8.01608690743800        6.22385185145700      o
       -2.16174647092700        7.76279937879400        6.40643550858600      h
       -4.18991014013000        8.96664986171200        4.66495474748900      h
        0.07228639038600        1.37681961617200        5.32517269978700      o
        1.19983809602900        1.34399132853900        3.88725907968900      h
        0.64243592685700        0.01035974202700        6.43141060899000      h
        3.68567425062800       -6.41745332329700       -9.53449996358500      o
        5.04295483483200       -7.48094045443300       -8.87885162695800      h
        3.97960990387200       -6.35120345401800      -11.34660271399400      h
       -4.60216067258800        3.15786218610400        4.89634274496200      o
       -2.97198995947000        2.36404319395700        5.21037583020900      h
       -4.56147288415200        4.84755804038100        5.63327106384000      h
       10.31107719897100        0.19237708324800       -3.09800193171600      o
        9.12370835965200        1.59325917538500       -3.29820806132100      h
       12.01384190450700        0.83467876718700       -2.96991370434200      h
        3.37114067051900       -1.32268575429700      -10.68111146934000      o
        3.42825650784800       -0.12445630902600       -9.30055815455900      h
        3.25419429927900       -2.99528647924100       -9.95130574960800      h
       -7.33922535446800        1.01773947089100       -9.93349648584700      o
       -7.26378072047200        2.80667218617800       -9.47044721970900      h
       -6.79984533254500        0.04313735760300       -8.43680612995400      h
      -13.35246566623100       -3.07472184008800       -0.19783440014000      o
      -12.35688515432400       -3.72483859491600        1.20968449116700      h
      -14.96648786438800       -3.94138627461100       -0.18519107472600      h
       -6.11694399509900       -6.04939137690800       -0.31049572670600      o
       -7.42691775342000       -7.29302268204000        0.03231861607200      h
       -5.32664383424200       -6.57933526622100       -1.88031433928200      h
      -12.71662967811600        1.88723962477100        0.26744936451000      o
      -11.21982555958700        2.13430182071700       -0.77051188650900      h
      -13.15197923773200        0.10169662373600        0.10047923714600      h
       -1.77546059632300        8.23803277903500       -7.95023958115700      o
       -3.18692004698000        8.42341222428900       -6.81334951883600      h
       -2.22096361132400        9.24339569617900       -9.43211886844900      h
        8.42307344574900        1.70608505229400       -7.99702143852500      o
        7.37639704340300        3.21102838980600       -8.00137140133300      h
        7.47584744854700        0.39668909091100       -7.11287540284700      h
       -1.61720528032500       -6.75896912671600        2.55361990989600      o
       -1.49154362283100       -8.34456812921300        3.47393277594700      h
       -3.37951948823300       -6.28260761639700        2.47992316846700      h
       -6.08449514837400       -2.10832854306700       -6.35255251652300      o
       -7.51132326642300       -2.58579878980400       -5.29187680173600      h
       -5.97818723956500       -3.44937288386100       -7.60548992619200      h
       -4.16469890089400       -2.56239168194800        5.35987013141900      o
       -3.56854697837900       -1.35230216506300        6.60665379838900      h
       -5.76497811772900       -3.16061288763600        6.07294433494700      h
       -9.55691973536400       -4.04544927081700       -3.30274213105800      o
      -11.18010264783500       -3.67377009378700       -2.50822844069300      h
       -8.37278591298500       -4.40023808695000       -1.92651709183400      h
       12.81326538256800       -3.38643056185000      -14.49157986134900      o
       11.66469189851400       -2.14764281367600      -13.76841111483100      h
       14.34726924962700       -3.28470641898000      -13.49529110132200      h
        7.82426181748600      -10.50626337288200       -1.07466342223400      o
        8.14729613135700      -11.93393313990900       -2.17821125873800      h
        6.35413889421500       -9.64868941099200       -1.80343484468700      h
      -10.66866150503100       -8.65092276584200       -0.09896941962300      o
      -11.72055050116900       -8.23233092725900       -1.55499079004300      h
      -11.61186665012800       -7.97239614888200        1.32865546055400      h
        7.55540617542800       13.96120932898700        7.75295037696800      o
        9.05906756632000       13.42810512870500        6.84038220085300      h
        6.42746447513600       14.50789025212500        6.41940209826900      h
      -24.40904923163200        1.11651844903500       -4.41990613731200      o
      -24.76530096493600       -0.38089224261100       -3.41198223559300      h
      -24.08946820711800        2.45603932224900       -3.22976016713200      h
       -7.95537361034800       -3.98114775188900        8.24003294775000      o
       -7.86791806889100       -5.80601841658900        8.37904005228800      h
       -7.60797265079000       -3.35090165835900        9.92486489045300      h
        6.62218131217500        3.55331700723500       -2.48723565011100      o
        7.13194002705300        4.15551743625600       -0.81354286217800      h
        5.17878405035800        2.45710814482100       -2.18880086551700      h
       10.72758868965800       -3.63856433532300        9.84630633277800      o
       10.69430161587100       -2.15996032236900       10.96523590431700      h
       11.58653324313300       -4.98794243029300       10.73572495764500      h
       10.06609050490900       -5.12051700464200        5.08088295649700      o
       11.81723369292200       -5.47064367902000        4.66152391639100      h
       10.12248188537100       -4.38094224778300        6.75679501307400      h
      -11.21799638007900      -13.32189725839700        1.71889944968500      o
      -10.76915859838700      -11.72780425882200        0.86085764456300      h
      -12.74777072714700      -13.88050843586900        0.92500934564000      h
        0.60586841978100       10.56794157897100        2.50587396329200      o
        0.90340064556100       12.31607510421000        2.04695320562300      h
       -1.18913446923200       10.32278316286700        2.22880893389100      h
        2.29035715007900       -3.11088576122900        2.29819098367900      o
        3.72954391426400       -4.20168841571200        2.04964624991600      h
        0.85364599737300       -4.23384741797100        2.44818648821000      h
       -7.35650976064200       -0.41112745547700        1.77946728701100      o
       -8.47025600022900       -1.83858766984800        2.17637516547900      h
       -5.83415680636000       -0.76415133314700        2.73273659208300      h
        9.39350946108300       -4.91310196606000       -2.92044615031300      o
        8.28416589386300       -3.88533201237700       -3.99662869224600      h
        9.93529179787500       -6.36148150716100       -3.93199634693300      h
        6.97096456053300      -10.49457956129900      -13.42605421423400      o
        5.94278694024000       -9.14585958247700      -14.09899782655100      h
        8.70331933386600       -9.92797645443000      -13.64693189764100      h
        6.16703177664900        6.30753999312100       -8.56599139804300      o
        4.79816087807700        6.34750237623600       -7.32480872080600      h
        6.91840964235700        7.99627277464600       -8.39821372105100      h
       -4.29096791158400        3.26962892453100       -4.88268053033900      o
       -3.43201580222900        1.98121972852700       -5.89414958741800      h
       -5.84453131395000        2.49011697913900       -4.23466497483300      h
      -11.17580189575800       -1.78544374582500      -11.52182566669600      o
       -9.85717957438300       -0.69203925807400      -10.81097797191800      h
      -10.55144352877100       -2.35452540704400      -13.12027633292500      h
       20.88930276425700       -3.33265082157900       -8.43249868522300      o
       21.27595167146800       -4.93289742571300       -7.62074606418300      h
       19.37162380522500       -3.69354971753700       -9.43715005724200      h
       15.50693917667600        1.23941674062100       -3.97678067799100      o
       16.60047679108500        2.25257263076600       -2.89347040139300      h
       14.53964123552900        2.46016862912800       -4.99375836199000      h
        6.78678643088300       -5.47461845563800        1.17334102621900      o
        8.02959140421100       -5.60257934912000        2.51890017779700      h
        7.74582479583500       -5.53413378609700       -0.42977071633800      h
      -16.57054356436300        0.50237651670800       -3.07328128007600      o
      -17.84185724855200        0.26153515307900       -4.38466924901500      h
      -17.44258303673100        0.26347998816100       -1.48697992408100      h
       -9.48279392485600       16.00049924745400       -2.49567175241100      o
       -7.75577766852600       15.98881276512100       -1.88127955120400      h
      -10.52192273152500       16.05088133719100       -0.99831798743600      h
       -6.50480233107500        5.78361139309000       -8.49846458122600      o
       -5.41975390363500        5.02212047755000       -7.18767955183900      h
       -7.94273629955300        6.43304178717000       -7.54491891563900      h
        8.71771841594300       -5.26513578361200       -9.76628929954400      o
       10.07337763890300       -4.51415402147100       -8.75913451061700      h
        9.53242930450200       -6.47521987150400      -10.89893308283900      h
       -1.30561619012100        4.25815515749900      -11.15501824435900      o
       -1.66077516388400        5.62533706267000       -9.96220494168600      h
        0.47331482516800        4.46524346624400      -11.61786248052300      h
       14.35876581034500        9.31760051405100        8.27279953110600      o
       15.97523771580800        9.96845413935600        8.76088530391500      h
       13.55857041494900        8.66058478911200        9.82999563038700      h
        9.51815399701800        4.98176599349700        6.65655609445500      o
        9.28700893288600        3.13968599822300        6.44069877322400      h
        9.04883993616800        5.66140371130100        5.00531471496000      h
        4.22281238785700        6.88648239930000       13.33160297931200      o
        2.48315209444200        7.24342602174600       12.87508740171500      h
        5.07467847087800        8.49595754946100       13.37273292960500      h
       15.98050106026900       -4.01448680844700       -4.72725618349500      o
       14.44476275700100       -3.81623913903600       -5.73249385810700      h
       16.29830571158700       -2.32858260821700       -4.09860699513100      h
       -8.72264879692700        1.56625006958900        7.24688951278800      o
       -8.86323422495500       -0.24607687790700        7.26065654616400      h
       -7.23531016525500        2.01158559232100        6.23256378382500      h
       -3.53926666954700        0.16995459687700        9.70495977075800      o
       -4.77972833583200        1.49599836527400       10.06517122769000      h
       -1.92759135606100        1.03407807187300        9.90068989396900      h
      -14.18630236133000       -7.35136819805900       -3.64591737521000      o
      -14.50049381657100       -8.60942432919400       -4.96923040495000      h
      -15.64507349975700       -7.35243745904700       -2.55892422833900      h
      -22.24587282813300        3.96379397274200       -0.16325248632200      o
      -21.36132706741800        4.69789727113400       -1.60536435333600      h
      -21.71758662399800        4.99634042494600        1.27394837412300      h
       11.43874492263700      -12.27900329012600        9.59025895160300      o
       12.39909443784500      -13.70620738502600       10.14609663461400      h
       12.04233167974800      -11.88955077189100        7.85510933878800      h
      -11.70955450277700        4.02200230145900       -8.57058754414400      o
      -11.77097434572300        2.45202489464500       -7.59658834168300      h
      -11.50448753126700        3.57089459513100      -10.32753661693600      h
      -11.36106505256900        4.75109502891300      -13.78745140503600      o
      -11.94719095544700        6.37728488219600      -13.17386145693400      h
       -9.57266791056000        5.01194840477500      -14.09999649323600      h
       -0.01417020886300       -3.08624361938800       12.98692655538500      o
       -1.36124338562800       -4.29068952944000       13.28928447926900      h
       -0.38700791073300       -1.50955110032500       13.91814514308500      h
      -12.45440786079900       -2.09824639006600        7.15438546452300      o
      -14.04112222962900       -1.99806823520700        6.21914331447300      h
      -12.54483168248800       -3.61234138764800        8.20336623837500      h
      -18.24183858788600        1.61483669045000        5.01562257890700      o
      -17.83475980373800        2.71772141739400        3.57649960166500      h
      -17.81958748926600       -0.07977326463300        4.47729431514100      h
        9.65057230841700        7.24981118633100       -4.22695006187500      o
        8.27319761964100        6.08968128562400       -3.87764230779700      h
       10.62312578681100        7.41109632602100       -2.69000807838900      h
       -5.43560501125800      -11.13121580243300        0.65139931485300      o
       -6.19310991972700      -12.29315655703000       -0.58589912272500      h
       -3.77706783375400      -10.70715973018200       -0.00822823074400      h
      -14.50328632564400        5.00304246425900       -4.25287932799700      o
      -14.87821004931300        4.67446660916600       -6.03155532495900      h
      -15.30112813729000        3.56536745135300       -3.39643330100800      h
       -5.50792146113800       -1.70041062932300      -13.73454844904000      o
       -4.50560490807900       -0.52497508925500      -14.75238146608900      h
       -6.10609724915200       -0.63277867344500      -12.33937996598700      h
       -1.57751467948600       -5.00918340954400      -13.63160323914900      o
       -0.27232448934000       -4.14762589892800      -14.55778826304800      h
       -3.06448538812900       -3.92233045161500      -13.77809125225800      h
       -1.62539176929100        0.44158162295200       -8.03189961715300      o
       -1.76681943362400        1.64985557202500       -9.42828345571800      h
        0.09939906601400        0.68088879839600       -7.40851675958300      h
        3.46408690936600        7.32204820479200       -0.00873591393600      o
        3.61430211135700        5.73643646214100        0.93182365205900      h
        2.18243914298200        8.36498546498400        0.84820089037800      h
        1.73652663778500       -2.22191346034000        8.34568838729000      o
        1.94885865881700       -3.81760861001500        7.43231419921600      h
        0.80443408887200       -2.58610867745900        9.89449593828000      h
       -8.48558655884000        1.62614627110000       -2.70119377540900      o
       -9.58174007212600        0.69636781274400       -3.86002574184700      h
       -7.93371404527100        0.51071890258500       -1.34674041737900      h
       -1.37683259632100       -4.50855986612100       -8.52162653361200      o
       -1.26751168313600       -4.86578553904600      -10.32088563046000      h
       -1.74473276497200       -2.70187481090900       -8.37229751293500      h
       -4.54185989152300       10.52655367503900        1.63634446404600      o
       -5.29632325036000        9.25509484950300        0.53060926692100      h
       -5.92183738261900       11.34152420362900        2.56218476262600      h
        0.20823165738500        3.40540532731900       10.60394174137400      o
        1.74026188445800        3.26596460172900        9.58116315221100      h
       -0.22607597518500        5.18892074292800       10.69400050618200      h
       -7.17702264927300       -8.26836376037800        4.71464200011200      o
       -6.50068889317000       -9.23277149021900        3.31389274172500      h
       -8.56226252163600       -9.26322965824300        5.39912880496800      h
      -20.09946390326700        5.98823367296600       -4.30473388123300      o
      -19.52970147016500        7.70526407710700       -4.19928383808500      h
      -19.19116951586300        5.21672147892400       -5.68373225939500      h
      -12.11609826015600        8.75067974425100      -10.46899972364600      o
      -10.59262263178100        9.75816587526800      -10.22838008118500      h
      -11.88702185369800        7.24063206363000       -9.44703532612100      h
      -24.92640089882200       -3.01688328614100       -1.28572928360500      o
      -25.04856872761300       -1.81365599742500        0.14934806552300      h
      -26.39899401667400       -4.05821001378600       -1.18013906455500      h
      -14.11807305778800       -7.62019092997300        3.58802631957400      o
      -13.14740391263200       -8.27748339337200        4.99170238645600      h
      -15.31911591836000       -8.95437076415600        3.20107670556400      h
        7.78668415872600       10.94890890115000       -7.47234412283700      o
        7.60146134246200       10.68929467887600       -5.65657108961900      h
        9.56245769385500       10.70322191528000       -7.85366229229100      h
        6.44544740452400        9.83812089676700        3.52687846356100      o
        5.85395816536000       11.57832795271700        3.39197923924400      h
        5.51240645544700        8.86083505288900        2.28250181536500      h
        3.43765629498100        4.97512636049400      -12.60169835529200      o
        4.53376279812200        5.39337104130300      -11.17432301531600      h
        4.35602306663700        3.82284478267300      -13.70515357840600      h
       -2.25243735832500        1.69102854967700      -15.50716761978800      o
       -1.89412595129300        2.67270140935400      -13.99659149317900      h
       -0.75920955352500        0.65782748620000      -15.77531366408300      h
       20.37201962401000       -7.21941299348400       -5.09983434870200      o
       21.35858174480100       -6.84081408770300       -3.61802297305800      h
       18.82639996983200       -6.24319568796300       -4.93897388183300      h
       20.55486062288500       -1.03401929327000       -3.82417403801500      o
       20.71235515600200       -1.84310719965600       -5.47822814173800      h
       21.55550714972100        0.52574703871400       -3.91542900520700      h
       -2.55515807897700       13.61657042878200        6.21963535715800      o
       -1.06469805883200       12.85516259825700        6.96515238202000      h
       -1.98392877842100       14.58958721771200        4.80356609919300      h
       12.63872396482000        1.78212066179900        1.50119520271900      o
       13.92563209027500        1.87697101118800        2.79662982948300      h
       12.54865791436300       -0.00118355539300        1.04038841975200      h
       15.15827485633100       -5.20535440676300        4.65703217746000      o
       15.68103582587800       -5.80066302716800        6.32344673200800      h
       16.51437762216000       -5.69988299157100        3.49659263646400      h
        8.88824922597800        5.25203758642200        1.70710376254600      o
        9.62070595267100        6.85746809452800        1.21992314409000      h
       10.20833411095600        3.96395256100000        1.64150404044200      h
      -12.13138218259800       -0.06771710617300       -5.67347693228500      o
      -13.59448980385100        0.10512526936600       -4.57894184871100      h
      -12.48847190032300       -1.57469015769900       -6.68783807112200      h
      -18.06236463260000       -5.16761119686100       -0.17730895012400      o
      -19.04547630183500       -5.32807471224300       -1.73662037650700      h
      -18.56893561526100       -3.49825029027100        0.42279652096200      h
      -10.01336538062900       -4.30267673614700        3.34029730397000      o
       -8.84216220799100       -5.65549130644800        3.81962117816600      h
      -10.67026169964300       -3.55989152179400        4.90047825637900      h
        2.82048315228100       12.00835390696900       -8.70483428993200      o
        2.24047252257200       12.06873889611200       -6.96444378033200      h
        4.64273328355000       11.92442528690700       -8.60126166589200      h
       -5.66654785732900        1.64286008699600       15.89687325301900      o
       -6.20279413915100       -0.04586556175900       15.45536248269600      h
       -6.21313154461700        2.67775035193300       14.47376942709100      h
       14.26270771990500        4.08755809367200        7.94015948096500      o
       12.55374443130800        4.67133912368000        7.51555275466700      h
       14.42930021010400        2.43730230169000        7.13668866496600      h
        4.15100894792800        3.04955396609400        2.68992952323800      o
        4.47339447125900        3.24331113075400        4.48675783914100      h
        5.31824390810000        1.76277787579200        2.09160585320700      h
       17.79042479414200       -1.37813974791700        0.56910234672600      o
       18.57304252076100       -1.14489100344200       -1.06944724627800      h
       16.13362237750000       -2.13757854088400        0.29067459436900      h
       17.13439645120000        6.08098797915100       -8.61730631735800      o
       17.79041816271500        4.39792298973700       -8.96684640473800      h
       15.43451942077000        5.75382246054900       -7.96757590471700      h
       11.98515450777300       -2.38264995778500       -7.26890240030300      o
       11.13599139785400       -1.57358492350900       -5.84282443372600      h
       12.23665581038000       -1.05699949464900       -8.54147445961700      h
      -20.05235031924800       -0.59369956732500        0.67559154299300      o
      -20.76240473598600        1.07289483489900        0.31167293205300      h
      -21.03090401749300       -1.23106310823000        2.10042208956600      h
      -20.88472184367900        7.10258810289800        3.74704751712100      o
      -19.40201202712300        6.76836959377300        4.80100669877600      h
      -20.33038053203600        8.39169302796600        2.58299688954900      h
      -11.31273138683200       14.31281341832400        2.21615700266500      o
       -9.88909540897500       14.34764065428700        3.36813068328000      h
      -12.40121771445700       12.99512543982000        2.90760259104900      h
       -6.11009401934600        6.60386520615000       -1.44510285589400      o
       -4.94096915748000        5.49612217142500       -2.30307846656100      h
       -7.47269975716600        6.90318484698300       -2.65400163038000      h
       13.36341699811500        0.89745544489200      -10.80570927613200      o
       15.10832646984900        1.24850335046500      -10.38207742430200      h
       12.57609899336900        2.48403408793500      -11.29890653483500      h
      -13.43336006728600        9.97105755016800        4.00591361257700      o
      -13.23037611347800        8.95194508471500        2.47211530555900      h
      -11.95649238272300        9.46502074408900        5.01739924066300      h
       -1.47170492908200       14.76098997394600      -10.25777574550400      o
       -2.41600763267900       13.55796606981900      -11.25064050239000      h
        0.20524912616200       14.04901183508900      -10.07095750467400      h
       16.35612051338000       -4.09548015574200      -10.60588099023800      o
       15.35874223185600       -2.92446977540200       -9.63545128828900      h
       15.82703248624100       -5.78543070917300      -10.05101182919300      h
      -15.12315685409500        1.23524352596000      -12.21336404100200      o
      -13.78350241297200        0.00869014004900      -11.80084693794300      h
      -14.29984527925500        2.46357837220700      -13.28154652904000      h
       -0.75693347423900        1.29928617605400       15.10665751755800      o
       -2.52566390362300        1.53181780940500       15.65792632510300      h
       -0.57833998932600        2.28258667653300       13.55238348601800      h
       -8.98667971692500       -8.50512994190300       -5.66321539893800      o
       -9.36800809486800       -6.92513181292000       -4.75581190922700      h
       -9.81138673419200       -8.27377731102800       -7.32030995681900      h
       -4.02534071305300       -7.06242609348000       -4.93146477061400      o
       -3.06893456532900       -6.24650803872400       -6.28081667133600      h
       -5.60598613912500       -7.64538749718800       -5.64778406313200      h
      -17.12131999644100        4.35993976687500        0.96661973267700      o
      -15.44796310332800        3.69360850351000        0.62396288665200      h
      -17.07944366487000        6.18112909821600        0.81716513139700      h
      -11.56051845784200      -12.72566085058200       -4.24445850375400      o
      -10.67380060133300      -11.11790149032500       -4.48323755144000      h
      -12.91530908489900      -12.43582565547100       -3.04361180108200      h
       20.16542901881300        0.97503580955100        7.67231034625300      o
       20.21961585273000        2.62878261945700        8.45858015119500      h
       19.09109856402400       -0.08166478072000        8.75655300191800      h
       -6.22832251748700        6.04046739593500      -13.59707600341700      o
       -6.25768207348900        5.87300798923200      -11.75456267981000      h
       -5.12542612375300        4.74872301561100      -14.23618099254700      h
       12.71806749197800        4.31574444166400       -6.64651204380900      o
       11.66460824696100        5.60721721092100       -5.80303274520900      h
       11.50024733470200        3.22902485265500       -7.49375519273100      h
      -25.66755037433000        0.66980931871500        1.99046390636700      o
      -25.04414840936300        0.64086796019900        3.71027708994900      h
      -24.79685693107800        2.06716726943300        1.18902534303900      h
        5.22076854738600        8.28880916708300        7.92689910409200      o
        5.90257467866200        8.86390874486900        6.26412074566500      h
        6.29602650688400        8.99833917768900        9.24081686068700      h
        4.36530524951100        1.63685030966800       14.80690705209100      o
        4.48612731280300        3.44721612319500       14.61636996344100      h
        2.61107850911800        1.32829788131900       15.24301360984400      h
       -6.16539278331800       -2.68605971976200       12.93853317997800      o
       -4.99323905698400       -1.70046627627200       11.87290414217700      h
       -5.35770147662800       -4.28463051964900       13.27916391607600      h
        3.90686483032200       -5.98330521931300       14.03200297798100      o
        3.08012652149900       -7.60677718596600       13.85387777339500      h
        2.55900289763000       -4.74400456191200       13.71798558690900      h
        2.38630886387700        6.40752846447000       -5.23342141289300      o
        2.42299510923800        6.70202043527000       -3.42190722122100      h
        0.86399847926200        7.19900327236300       -5.89342010217900      h
        8.53828765317700        4.65579756696300       11.56507539439600      o
        8.70275579604500        4.91331741050200        9.74259721137700      h
        6.93257536179800        5.36172362829800       12.10314198081800      h
       -2.12433984805000      -15.61324528344200        0.76792321726000      o
       -2.44704524642600      -15.40042941263200       -1.02714723418000      h
       -3.69577747483000      -16.14592416726300        1.52748365982300      h
       -1.25389613661800        8.90298721226200       -2.54706751231100      o
       -1.48567708465000        7.77951588093600       -1.10680578942500      h
       -2.93165727642900        9.36231291306800       -3.12872713653600      h
       -4.39877990788900       15.26533712370800       -0.62751201724000      o
       -4.50751888601600       13.50171058956700       -0.09416829211400      h
       -3.91214342543700       15.28101429434100       -2.39584319893100      h
       23.11892208671200        3.32101628289900       -3.88624959205500      o
       22.02273653406800        4.71722847331000       -4.34130027034800      h
       23.42080509430800        3.46204989118400       -2.08777454363800      h
       17.22583139097900        2.47138164875000        3.77135319665900      o
       17.54237838130100        1.28178221301500        2.39204773784100      h
       18.29486767137300        1.92748450018400        5.16970129744400      h
      -12.15870777062500        6.28468344860500       10.03901801411500      o
      -13.83733136586400        6.59549966565100        9.39533154372500      h
      -12.14875807626400        4.50434763145300       10.53941724971300      h
        0.09945352810500       -9.53479970152200       -7.74795812654500      o
        1.27339586001900       -8.23920444087100       -8.34068011482600      h
        1.06110690017200      -11.06663135524800       -7.55036067063800      h
       -9.37915372478400        7.93758255636300        6.24320197186900      o
       -9.05102112815700        6.60560264494400        5.00578775645000      h
      -10.27340470412500        7.15204433860200        7.66935259935400      h
        3.29621275430500       -9.03870693612200        2.26209109155600      o
        4.74731695386900       -8.13633945400500        1.60379999416500      h
        2.93386819040600      -10.46692504700600        1.16011467594100      h
      -17.63390538512600        9.66174845589500        0.52575992040900      o
      -16.55153761917100       10.61955300403500        1.62198893448300      h
      -17.09948404075400       10.01152337007100       -1.20634619201100      h
      -17.54481418816100        1.36874642383500        9.97821609586900      o
      -18.66934497071900        2.74497362452800       10.51417625617500      h
      -17.46961094208800        1.57080012943100        8.13394828190500      h
       15.65401858027700        7.19123136016800        3.65108282544100      o
       14.93612430417000        7.49516385133400        5.31132391478800      h
       16.17299376507600        5.39913683989400        3.63587057161100      h
      -18.10209641245700       -2.91104038049600      -10.36109600023300      o
      -17.36329621722600       -1.67133395112300      -11.47604390691300      h
      -19.11657142202200       -1.95460238087300       -9.16909090840400      h
       13.47273478021300       13.42687518639800       -1.65710828390500      o
       14.15119459290400       12.31368693866400       -2.95697637555300      h
       14.69217786096900       13.34995654027200       -0.27031393261300      h
       12.67486670137700        9.63797830730700       -8.76784905931100      o
       13.82493128786400       10.44692503018700       -9.90302683471300      h
       13.55665413835100        9.48152554155500       -7.14595499058300      h
       12.42478357838000      -13.04447374099200       -3.32192063279500      o
       11.17834353993200      -14.22005140527000       -3.95932261658400      h
       13.99082483665300      -13.27176908471100       -4.22652709207500      h
       -0.97770262199100      -11.80928413685000        4.23401744417400      o
       -1.48426615459600      -13.09028750876400        3.02434570676800      h
        0.76759699481400      -12.19557971859900        4.68479857297700      h
       -2.59250680556500      -11.46647652395300        8.93367287305600      o
       -3.02360760173300       -9.70648873460700        8.59228452636100      h
       -1.97137485386300      -12.02211426167500        7.27998887253800      h
      -16.70524815465400       -3.34647308030600        4.86249143925800      o
      -17.38954795468700       -3.69277602820700        6.54175301051300      h
      -15.83187318196600       -4.86575161166200        4.28854776374900      h
       11.76556675942600       -8.17775356201100        1.10921566905600      o
       10.29528776784600       -8.97237046712900        0.32802784930700      h
       12.24290863481200       -9.21449715186200        2.54954247126900      h
       16.73006107367500       -6.49607515939000        9.35165076481200      o
       17.06377009340900       -4.79834604570900        9.96412212422000      h
       15.38571443243800       -7.14481508672500       10.40986516937600      h
       12.49570311260200       -7.97142534299400       12.08006139606200      o
       11.96361208737500       -9.50372241543400       11.17624785785400      h
       11.84006570652700       -8.09097888333300       13.76202693347000      h
      -20.35071979869300       -7.42985278638000        3.82208587647900      o
      -19.47646310463200       -6.68797329273000        2.36184208860400      h
      -19.19181915942500       -7.34245470922200        5.23996811616600      h
       -5.87097992324900        8.74344750679600       10.76128180016700      o
       -7.53958644179100        9.44391943656100       10.79666274189500      h
       -5.37477805452200        8.62158003388100        8.96917139769000      h
       -8.06608061635200       -8.63927451398800       10.42285806045400      o
       -6.73006787196400       -8.36952561680400       11.63170655008900      h
       -7.84885556703600      -10.34675598494200        9.78124252901600      h
       -6.65698042334600      -14.97568823535600        3.71044804551900      o
       -5.98090714215500      -13.43849365447000        2.93452260949400      h
       -8.30378469853400      -15.14507641277000        2.94104076694500      h
      -19.04683737657200       -9.74303978519400       -4.48608040583600      o
      -18.20574810338600      -10.07276531761800       -6.06995434989000      h
      -19.97147684936400       -8.18080289391100       -4.68687680910600      h
       11.42494833905000       -7.98320402562300      -13.07100204230200      o
       12.77951086617000       -8.50399072004700      -11.94985034844500      h
       12.00045194648000       -6.41007096714600      -13.88857865831200      h
        7.72115758073200       10.69091864019300       11.64962261983800      o
        9.44109131295600       10.34011990008800       12.11731143246800      h
        7.74010526264900       12.14369191658000       10.50956758005800      h
        5.21450542980600       14.79727263866200        3.13252664901000      o
        6.47973929038400       15.28371300630000        1.88282905996400      h
        3.60804334695000       15.35048437776800        2.46117352586200      h
[...]
   382   8 o      384   1 h                                       0.9656717
   385   8 o      386   1 h                                       0.9743566
   385   8 o      387   1 h                                       0.9706026
   388   8 o      389   1 h                                       0.9767096
   388   8 o      390   1 h                                       0.9705832
   391   8 o      392   1 h                                       0.9697240
   391   8 o      393   1 h                                       0.9679079
   394   8 o      395   1 h                                       0.9783101
   394   8 o      396   1 h                                       0.9748991
   397   8 o      398   1 h                                       0.9654717
   397   8 o      399   1 h                                       0.9786338
   400   8 o      401   1 h                                       0.9769058
   400   8 o      402   1 h                                       0.9628017
   403   8 o      404   1 h                                       0.9776234
   403   8 o      405   1 h                                       0.9829973
   406   8 o      407   1 h                                       0.9690329
   406   8 o      408   1 h                                       0.9736650
   409   8 o      410   1 h                                       0.9599322
   409   8 o      411   1 h                                       0.9769220
   412   8 o      413   1 h                                       0.9823081
   412   8 o      414   1 h                                       0.9825904
   415   8 o      416   1 h                                       0.9705964
   415   8 o      417   1 h                                       0.9873332
   418   8 o      419   1 h                                       0.9650497
   418   8 o      420   1 h                                       0.9706919
   421   8 o      422   1 h                                       0.9741969
   421   8 o      423   1 h                                       0.9780703
   424   8 o      425   1 h                                       0.9562852
   424   8 o      426   1 h                                       0.9804167
   427   8 o      428   1 h                                       0.9673784
   427   8 o      429   1 h                                       0.9645642
   430   8 o      431   1 h                                       0.9701252
   430   8 o      432   1 h                                       0.9755392
   433   8 o      434   1 h                                       0.9757476
   433   8 o      435   1 h                                       0.9799370
   436   8 o      437   1 h                                       0.9769179
   436   8 o      438   1 h                                       0.9758124
   439   8 o      440   1 h                                       0.9762411
   439   8 o      441   1 h                                       0.9724824
   442   8 o      443   1 h                                       0.9712626
   442   8 o      444   1 h                                       0.9682569
   445   8 o      446   1 h                                       0.9826088
   445   8 o      447   1 h                                       0.9573812
   448   8 o      449   1 h                                       0.9824788
   448   8 o      450   1 h                                       0.9701537
   451   8 o      452   1 h                                       0.9578197
   451   8 o      453   1 h                                       0.9861354
   454   8 o      455   1 h                                       0.9640630
   454   8 o      456   1 h                                       0.9720671
   457   8 o      458   1 h                                       0.9789211
   457   8 o      459   1 h                                       0.9660412
   460   8 o      461   1 h                                       0.9649046
   460   8 o      462   1 h                                       0.9665074
   463   8 o      464   1 h                                       0.9704366
   463   8 o      465   1 h                                       0.9863704
   466   8 o      467   1 h                                       0.9612931
   466   8 o      468   1 h                                       0.9772795
   469   8 o      470   1 h                                       0.9756377
   469   8 o      471   1 h                                       0.9667416
   472   8 o      473   1 h                                       0.9758675
   472   8 o      474   1 h                                       0.9630617
   475   8 o      476   1 h                                       0.9869699
   475   8 o      477   1 h                                       0.9678082
   478   8 o      479   1 h                                       0.9756111
   478   8 o      480   1 h                                       0.9864786
   481   8 o      482   1 h                                       0.9712233
   481   8 o      483   1 h                                       0.9685107
   484   8 o      485   1 h                                       0.9647337
   484   8 o      486   1 h                                       0.9816920
   487   8 o      488   1 h                                       0.9765912
   487   8 o      489   1 h                                       0.9649825
   490   8 o      491   1 h                                       0.9803197
   490   8 o      492   1 h                                       0.9761605
   493   8 o      494   1 h                                       0.9748968
   493   8 o      495   1 h                                       0.9801686
   496   8 o      497   1 h                                       0.9787053
   496   8 o      498   1 h                                       0.9784481
   499   8 o      500   1 h                                       0.9823989
   499   8 o      501   1 h                                       0.9647366
   502   8 o      503   1 h                                       0.9617065
   502   8 o      504   1 h                                       0.9784031
   505   8 o      506   1 h                                       0.9782759
   505   8 o      507   1 h                                       0.9857717
   508   8 o      509   1 h                                       0.9825126
   508   8 o      510   1 h                                       0.9574998
   511   8 o      512   1 h                                       0.9667584
   511   8 o      513   1 h                                       0.9752708
   514   8 o      515   1 h                                       0.9830960
   514   8 o      516   1 h                                       0.9601357
   517   8 o      518   1 h                                       0.9647948
   517   8 o      519   1 h                                       0.9838341
   520   8 o      521   1 h                                       0.9803758
   520   8 o      522   1 h                                       0.9770114
   523   8 o      524   1 h                                       0.9606365
   523   8 o      525   1 h                                       0.9835547
   526   8 o      527   1 h                                       0.9741202
   526   8 o      528   1 h                                       0.9700037
   529   8 o      530   1 h                                       0.9727161
   529   8 o      531   1 h                                       0.9751795
   532   8 o      533   1 h                                       0.9814463
   532   8 o      534   1 h                                       0.9743822
   535   8 o      536   1 h                                       0.9774966
   535   8 o      537   1 h                                       0.9806429
   538   8 o      539   1 h                                       0.9673990
   538   8 o      540   1 h                                       0.9846822
   541   8 o      543   1 h                                       0.9567863
   544   8 o      545   1 h                                       0.9713593
   544   8 o      546   1 h                                       0.9812693
   547   8 o      548   1 h                                       0.9743142
   547   8 o      549   1 h                                       0.9837026
   550   8 o      551   1 h                                       0.9653811
   550   8 o      552   1 h                                       0.9733446
   553   8 o      554   1 h                                       0.9737262
   553   8 o      555   1 h                                       0.9584521
   556   8 o      557   1 h                                       0.9636767
   556   8 o      558   1 h                                       0.9826720
   559   8 o      560   1 h                                       0.9682178
   559   8 o      561   1 h                                       0.9719397
   562   8 o      563   1 h                                       0.9853786
   562   8 o      564   1 h                                       0.9811777
   565   8 o      566   1 h                                       0.9718127
   565   8 o      567   1 h                                       0.9853583
   568   8 o      569   1 h                                       0.9789603
   568   8 o      570   1 h                                       0.9730375
   571   8 o      572   1 h                                       0.9923342
   571   8 o      573   1 h                                       0.9672731
   574   8 o      575   1 h                                       0.9813965
   574   8 o      576   1 h                                       0.9775241
   577   8 o      578   1 h                                       0.9838109
   577   8 o      579   1 h                                       0.9644819
   580   8 o      581   1 h                                       0.9802552
   580   8 o      582   1 h                                       0.9588832
   583   8 o      584   1 h                                       0.9652017
   583   8 o      585   1 h                                       0.9792766
   586   8 o      587   1 h                                       0.9683359
   586   8 o      588   1 h                                       0.9674309
   589   8 o      590   1 h                                       0.9644098
   589   8 o      591   1 h                                       0.9803499
   592   8 o      593   1 h                                       0.9774361
   592   8 o      594   1 h                                       0.9772992
   595   8 o      596   1 h                                       0.9737001
   595   8 o      597   1 h                                       0.9828630
   598   8 o      599   1 h                                       0.9665803
   598   8 o      600   1 h                                       0.9727242
   601   8 o      602   1 h                                       0.9777669
   601   8 o      603   1 h                                       0.9746308
   604   8 o      605   1 h                                       0.9710812
   604   8 o      606   1 h                                       0.9875829
   607   8 o      608   1 h                                       0.9677438
   607   8 o      609   1 h                                       0.9616973
   610   8 o      611   1 h                                       0.9953119
   610   8 o      612   1 h                                       0.9618133
   613   8 o      614   1 h                                       0.9626416
   613   8 o      615   1 h                                       0.9726830
   616   8 o      617   1 h                                       0.9745331
   616   8 o      618   1 h                                       0.9658651
   619   8 o      620   1 h                                       0.9724288
   619   8 o      621   1 h                                       0.9748250
   622   8 o      623   1 h                                       0.9856981
   622   8 o      624   1 h                                       0.9618395
   625   8 o      626   1 h                                       0.9912934
   625   8 o      627   1 h                                       0.9902591
   628   8 o      629   1 h                                       0.9722325
   628   8 o      630   1 h                                       0.9709390
   631   8 o      632   1 h                                       0.9807814
   631   8 o      633   1 h                                       0.9794278
   634   8 o      635   1 h                                       0.9747987
   634   8 o      636   1 h                                       0.9667883
   637   8 o      638   1 h                                       0.9663940
   637   8 o      639   1 h                                       0.9705587
   640   8 o      641   1 h                                       0.9760075
   640   8 o      642   1 h                                       0.9629056
   643   8 o      644   1 h                                       0.9806310
   643   8 o      645   1 h                                       0.9723735
   646   8 o      647   1 h                                       0.9640468
   646   8 o      648   1 h                                       0.9646772
   649   8 o      650   1 h                                       0.9903605
   649   8 o      651   1 h                                       0.9744493
   652   8 o      653   1 h                                       0.9690138
   652   8 o      654   1 h                                       0.9904463
   655   8 o      656   1 h                                       0.9751176
   655   8 o      657   1 h                                       0.9847941
   658   8 o      659   1 h                                       0.9751284
   658   8 o      660   1 h                                       0.9826438
   661   8 o      662   1 h                                       0.9602958
   661   8 o      663   1 h                                       0.9749809
   664   8 o      665   1 h                                       0.9847963
   664   8 o      666   1 h                                       0.9744564
   667   8 o      668   1 h                                       0.9739519
   667   8 o      669   1 h                                       0.9582093
   670   8 o      671   1 h                                       0.9719590
   670   8 o      672   1 h                                       0.9702708
   673   8 o      674   1 h                                       0.9705439
   673   8 o      675   1 h                                       0.9699612
   676   8 o      677   1 h                                       0.9626614
   676   8 o      678   1 h                                       0.9753769
   679   8 o      680   1 h                                       0.9728537
   679   8 o      681   1 h                                       0.9804648
   682   8 o      683   1 h                                       0.9798105
   682   8 o      684   1 h                                       0.9782394
   685   8 o      686   1 h                                       0.9762733
   685   8 o      687   1 h                                       0.9810344
   688   8 o      689   1 h                                       0.9694142
   688   8 o      690   1 h                                       0.9718047
   691   8 o      692   1 h                                       0.9623574
   691   8 o      693   1 h                                       0.9684672
   694   8 o      695   1 h                                       0.9719616
   694   8 o      696   1 h                                       0.9806348
   697   8 o      698   1 h                                       0.9813166
   697   8 o      699   1 h                                       0.9625839
   700   8 o      701   1 h                                       0.9826321
   700   8 o      702   1 h                                       0.9753574
   703   8 o      704   1 h                                       0.9852588
   703   8 o      705   1 h                                       0.9754087
   706   8 o      707   1 h                                       0.9921030
   706   8 o      708   1 h                                       0.9564629
   709   8 o      710   1 h                                       0.9718575
   709   8 o      711   1 h                                       0.9743832
   712   8 o      713   1 h                                       0.9626737
   712   8 o      714   1 h                                       0.9809546
   715   8 o      716   1 h                                       0.9700915
   715   8 o      717   1 h                                       0.9665034
   718   8 o      719   1 h                                       0.9947724
   718   8 o      720   1 h                                       0.9702299
   721   8 o      722   1 h                                       0.9667440
   721   8 o      723   1 h                                       0.9748543
   724   8 o      725   1 h                                       0.9734235
   724   8 o      726   1 h                                       0.9811013
   727   8 o      728   1 h                                       0.9638180
   727   8 o      729   1 h                                       0.9854972
   730   8 o      731   1 h                                       0.9831706
   730   8 o      732   1 h                                       0.9615896
   733   8 o      734   1 h                                       0.9699337
   733   8 o      735   1 h                                       0.9742021
   736   8 o      737   1 h                                       0.9704641
   736   8 o      738   1 h                                       0.9656833
   739   8 o      740   1 h                                       0.9626364
   739   8 o      741   1 h                                       0.9789854
   742   8 o      743   1 h                                       0.9916383
   742   8 o      744   1 h                                       0.9628183
   745   8 o      746   1 h                                       0.9742066
   745   8 o      747   1 h                                       0.9611114
   748   8 o      749   1 h                                       0.9692591
   748   8 o      750   1 h                                       0.9615995
   751   8 o      752   1 h                                       0.9691369
   751   8 o      753   1 h                                       0.9610059
   754   8 o      755   1 h                                       0.9598997
   754   8 o      756   1 h                                       0.9681508

 * 1 distinct bonds (by element types)

   Z      Z             #   av. dist./Å        max./Å        min./Å
   1 H    8 O         502     0.9738055     0.9985101     0.9560464


optimized geometry written to: xtbopt.coord


           -------------------------------------------------
          | TOTAL ENERGY            -1283.349995157568 Eh   |
          | GRADIENT NORM               0.005976551035 Eh/α |
          | HOMO-LUMO GAP               7.896797309574 eV   |
           -------------------------------------------------

------------------------------------------------------------------------
 * finished run on 2022/11/24 at 09:16:34.207     
------------------------------------------------------------------------
 total:
 * wall-time:     0 d,  0 h,  8 min, 41.838 sec
 *  cpu-time:     0 d,  0 h, 12 min, 53.699 sec
 * ratio c/w:     1.483 speedup
 SCF:
 * wall-time:     0 d,  0 h,  0 min, 21.486 sec
 *  cpu-time:     0 d,  0 h,  0 min, 34.713 sec
 * ratio c/w:     1.616 speedup
 ANC optimizer:
 * wall-time:     0 d,  0 h,  8 min, 19.314 sec
 *  cpu-time:     0 d,  0 h, 12 min, 17.229 sec
 * ratio c/w:     1.476 speedup

