      -----------------------------------------------------------      
     |                   =====================                   |     
     |                           x T B                           |     
     |                   =====================                   |     
     |                         S. Grimme                         |     
     |          Mulliken Center for Theoretical Chemistry        |     
     |                    University of Bonn                     |     
      -----------------------------------------------------------      

   * xtb version 6.5.1 (579679a) compiled by 'ehlert@majestix' on 2022-07-11

   xtb is free software: you can redistribute it and/or modify it under
   the terms of the GNU Lesser General Public License as published by
   the Free Software Foundation, either version 3 of the License, or
   (at your option) any later version.
   
   xtb is distributed in the hope that it will be useful,
   but WITHOUT ANY WARRANTY; without even the implied warranty of
   MERCHANTABILITY or FITNESS FOR A PARTICULAR PURPOSE.  See the
   GNU Lesser General Public License for more details.
   
   Cite this work as:
   * C. Bannwarth, E. Caldeweyher, S. Ehlert, A. Hansen, P. Pracht,
     J. Seibert, S. Spicher, S. Grimme, WIREs Comput. Mol. Sci., 2020, 11,
     e01493. DOI: 10.1002/wcms.1493
   
   for GFN2-xTB:
   * C. Bannwarth, S. Ehlert and S. Grimme., J. Chem. Theory Comput., 2019,
     15, 1652-1671. DOI: 10.1021/acs.jctc.8b01176
   for GFN1-xTB:
   * S. Grimme, C. Bannwarth, P. Shushkov, J. Chem. Theory Comput., 2017,
     13, 1989-2009. DOI: 10.1021/acs.jctc.7b00118
   for GFN0-xTB:
   * P. Pracht, E. Caldeweyher, S. Ehlert, S. Grimme, ChemRxiv, 2019, preprint.
     DOI: 10.26434/chemrxiv.8326202.v1
   for GFN-FF:
   * S. Spicher and S. Grimme, Angew. Chem. Int. Ed., 2020, 59, 15665-15673.
     DOI: 10.1002/anie.202004239
   
   for ALPB and GBSA implicit solvation:
   * S. Ehlert, M. Stahn, S. Spicher, S. Grimme, J. Chem. Theory Comput.,
     2021, 17, 4250-4261. DOI: 10.1021/acs.jctc.1c00471
   
   for DFT-D4:
   * E. Caldeweyher, C. Bannwarth and S. Grimme, J. Chem. Phys., 2017,
     147, 034112. DOI: 10.1063/1.4993215
   * E. Caldeweyher, S. Ehlert, A. Hansen, H. Neugebauer, S. Spicher,
     C. Bannwarth and S. Grimme, J. Chem. Phys., 2019, 150, 154122.
     DOI: 10.1063/1.5090222
   * E. Caldeweyher, J.-M. Mewes, S. Ehlert and S. Grimme, Phys. Chem. Chem. Phys.
     2020, 22, 8499-8512. DOI: 10.1039/D0CP00502A
   
   for sTDA-xTB:
   * S. Grimme and C. Bannwarth, J. Chem. Phys., 2016, 145, 054103.
     DOI: 10.1063/1.4959605
   
   in the mass-spec context:
   * V. Asgeirsson, C. Bauer and S. Grimme, Chem. Sci., 2017, 8, 4879.
     DOI: 10.1039/c7sc00601b
   * J. Koopman and S. Grimme, ACS Omega 2019, 4, 12, 15120-15133.
     DOI: 10.1021/acsomega.9b02011
   
   for metadynamics refer to:
   * S. Grimme, J. Chem. Theory Comput., 2019, 155, 2847-2862
     DOI: 10.1021/acs.jctc.9b00143
   
   for SPH calculations refer to:
   * S. Spicher and S. Grimme, J. Chem. Theory Comput., 2021, 17, 1701-1714
     DOI: 10.1021/acs.jctc.0c01306
   
   with help from (in alphabetical order)
   P. Atkinson, C. Bannwarth, F. Bohle, G. Brandenburg, E. Caldeweyher
   M. Checinski, S. Dohm, S. Ehlert, S. Ehrlich, I. Gerasimov, C. Hölzer
   A. Katbashev, J. Koopman, C. Lavigne, S. Lehtola, F. März, M. Müller,
   F. Musil, H. Neugebauer, J. Pisarek, C. Plett, P. Pracht, F. Pultar,
   J. Seibert, P. Shushkov, S. Spicher, M. Stahn, M. Steiner, T. Strunk,
   J. Stückrath, T. Rose, and J. Unsleber
   
 * started run on 2022/11/24 at 09:28:10.074     

           -------------------------------------------------
          |                Calculation Setup                |
           -------------------------------------------------

          program call               : xtb solvent_cluster.coord --gfn2 --sp --lmo --chrg 0
          hostname                   : cn0341
          coordinate file            : solvent_cluster.coord
          omp threads                :                     2

   ID    Z sym.   atoms
    1    8 o      1, 4, 7, 10, 13, 16, 19, 22, 25, 28, 31, 34, 37, 40, 43,
                  46, 49, 52, 55, 58, 61, 64, 67, 70, 73, 76, 79, 82, 85, 88,
                  91, 94, 97, 100, 103, 106, 109, 112, 115, 118, 121, 124,
                  127, 130, 133, 136, 139, 142, 145, 148, 151, 154, 157, 160,
                  163, 166, 169, 172, 175, 178, 181, 184, 187, 190, 193, 196,
                  199, 202, 205, 208, 211, 214, 217, 220, 223, 226, 229, 232,
                  235, 238, 241, 244, 247, 250, 253, 256, 259, 262, 265, 268,
                  271, 274, 277, 280, 283, 286, 289, 292, 295, 298, 301, 304,
                  307, 310, 313, 316, 319, 322, 325, 328, 331, 334, 337, 340,
                  343, 346, 349, 352, 355, 358, 361, 364, 367, 370, 373, 376,
                  379, 382, 385, 388, 391, 394, 397, 400, 403, 406, 409, 412,
                  415, 418, 421, 424, 427, 430, 433, 436, 439, 442, 445, 448,
                  451, 454, 457, 460, 463, 466, 469, 472, 475, 478, 481, 484,
                  487, 490, 493, 496, 499, 502, 505, 508, 511, 514, 517, 520,
                  523, 526, 529, 532, 535, 538, 541, 544, 547, 550, 553, 556,
                  559, 562, 565, 568, 571, 574, 577, 580, 583, 586, 589, 592,
                  595, 598, 601, 604, 607, 610, 613, 616, 619, 622, 625, 628,
                  631, 634, 637, 640, 643, 646, 649, 652, 655, 658, 661, 664,
                  667, 670, 673, 676, 679, 682, 685, 688, 691, 694, 697, 700,
                  703, 706, 709, 712, 715, 718, 721, 724, 727, 730, 733, 736,
                  739, 742, 745, 748, 751, 754
    2    1 h      2, 3, 5, 6, 8, 9, 11, 12, 14, 15, 17, 18, 20, 21, 23, 24,
                  26, 27, 29, 30, 32, 33, 35, 36, 38, 39, 41, 42, 44, 45, 47,
                  48, 50, 51, 53, 54, 56, 57, 59, 60, 62, 63, 65, 66, 68, 69,
                  71, 72, 74, 75, 77, 78, 80, 81, 83, 84, 86, 87, 89, 90, 92,
                  93, 95, 96, 98, 99, 101, 102, 104, 105, 107, 108, 110, 111,
                  113, 114, 116, 117, 119, 120, 122, 123, 125, 126, 128, 129,
                  131, 132, 134, 135, 137, 138, 140, 141, 143, 144, 146, 147,
                  149, 150, 152, 153, 155, 156, 158, 159, 161, 162, 164, 165,
                  167, 168, 170, 171, 173, 174, 176, 177, 179, 180, 182, 183,
                  185, 186, 188, 189, 191, 192, 194, 195, 197, 198, 200, 201,
                  203, 204, 206, 207, 209, 210, 212, 213, 215, 216, 218, 219,
                  221, 222, 224, 225, 227, 228, 230, 231, 233, 234, 236, 237,
                  239, 240, 242, 243, 245, 246, 248, 249, 251, 252, 254, 255,
                  257, 258, 260, 261, 263, 264, 266, 267, 269, 270, 272, 273,
                  275, 276, 278, 279, 281, 282, 284, 285, 287, 288, 290, 291,
                  293, 294, 296, 297, 299, 300, 302, 303, 305, 306, 308, 309,
                  311, 312, 314, 315, 317, 318, 320, 321, 323, 324, 326, 327,
                  329, 330, 332, 333, 335, 336, 338, 339, 341, 342, 344, 345,
                  347, 348, 350, 351, 353, 354, 356, 357, 359, 360, 362, 363,
                  365, 366, 368, 369, 371, 372, 374, 375, 377, 378, 380, 381,
                  383, 384, 386, 387, 389, 390, 392, 393, 395, 396, 398, 399,
                  401, 402, 404, 405, 407, 408, 410, 411, 413, 414, 416, 417,
                  419, 420, 422, 423, 425, 426, 428, 429, 431, 432, 434, 435,
                  437, 438, 440, 441, 443, 444, 446, 447, 449, 450, 452, 453,
                  455, 456, 458, 459, 461, 462, 464, 465, 467, 468, 470, 471,
                  473, 474, 476, 477, 479, 480, 482, 483, 485, 486, 488, 489,
                  491, 492, 494, 495, 497, 498, 500, 501, 503, 504, 506, 507,
                  509, 510, 512, 513, 515, 516, 518, 519, 521, 522, 524, 525,
                  527, 528, 530, 531, 533, 534, 536, 537, 539, 540, 542, 543,
                  545, 546, 548, 549, 551, 552, 554, 555, 557, 558, 560, 561,
                  563, 564, 566, 567, 569, 570, 572, 573, 575, 576, 578, 579,
                  581, 582, 584, 585, 587, 588, 590, 591, 593, 594, 596, 597,
                  599, 600, 602, 603, 605, 606, 608, 609, 611, 612, 614, 615,
                  617, 618, 620, 621, 623, 624, 626, 627, 629, 630, 632, 633,
                  635, 636, 638, 639, 641, 642, 644, 645, 647, 648, 650, 651,
                  653, 654, 656, 657, 659, 660, 662, 663, 665, 666, 668, 669,
                  671, 672, 674, 675, 677, 678, 680, 681, 683, 684, 686, 687,
                  689, 690, 692, 693, 695, 696, 698, 699, 701, 702, 704, 705,
                  707, 708, 710, 711, 713, 714, 716, 717, 719, 720, 722, 723,
                  725, 726, 728, 729, 731, 732, 734, 735, 737, 738, 740, 741,
                  743, 744, 746, 747, 749, 750, 752, 753, 755, 756

molecular fragmentation (1/2 indicates fragments):
111222222222222222222222222222222222222222222222222222222222222222222222
222222222222222222222222222222222222222222222222222222222222222222222222
222222222222222222222222222222222222222222222222222222222222222222222222
222222222222222222222222222222222222222222222222222222222222222222222222
222222222222222222222222222222222222222222222222222222222222222222222222
222222222222222222222222222222222222222222222222222222222222222222222222
222222222222222222222222222222222222222222222222222222222222222222222222
222222222222222222222222222222222222222222222222222222222222222222222222
222222222222222222222222222222222222222222222222222222222222222222222222
222222222222222222222222222222222222222222222222222222222222222222222222
222222222222222222222222222222222222
# atoms in fragment 1/2:     3   753
 fragment masses (1/2) :       18.02     4521.84
CMA distance (Bohr)    :  15.331
constraining FC (au)   :  0.0500

           -------------------------------------------------
          |                 G F N 2 - x T B                 |
           -------------------------------------------------

        Reference                      10.1021/acs.jctc.8b01176
      * Hamiltonian:
        H0-scaling (s, p, d)           1.850000    2.230000    2.230000
        zeta-weighting                 0.500000
      * Dispersion:
        s8                             2.700000
        a1                             0.520000
        a2                             5.000000
        s9                             5.000000
      * Repulsion:
        kExp                           1.500000    1.000000
        rExp                           1.000000
      * Coulomb:
        alpha                          2.000000
        third order                    shell-resolved
        anisotropic                    true
        a3                             3.000000
        a5                             4.000000
        cn-shift                       1.200000
        cn-exp                         4.000000
        max-rad                        5.000000


          ...................................................
          :                      SETUP                      :
          :.................................................:
          :  # basis functions                1512          :
          :  # atomic orbitals                1512          :
          :  # shells                         1008          :
          :  # electrons                      2016          :
          :  max. iterations                   250          :
          :  Hamiltonian                  GFN2-xTB          :
          :  restarted?                      false          :
          :  GBSA solvation                  false          :
          :  PC potential                    false          :
          :  electronic temp.          300.0000000     K    :
          :  accuracy                    1.0000000          :
          :  -> integral cutoff          0.2500000E+02      :
          :  -> integral neglect         0.1000000E-07      :
          :  -> SCF convergence          0.1000000E-05 Eh   :
          :  -> wf. convergence          0.1000000E-03 e    :
          :  Broyden damping             0.4000000          :
          ...................................................

 iter      E             dE          RMSdq      gap      omega  full diag
   1  -1291.0140266 -0.129101E+04  0.406E+00    8.55       0.0  T
   2  -1291.0833555 -0.693289E-01  0.241E+00    8.38       1.0  T
   3  -1291.1137957 -0.304402E-01  0.207E-01    7.72       1.0  T
   4  -1291.1187101 -0.491439E-02  0.449E-02    7.90       1.0  T
   5  -1291.1187827 -0.726540E-04  0.305E-02    7.88       1.0  T
   6  -1291.1188207 -0.379614E-04  0.410E-03    7.90       1.0  T
   7  -1291.1188229 -0.216789E-05  0.790E-04    7.90       4.6  T
   8  -1291.1188229 -0.362043E-07  0.413E-04    7.90       8.8  T
   9  -1291.1188229 -0.167074E-07  0.614E-05    7.90      59.2  T

   *** convergence criteria satisfied after 9 iterations ***

         #    Occupation            Energy/Eh            Energy/eV
      -------------------------------------------------------------
         1        2.0000           -0.6960448             -18.9403
       ...           ...                  ...                  ...
      1002        2.0000           -0.4110382             -11.1849
      1003        2.0000           -0.4092317             -11.1358
      1004        2.0000           -0.4077973             -11.0967
      1005        2.0000           -0.4076572             -11.0929
      1006        2.0000           -0.4074506             -11.0873
      1007        2.0000           -0.4068852             -11.0719
      1008        2.0000           -0.3995480             -10.8723 (HOMO)
      1009                         -0.1093475              -2.9755 (LUMO)
      1010                         -0.0933471              -2.5401
      1011                         -0.0857571              -2.3336
      1012                         -0.0814931              -2.2175
      1013                         -0.0761202              -2.0713
       ...                                ...                  ...
      1512                          0.4310963              11.7307
      -------------------------------------------------------------
                  HL-Gap            0.2902005 Eh            7.8968 eV
             Fermi-level           -0.2544477 Eh           -6.9239 eV
 
 localization/xTB-IFF output generation
 averaging CT terms over            6  occ. levels
 averaging CT terms over            1  virt. levels
 dipole moment from electron density (au)
     X       Y       Z   
   7.9176  -0.9791   2.9267  total (Debye):   21.600
cpu  time for init local    0.85 s
wall time for init local    0.44 s
 doing rotations ...
 initialization of trafo matrix to unity

 converged in     17 iterations, threshold :   0.99998169D-06
 doing transformations ...
 lmo centers(Z=2) and atoms on file <lmocent.coord>
 LMO Fii/eV  ncent    charge center   contributions...
    1 LP   *******   0.00  14.67469 -11.62965   5.11661  325O : 26.01   40O : 23.86  454O : 17.35  232O : 15.86   58O : 15.60  160O : 15.39  196O : 15.37  376O : 15.25  457O : 14.88  235O : 14.78  310O : 14.53   25O : 14.02
  679O : 13.85  502O : 13.63  745O : 13.18  319O : 13.08  577O : 12.61  118O : 12.60  301O : 12.39  556O : 12.30  733O : 12.14  367O : 12.07  385O : 11.98  559O : 11.74
  337O : 11.70  676O : 11.24   91O : 11.18  406O : 11.09  217O : 11.07  520O : 10.98  493O : 10.98  340O : 10.39  391O : 10.23  199O : 10.17  184O : 10.08  214O :  9.73
  628O :  9.32  499O :  9.07  670O :  8.96  382O :  8.82  190O :  8.78   64O :  8.69  706O :  8.66  148O :  8.50  664O :  8.49   55O :  8.41  658O :  8.36  622O :  8.33
  478O :  8.29  547O :  8.11  673O :  8.07  535O :  7.80  208O :  7.77  112O :  7.77   85O :  7.72  511O :  7.51  451O :  7.46   88O :  7.12  490O :  7.08  298O :  7.02
  328O :  6.92  643O :  6.89  271O :  6.86  121O :  6.83  742O :  6.67   79O :  6.63  646O :  6.56  640O :  6.53  655O :  6.52  400O :  6.51  283O :  6.46    1O :  6.38
  259O :  6.30  619O :  6.23  106O :  6.20  751O :  6.16  346O :  6.07  529O :  6.03    7O :  5.74  475O :  5.65   46O :  5.63  415O :  5.59  124O :  5.51  211O :  5.50
  175O :  5.45  262O :  5.43  334O :  5.40  139O :  5.39  448O :  5.33  442O :  5.00  544O :  4.94  712O :  4.90  181O :  4.85  463O :  4.81  481O :  4.80  550O :  4.76
  256O :  4.67   52O :  4.60  145O :  4.56  166O :  4.55  424O :  4.54  721O :  4.53  295O :  4.52  289O :  4.51  226O :  4.49   28O :  4.48  202O :  4.45  601O :  4.45
  538O :  4.34  598O :  4.21  616O :  4.20  703O :  4.20   61O :  4.16  223O :  4.11  364O :  4.09  514O :  3.99  634O :  3.95  280O :  3.91  241O :  3.85  724O :  3.83
  394O :  3.80  343O :  3.75  379O :  3.64  517O :  3.59  430O :  3.59  625O :  3.56    4O :  3.56  565O :  3.56  178O :  3.48  373O :  3.48  523O :  3.46  553O :  3.45
  661O :  3.43  397O :  3.42   67O :  3.39  580O :  3.38  103O :  3.36  754O :  3.31  187O :  3.30  571O :  3.27  136O :  3.25  595O :  3.18  253O :  3.18  100O :  3.14
  610O :  3.14  460O :  3.08  583O :  3.06  637O :  3.05  292O :  2.92  697O :  2.90  220O :  2.87  589O :  2.84  205O :  2.84  331O :  2.81  250O :  2.76  671H :  2.71
  691O :  2.70  748O :  2.67  115O :  2.67  508O :  2.54  268O :  2.52  277O :  2.50  427O :  2.47  718O :  2.45  163O :  2.43  436O :  2.43  244O :  2.37  157O :  2.35
  316O :  2.33  409O :  2.28  709O :  2.24  322O :  2.18  727O :  2.18   10O :  2.16  307O :  2.15  352O :  2.14  532O :  2.12  694O :  2.11  685O :  2.09  247O :  2.08
  439O :  2.05  445O :  2.04  541O :  2.04  649O :  2.03  421O :  2.01  631O :  2.00  487O :  1.98  739O :  1.97  349O :  1.96  127O :  1.96  109O :  1.94  286O :  1.94
  607O :  1.93   76O :  1.92  238O :  1.89  530H :  1.88  652O :  1.86   82O :  1.82  466O :  1.80   97O :  1.75  403O :  1.75  675H :  1.73  169O :  1.71  358O :  1.70
  320H :  1.67  484O :  1.63  526O :  1.62   27H :  1.61  602H :  1.59   49O :  1.56  667O :  1.52  355O :  1.52  172O :  1.48  586O :  1.46  191H :  1.46  715O :  1.46
  505O :  1.42  604O :  1.41  747H :  1.38  302H :  1.34  274O :  1.33  412O :  1.33   41H :  1.31  234H :  1.29  472O :  1.29  203H :  1.27   31O :  1.27  299H :  1.24
   94O :  1.23  378H :  1.20  318H :  1.16  682O :  1.16  681H :  1.16   19O :  1.15  613O :  1.14  736O :  1.13  122H :  1.12  545H :  1.12  311H :  1.12  444H :  1.10
  117H :  1.09  433O :  1.08   13O :  1.07  713H :  1.07  418O :  1.05   43O :  1.01  645H :  1.01  469O :  0.99  496O :  0.99  130O :  0.98  680H :  0.98  578H :  0.98
  641H :  0.97  229O :  0.96  154O :  0.96  657H :  0.92  443H :  0.91  568O :  0.90  387H :  0.89  455H :  0.88   37O :  0.88  228H :  0.88   73O :  0.87  281H :  0.87
  300H :  0.87  150H :  0.86  482H :  0.85  574O :  0.83  630H :  0.83  492H :  0.82  342H :  0.80  167H :  0.80  552H :  0.78  699H :  0.76  746H :  0.76  101H :  0.76
  730O :  0.75  285H :  0.74  636H :  0.73  131H :  0.73  348H :  0.73   22O :  0.71  562O :  0.71  388O :  0.71   84H :  0.71  151O :  0.70  592O :  0.69  500H :  0.69
   70O :  0.68  193O :  0.68  599H :  0.68  560H :  0.68  579H :  0.67  129H :  0.66  432H :  0.66  587H :  0.65  576H :  0.65  557H :  0.64  700O :  0.64  728H :  0.64
  435H :  0.64  688O :  0.63  596H :  0.60  263H :  0.58  473H :  0.58   16O :  0.58  323H :  0.58  408H :  0.57  521H :  0.57   32H :  0.57  623H :  0.56   34O :  0.55
  425H :  0.55   42H :  0.55  503H :  0.54  548H :  0.54  536H :  0.53  198H :  0.53  209H :  0.53  648H :  0.52  753H :  0.52  370O :  0.52  374H :  0.50   66H :  0.50
  142O :  0.49  313O :  0.49  740H :  0.49  464H :  0.48  309H :  0.48  704H :  0.48  327H :  0.47  639H :  0.47  362H :  0.46  284H :  0.45  743H :  0.44  197H :  0.44
   86H :  0.43  537H :  0.42  291H :  0.42  629H :  0.41  329H :  0.41  696H :  0.40  399H :  0.40  133O :  0.40    6H :  0.40  176H :  0.40  525H :  0.39  624H :  0.39
  447H :  0.39  402H :  0.38  527H :  0.38  338H :  0.36  218H :  0.36  618H :  0.35  564H :  0.35    8H :  0.35  104H :  0.35  304O :  0.35  647H :  0.34  140H :  0.34
  663H :  0.34  297H :  0.33  570H :  0.32  155H :  0.32  429H :  0.32  216H :  0.32  477H :  0.32  453H :  0.31  438H :  0.31  392H :  0.30  288H :  0.30  395H :  0.30
  361O :  0.30  437H :  0.30  737H :  0.29  368H :  0.29  231H :  0.29  605H :  0.29  246H :  0.29  488H :  0.29  549H :  0.29  452H :  0.29  489H :  0.28   99H :  0.28
  179H :  0.28  420H :  0.28  110H :  0.27  693H :  0.27   74H :  0.27   63H :  0.27  120H :  0.26  315H :  0.26  365H :  0.25  726H :  0.25  705H :  0.24  627H :  0.24
  626H :  0.24  719H :  0.24    9H :  0.24  701H :  0.24  662H :  0.23   87H :  0.23  290H :  0.23  585H :  0.23  225H :  0.23    5H :  0.23  177H :  0.22  531H :  0.22
  413H :  0.22  227H :  0.22  504H :  0.22   50H :  0.21  137H :  0.21  153H :  0.21  185H :  0.21  108H :  0.20  332H :  0.20  456H :  0.20  222H :  0.19  476H :  0.19
  567H :  0.19  255H :  0.19  467H :  0.19  620H :  0.18  165H :  0.18  366H :  0.18   26H :  0.18  518H :  0.18  717H :  0.18  126H :  0.18  708H :  0.18  265O :  0.17
   12H :  0.17  396H :  0.17  555H :  0.17  321H :  0.17  201H :  0.17  192H :  0.17  633H :  0.17  590H :  0.17  534H :  0.16  584H :  0.16  144H :  0.16  486H :  0.16
  465H :  0.16  410H :  0.16  582H :  0.16   35H :  0.16   90H :  0.16  723H :  0.15  141H :  0.15   23H :  0.15  573H :  0.15  711H :  0.15  344H :  0.15    2H :  0.15
  333H :  0.15  423H :  0.15  386H :  0.14  158H :  0.14  239H :  0.14  260H :  0.14  621H :  0.14  393H :  0.14  146H :  0.14  116H :  0.14  249H :  0.14  206H :  0.13
   17H :  0.13  375H :  0.13  147H :  0.13  252H :  0.13   45H :  0.13  215H :  0.13   72H :  0.13  341H :  0.13  287H :  0.12  459H :  0.12  354H :  0.12   69H :  0.12
  350H :  0.12  183H :  0.12  248H :  0.12  279H :  0.12  380H :  0.12  269H :  0.12  261H :  0.12   83H :  0.11  716H :  0.11  689H :  0.11  659H :  0.11  554H :  0.11
  656H :  0.11  324H :  0.10  113H :  0.10  312H :  0.10   53H :  0.10  491H :  0.10  426H :  0.10  494H :  0.10   89H :  0.10    3H :  0.09   36H :  0.09  383H :  0.09
   60H :  0.09  741H :  0.09  180H :  0.09  237H :  0.09  233H :  0.09   15H :  0.09  200H :  0.09  257H :  0.09  644H :  0.09  744H :  0.09  276H :  0.09  314H :  0.09
  603H :  0.09  749H :  0.09  720H :  0.08  506H :  0.08  597H :  0.08  756H :  0.08  755H :  0.08   78H :  0.08  119H :  0.08  674H :  0.08   11H :  0.08  695H :  0.08
  524H :  0.07   24H :  0.07  363H :  0.07  635H :  0.07  471H :  0.07  591H :  0.07  317H :  0.07   68H :  0.07  513H :  0.07
    2 LP   *******   0.00 -14.93911   9.46340   4.85854  325O : 25.50   40O : 18.27  454O : 15.51  232O : 14.18   58O : 13.92  160O : 13.76  196O : 13.75  376O : 13.64  457O : 13.30  235O : 13.21  310O : 12.98   25O : 12.53
  679O : 12.24  502O : 12.19  745O : 11.78  319O : 11.69  577O : 11.27  118O : 11.26  301O : 11.08  556O : 11.00  733O : 10.85  367O : 10.79  385O : 10.70  559O : 10.50
  337O : 10.47  676O : 10.05   91O : 10.00  217O :  9.91  406O :  9.91  520O :  9.82  493O :  9.81  340O :  9.29  391O :  9.14  199O :  9.09  184O :  9.01  214O :  8.70
  628O :  8.33  499O :  8.11  670O :  8.05  382O :  7.88  190O :  7.85   64O :  7.76  706O :  7.74  148O :  7.60  664O :  7.59   55O :  7.51  658O :  7.47  622O :  7.44
  478O :  7.41  673O :  7.21  535O :  6.96  208O :  6.95  112O :  6.94   85O :  6.90  547O :  6.76  511O :  6.73  451O :  6.66   88O :  6.36  490O :  6.33  298O :  6.26
  328O :  6.18  643O :  6.16  271O :  6.13  121O :  6.10  742O :  5.96   79O :  5.92  646O :  5.87  640O :  5.84  655O :  5.83  400O :  5.82  283O :  5.78    1O :  5.70
  259O :  5.63  619O :  5.56  106O :  5.54  751O :  5.50  346O :  5.43  529O :  5.41    7O :  5.14  475O :  5.05   46O :  5.03  415O :  4.99  124O :  4.93  211O :  4.92
  175O :  4.87  262O :  4.85  334O :  4.83  139O :  4.82  448O :  4.76  442O :  4.47  544O :  4.42  712O :  4.38  181O :  4.33  481O :  4.33  463O :  4.30  550O :  4.26
  256O :  4.17   52O :  4.11  166O :  4.07  145O :  4.07  424O :  4.05  721O :  4.05  295O :  4.04  289O :  4.03  226O :  4.02   28O :  3.99  202O :  3.98  601O :  3.98
  538O :  3.88  598O :  3.76  616O :  3.75  703O :  3.75   61O :  3.72  223O :  3.68  364O :  3.65  514O :  3.56  280O :  3.49  634O :  3.49  241O :  3.44  724O :  3.42
  394O :  3.40  343O :  3.35  517O :  3.32  379O :  3.26  430O :  3.21  625O :  3.19    4O :  3.18  565O :  3.18  373O :  3.11  178O :  3.11  523O :  3.09  553O :  3.09
  661O :  3.07  397O :  3.05   67O :  3.03  580O :  3.02  103O :  3.00  754O :  2.95  187O :  2.95  571O :  2.93  136O :  2.91  253O :  2.85  595O :  2.85  100O :  2.81
  610O :  2.80  460O :  2.75  583O :  2.73  637O :  2.73  292O :  2.60  697O :  2.59  220O :  2.57  589O :  2.54  205O :  2.54  331O :  2.51  250O :  2.47  671H :  2.44
  691O :  2.41  115O :  2.41  748O :  2.39  508O :  2.27  268O :  2.24  277O :  2.23  427O :  2.20  316O :  2.20  718O :  2.19  436O :  2.17  163O :  2.17  244O :  2.12
  157O :  2.10  409O :  2.04  709O :  2.00  322O :  1.94  727O :  1.94   10O :  1.93  307O :  1.92  352O :  1.91  532O :  1.90  694O :  1.88  685O :  1.86  247O :  1.86
  439O :  1.84  445O :  1.83  541O :  1.82  649O :  1.81  421O :  1.80  631O :  1.79  487O :  1.77  739O :  1.76  349O :  1.75  127O :  1.75  286O :  1.74  109O :  1.73
  607O :  1.73   76O :  1.72  238O :  1.69  530H :  1.68  652O :  1.66   82O :  1.63  466O :  1.61   97O :  1.56  403O :  1.56  675H :  1.54  358O :  1.52  320H :  1.50
  169O :  1.48  526O :  1.46  484O :  1.45   27H :  1.44  602H :  1.43   49O :  1.40  172O :  1.38  667O :  1.36  355O :  1.36   41H :  1.31  586O :  1.31  191H :  1.31
  505O :  1.27  604O :  1.26  747H :  1.23  715O :  1.23  302H :  1.19  274O :  1.19  412O :  1.19  234H :  1.16  472O :  1.15  203H :  1.14  318H :  1.13   31O :  1.12
  299H :  1.11   94O :  1.10  378H :  1.07  682O :  1.04   19O :  1.03  613O :  1.02  117H :  1.01  736O :  1.01  681H :  1.00  122H :  1.00  545H :  1.00  311H :  1.00
  444H :  0.98  433O :  0.97   13O :  0.96  713H :  0.95  418O :  0.94  680H :  0.93   43O :  0.91  645H :  0.90  469O :  0.89  496O :  0.88  130O :  0.88  578H :  0.87
  641H :  0.86  229O :  0.86  154O :  0.86  657H :  0.83  443H :  0.81  568O :  0.81  387H :  0.80  455H :  0.79   37O :  0.79  228H :  0.78  281H :  0.78  300H :  0.78
  150H :  0.77   73O :  0.76  482H :  0.76  574O :  0.74  630H :  0.74  492H :  0.73  342H :  0.71  167H :  0.71  552H :  0.70  699H :  0.68  746H :  0.68  101H :  0.68
  730O :  0.67  285H :  0.66  636H :  0.65  348H :  0.65  131H :  0.65   22O :  0.64  562O :  0.64   84H :  0.63  388O :  0.63  151O :  0.62  592O :  0.62  500H :  0.62
   70O :  0.61  193O :  0.61  599H :  0.61  560H :  0.61  579H :  0.60  129H :  0.59   42H :  0.59  432H :  0.59  587H :  0.58  576H :  0.58  557H :  0.58  700O :  0.57
  728H :  0.57  435H :  0.57  688O :  0.57  596H :  0.54  263H :  0.52  473H :  0.52   16O :  0.52  323H :  0.51  408H :  0.51   32H :  0.51  521H :  0.51  623H :  0.50
  425H :  0.49  503H :  0.49  536H :  0.48   34O :  0.48  198H :  0.47  209H :  0.47  753H :  0.47  648H :  0.47  370O :  0.47  374H :  0.44   66H :  0.44  142O :  0.44
  740H :  0.43  313O :  0.43  464H :  0.43  309H :  0.43  704H :  0.43  639H :  0.42  362H :  0.41  284H :  0.40  743H :  0.39  197H :  0.39   86H :  0.39  537H :  0.38
  291H :  0.38  327H :  0.37  629H :  0.37  329H :  0.37  696H :  0.36  133O :  0.36    6H :  0.36  399H :  0.36  176H :  0.36  525H :  0.35  624H :  0.35  447H :  0.34
  527H :  0.34  402H :  0.34  548H :  0.33  338H :  0.33  218H :  0.32  618H :  0.32  564H :  0.31    8H :  0.31  104H :  0.31  304O :  0.31  647H :  0.31  140H :  0.31
  663H :  0.30  297H :  0.29  570H :  0.29  155H :  0.29  429H :  0.29  216H :  0.29  477H :  0.28  453H :  0.28  438H :  0.28  392H :  0.27  288H :  0.27  395H :  0.27
  361O :  0.26  437H :  0.26  737H :  0.26  368H :  0.26  231H :  0.26  605H :  0.26  246H :  0.26  488H :  0.26  452H :  0.25  549H :  0.25  489H :  0.25   99H :  0.25
  179H :  0.25  420H :  0.25  693H :  0.24  110H :  0.24   63H :  0.24   74H :  0.23  120H :  0.23  315H :  0.23  365H :  0.23  726H :  0.22  705H :  0.22  627H :  0.21
  626H :  0.21  719H :  0.21    9H :  0.21  701H :  0.21  662H :  0.21   87H :  0.21  225H :  0.21  585H :  0.21  290H :  0.21    5H :  0.20  177H :  0.20  413H :  0.20
  227H :  0.20  504H :  0.20  531H :  0.20   50H :  0.19  137H :  0.19  153H :  0.18  185H :  0.18  108H :  0.18  332H :  0.18  456H :  0.18  222H :  0.17  518H :  0.17
  476H :  0.17  255H :  0.17  567H :  0.17  467H :  0.17  620H :  0.16  165H :  0.16  366H :  0.16   26H :  0.16  126H :  0.16  708H :  0.16  265O :  0.15   12H :  0.15
  396H :  0.15  555H :  0.15  321H :  0.15  201H :  0.15  192H :  0.15  633H :  0.15  590H :  0.15  534H :  0.15   35H :  0.15  584H :  0.14  144H :  0.14  486H :  0.14
  465H :  0.14  582H :  0.14   90H :  0.14  723H :  0.14  141H :  0.14   23H :  0.13  573H :  0.13  711H :  0.13  344H :  0.13    2H :  0.13  333H :  0.13  423H :  0.13
  386H :  0.13  158H :  0.13  239H :  0.13  260H :  0.13  621H :  0.13  393H :  0.13  146H :  0.13  249H :  0.12  206H :  0.12  116H :  0.12   17H :  0.12  375H :  0.12
  147H :  0.12  410H :  0.12  252H :  0.12   45H :  0.12  215H :  0.11   72H :  0.11  341H :  0.11  287H :  0.11  459H :  0.11  354H :  0.11   69H :  0.11  350H :  0.11
  183H :  0.11  248H :  0.11  717H :  0.11  279H :  0.10  380H :  0.10  269H :  0.10  261H :  0.10   83H :  0.10  689H :  0.10  716H :  0.10  659H :  0.10  554H :  0.10
  656H :  0.09  324H :  0.09  113H :  0.09  312H :  0.09   53H :  0.09  491H :  0.09  426H :  0.09  494H :  0.09   36H :  0.09   89H :  0.09    3H :  0.08  383H :  0.08
  741H :  0.08   60H :  0.08  180H :  0.08  237H :  0.08  233H :  0.08   15H :  0.08  200H :  0.08  257H :  0.08  644H :  0.08  744H :  0.08  314H :  0.08  276H :  0.08
  603H :  0.08  749H :  0.08  720H :  0.08  506H :  0.07  597H :  0.07  756H :  0.07   78H :  0.07  755H :  0.07
    3 LP   *******   0.00   5.82370 -46.81999   5.59606  325O : 20.68   40O : 16.25  235O : 14.08  454O : 13.65  232O : 12.60   58O : 12.38  160O : 12.23  196O : 12.22  376O : 12.12  457O : 11.80  310O : 11.54   25O : 11.14
  679O : 10.88  502O : 10.83  745O : 10.47  319O : 10.39  577O : 10.02  118O : 10.01  301O :  9.85  556O :  9.78  733O :  9.64  367O :  9.59  385O :  9.51  559O :  9.33
  337O :  9.31  676O :  8.93   91O :  8.89  217O :  8.81  406O :  8.81  520O :  8.78  493O :  8.72  340O :  8.26  391O :  8.13  199O :  8.08  184O :  8.01  214O :  7.73
  628O :  7.41  499O :  7.21  670O :  7.13  382O :  7.01  190O :  6.98   64O :  6.90  706O :  6.88  148O :  6.75  664O :  6.75  658O :  6.64  622O :  6.62   55O :  6.60
  478O :  6.59  547O :  6.44  673O :  6.41  535O :  6.19  208O :  6.18  112O :  6.17   85O :  6.14  511O :  5.97  451O :  5.92   88O :  5.66  490O :  5.62  298O :  5.57
  328O :  5.50  643O :  5.48  271O :  5.45  121O :  5.43  742O :  5.30   79O :  5.27  646O :  5.21  640O :  5.21  655O :  5.18  400O :  5.17  283O :  5.13    1O :  5.07
  259O :  5.00  619O :  4.94  106O :  4.92  751O :  4.89  346O :  4.83  529O :  4.81    7O :  4.57  475O :  4.49   46O :  4.48  415O :  4.44  124O :  4.38  211O :  4.37
  175O :  4.33  262O :  4.31  334O :  4.29  139O :  4.28  448O :  4.24  442O :  3.98  544O :  3.93  712O :  3.89  181O :  3.85  481O :  3.84  463O :  3.82  550O :  3.79
  256O :  3.71   52O :  3.67  145O :  3.62  166O :  3.62  424O :  3.60  721O :  3.60  295O :  3.59  289O :  3.59  226O :  3.57   28O :  3.55  601O :  3.53  202O :  3.47
  538O :  3.45  598O :  3.34  616O :  3.34  703O :  3.33   61O :  3.31  223O :  3.27  364O :  3.25  514O :  3.17  634O :  3.14  280O :  3.11  241O :  3.06  724O :  3.04
  394O :  3.02  343O :  2.97  379O :  2.89  430O :  2.86  517O :  2.85  625O :  2.83    4O :  2.83  565O :  2.83  373O :  2.77  178O :  2.77  523O :  2.75  553O :  2.74
  661O :  2.73  397O :  2.72  580O :  2.69   67O :  2.69  103O :  2.67  754O :  2.63  187O :  2.62  571O :  2.60  136O :  2.59  253O :  2.53  595O :  2.53  100O :  2.50
  610O :  2.49  460O :  2.44  583O :  2.43  637O :  2.43  292O :  2.31  697O :  2.30  220O :  2.29  589O :  2.26  205O :  2.25  331O :  2.24  250O :  2.19  671H :  2.15
  115O :  2.14  691O :  2.14  748O :  2.12  508O :  2.02  268O :  1.99  277O :  1.98  427O :  1.96  718O :  1.95  163O :  1.93  436O :  1.93  244O :  1.88  157O :  1.86
  316O :  1.85  409O :  1.81  709O :  1.78  322O :  1.73  727O :  1.73   10O :  1.71  307O :  1.71  352O :  1.70  532O :  1.69  694O :  1.67  247O :  1.66  685O :  1.64
  439O :  1.63  445O :  1.62  541O :  1.62  649O :  1.61  421O :  1.60  631O :  1.59  487O :  1.57  739O :  1.57  349O :  1.56  127O :  1.56  109O :  1.54  607O :  1.54
   76O :  1.52  238O :  1.50  530H :  1.50  652O :  1.48   82O :  1.45  466O :  1.43  286O :  1.43   97O :  1.39  403O :  1.39  675H :  1.37  358O :  1.35  320H :  1.33
  169O :  1.32  526O :  1.28   27H :  1.28  484O :  1.27  602H :  1.27   49O :  1.24  172O :  1.23  667O :  1.21  355O :  1.21   41H :  1.17  586O :  1.16  191H :  1.16
  505O :  1.13  604O :  1.12  747H :  1.09  715O :  1.09  302H :  1.06  274O :  1.06  412O :  1.06  234H :  1.03  472O :  1.02  203H :  1.00   31O :  1.00  299H :  0.99
   94O :  0.96  378H :  0.95  318H :  0.92  682O :  0.92   19O :  0.91  613O :  0.91  117H :  0.90  736O :  0.90  681H :  0.89  122H :  0.89  545H :  0.89  311H :  0.89
  444H :  0.87  433O :  0.86   13O :  0.85  713H :  0.85  418O :  0.84  680H :  0.82   43O :  0.81  645H :  0.80  469O :  0.79  496O :  0.79  130O :  0.78  578H :  0.78
  641H :  0.77  229O :  0.76  154O :  0.76  657H :  0.73  443H :  0.72  568O :  0.72  387H :  0.71   37O :  0.70  455H :  0.70  228H :  0.70  281H :  0.69  300H :  0.69
  150H :  0.68  482H :  0.67   73O :  0.67  574O :  0.66  630H :  0.66  492H :  0.65  342H :  0.64  167H :  0.63  552H :  0.62  699H :  0.61  746H :  0.61  101H :  0.60
  730O :  0.60  285H :  0.59  636H :  0.58  131H :  0.58  348H :  0.58   22O :  0.57  562O :  0.56   84H :  0.56  388O :  0.56  151O :  0.55  592O :  0.55  500H :  0.55
  193O :  0.54   70O :  0.54  599H :  0.54  560H :  0.54  579H :  0.53  129H :  0.53   42H :  0.52  432H :  0.52  587H :  0.52  576H :  0.51  557H :  0.51  700O :  0.51
  435H :  0.51  728H :  0.51  688O :  0.50  596H :  0.48  263H :  0.46   16O :  0.46  473H :  0.46  521H :  0.46  323H :  0.46  408H :  0.46   32H :  0.45  623H :  0.45
  425H :  0.44  503H :  0.43  548H :  0.43  536H :  0.42   34O :  0.42  198H :  0.42  209H :  0.42  753H :  0.42  648H :  0.42  370O :  0.41  374H :  0.40   66H :  0.39
  142O :  0.39  313O :  0.39  740H :  0.39  464H :  0.38  309H :  0.38  704H :  0.38  327H :  0.38  639H :  0.38  362H :  0.37  284H :  0.35  743H :  0.35  197H :  0.35
   86H :  0.34  537H :  0.34  291H :  0.33  629H :  0.33  329H :  0.33  696H :  0.32  399H :  0.32  133O :  0.32    6H :  0.32  176H :  0.32  525H :  0.31  624H :  0.31
  447H :  0.31  402H :  0.30  527H :  0.30  338H :  0.29  218H :  0.29  618H :  0.28    8H :  0.28  564H :  0.28  104H :  0.28  304O :  0.28  647H :  0.27  140H :  0.27
  663H :  0.27  297H :  0.26  570H :  0.26  155H :  0.26  429H :  0.26  216H :  0.25  477H :  0.25  453H :  0.25  438H :  0.25  288H :  0.24  392H :  0.24  395H :  0.24
  361O :  0.24  437H :  0.23  737H :  0.23  368H :  0.23  231H :  0.23  605H :  0.23  246H :  0.23  488H :  0.23  549H :  0.23  452H :  0.23  489H :  0.22   99H :  0.22
  179H :  0.22  420H :  0.22  693H :  0.22  110H :  0.22   63H :  0.21   74H :  0.21  120H :  0.21  315H :  0.20  287H :  0.20  365H :  0.20  726H :  0.20  705H :  0.19
  627H :  0.19   87H :  0.19  626H :  0.19  719H :  0.19    9H :  0.19  701H :  0.19  662H :  0.19  585H :  0.18  290H :  0.18  225H :  0.18    5H :  0.18  177H :  0.18
  413H :  0.18  227H :  0.18  531H :  0.18  504H :  0.18   50H :  0.17  137H :  0.17  153H :  0.16  185H :  0.16  108H :  0.16  332H :  0.16  222H :  0.15  456H :  0.15
  476H :  0.15  255H :  0.15  567H :  0.15  467H :  0.15  620H :  0.15  165H :  0.15  366H :  0.14   26H :  0.14  518H :  0.14  126H :  0.14  708H :  0.14  265O :  0.14
   12H :  0.14  396H :  0.14  555H :  0.14  321H :  0.13  201H :  0.13  192H :  0.13  633H :  0.13  590H :  0.13  534H :  0.13   35H :  0.13  584H :  0.13  144H :  0.13
  465H :  0.13  486H :  0.13  410H :  0.13  582H :  0.13   90H :  0.12  723H :  0.12  141H :  0.12   23H :  0.12  573H :  0.12  711H :  0.12  344H :  0.12    2H :  0.12
  333H :  0.12  423H :  0.12  386H :  0.12  158H :  0.11  239H :  0.11  260H :  0.11  621H :  0.11  393H :  0.11  146H :  0.11  249H :  0.11  206H :  0.11  116H :  0.11
   17H :  0.11  375H :  0.11  147H :  0.11  252H :  0.10   45H :  0.10  215H :  0.10   72H :  0.10   69H :  0.10  341H :  0.10  459H :  0.10  354H :  0.10  350H :  0.10
  183H :  0.10  717H :  0.09  279H :  0.09  248H :  0.09  380H :  0.09  269H :  0.09  261H :  0.09   83H :  0.09  689H :  0.09  716H :  0.09  659H :  0.09  554H :  0.09
  656H :  0.08  324H :  0.08  113H :  0.08  312H :  0.08   53H :  0.08  491H :  0.08  426H :  0.08  494H :  0.08   36H :  0.08   89H :  0.08    3H :  0.08  383H :  0.07
   60H :  0.07  741H :  0.07  180H :  0.07  233H :  0.07   15H :  0.07  200H :  0.07
    4 LP   *******   0.00  38.66798  -0.71479 -26.38617  325O : 19.56   40O : 15.37  376O : 14.89  454O : 13.04  232O : 11.92   58O : 11.71  160O : 11.57  196O : 11.56  457O : 11.18  235O : 11.11  310O : 10.92   25O : 10.53
  679O : 10.29  502O : 10.25  745O :  9.90  319O :  9.83  577O :  9.47  118O :  9.47  301O :  9.32  385O :  9.25  556O :  9.25  733O :  9.12  367O :  9.07  559O :  8.83
  337O :  8.80  676O :  8.45  217O :  8.44   91O :  8.41  406O :  8.33  520O :  8.26  493O :  8.25  340O :  7.81  391O :  7.69  199O :  7.64  184O :  7.58  214O :  7.31
  628O :  7.01  499O :  6.82  670O :  6.74  382O :  6.63  190O :  6.60   64O :  6.53  706O :  6.50  148O :  6.38  664O :  6.38   55O :  6.32  658O :  6.27  622O :  6.26
  478O :  6.23  547O :  6.09  673O :  6.06  535O :  5.85  208O :  5.84  112O :  5.84   85O :  5.80  511O :  5.65  451O :  5.60   88O :  5.35  490O :  5.32  298O :  5.27
  328O :  5.20  643O :  5.18  271O :  5.15  121O :  5.13  742O :  5.01   79O :  4.98  646O :  4.93  640O :  4.91  655O :  4.90  400O :  4.89  283O :  4.86    1O :  4.80
  259O :  4.73  619O :  4.68  106O :  4.66  751O :  4.65  346O :  4.57  529O :  4.55    7O :  4.38  475O :  4.25   46O :  4.23  415O :  4.20  211O :  4.14  175O :  4.10
  262O :  4.08  334O :  4.06  139O :  4.05  448O :  4.01  124O :  3.94  442O :  3.76  544O :  3.71  712O :  3.68  181O :  3.65  481O :  3.64  463O :  3.61  550O :  3.58
  256O :  3.51   52O :  3.46  145O :  3.43  166O :  3.42  424O :  3.41  721O :  3.41  295O :  3.40  289O :  3.38  226O :  3.38   28O :  3.36  202O :  3.35  601O :  3.34
  538O :  3.26  598O :  3.16  703O :  3.16  616O :  3.16   61O :  3.11  223O :  3.09  364O :  3.07  514O :  3.00  634O :  2.97  280O :  2.94  241O :  2.89  724O :  2.88
  394O :  2.86  343O :  2.82  379O :  2.74  517O :  2.70  430O :  2.70  625O :  2.68    4O :  2.68  565O :  2.68  373O :  2.62  178O :  2.62  523O :  2.60  553O :  2.59
  661O :  2.58  397O :  2.57   67O :  2.55  580O :  2.54  103O :  2.53  754O :  2.49  187O :  2.48  571O :  2.46  136O :  2.45  253O :  2.40  595O :  2.39  100O :  2.36
  610O :  2.36  460O :  2.31  583O :  2.30  637O :  2.29  292O :  2.19  697O :  2.18  220O :  2.16  589O :  2.14  205O :  2.13  331O :  2.11  250O :  2.07  671H :  2.04
  691O :  2.03  115O :  2.02  748O :  2.01  508O :  1.91  268O :  1.88  277O :  1.88  427O :  1.85  718O :  1.84  163O :  1.83  436O :  1.82  244O :  1.78  157O :  1.76
  316O :  1.75  409O :  1.71  709O :  1.68  322O :  1.64  727O :  1.64   10O :  1.62  307O :  1.62  352O :  1.61  532O :  1.60  694O :  1.58  685O :  1.57  247O :  1.57
  439O :  1.54  445O :  1.54  541O :  1.53  649O :  1.53  421O :  1.51  631O :  1.50  487O :  1.49  739O :  1.48  349O :  1.47  127O :  1.47  286O :  1.46  109O :  1.46
  607O :  1.45   76O :  1.45  238O :  1.42  530H :  1.42  652O :  1.40   82O :  1.37  466O :  1.36   97O :  1.31  403O :  1.31  675H :  1.30  358O :  1.28  320H :  1.26
  169O :  1.25  484O :  1.22  526O :  1.22   27H :  1.21  602H :  1.20   49O :  1.18  172O :  1.16  667O :  1.14  355O :  1.14   41H :  1.10  586O :  1.10  191H :  1.10
  505O :  1.07  604O :  1.06  747H :  1.03  715O :  1.03  302H :  1.00  274O :  1.00  412O :  1.00  234H :  0.97  472O :  0.97  203H :  0.96   31O :  0.94  299H :  0.93
   94O :  0.92  682O :  0.88  318H :  0.87   19O :  0.86  613O :  0.86  117H :  0.85  736O :  0.85  681H :  0.85  122H :  0.84  545H :  0.84  311H :  0.84  444H :  0.83
  433O :  0.81   13O :  0.81  713H :  0.80  418O :  0.79  378H :  0.79  680H :  0.78   43O :  0.76  645H :  0.76  469O :  0.75  496O :  0.74  130O :  0.74  578H :  0.74
  641H :  0.73  229O :  0.72  154O :  0.72  657H :  0.69  443H :  0.68  568O :  0.68  387H :  0.68  455H :  0.66   37O :  0.66  228H :  0.66  281H :  0.65  300H :  0.65
  150H :  0.65   73O :  0.64  482H :  0.64  630H :  0.62  574O :  0.62  492H :  0.62  342H :  0.60  167H :  0.60  552H :  0.59  699H :  0.57  746H :  0.57  101H :  0.57
  730O :  0.57  285H :  0.56  636H :  0.55  131H :  0.55  348H :  0.55   22O :  0.54  562O :  0.53   84H :  0.53  388O :  0.53  151O :  0.52  592O :  0.52  500H :  0.52
   70O :  0.51  193O :  0.51  599H :  0.51  560H :  0.51  579H :  0.50  129H :  0.50   42H :  0.50  432H :  0.49  587H :  0.49  576H :  0.49  557H :  0.48  700O :  0.48
  728H :  0.48  435H :  0.48  688O :  0.48  596H :  0.45  263H :  0.44  473H :  0.44   16O :  0.44  323H :  0.43  408H :  0.43  521H :  0.43   32H :  0.43  623H :  0.42
  425H :  0.41  503H :  0.41  548H :  0.41  536H :  0.40   34O :  0.40  753H :  0.40  198H :  0.40  209H :  0.39  648H :  0.39  370O :  0.39  374H :  0.37   66H :  0.37
  142O :  0.37  740H :  0.37  313O :  0.37  464H :  0.36  309H :  0.36  704H :  0.36  327H :  0.36  639H :  0.36  362H :  0.35  284H :  0.34  743H :  0.33  197H :  0.33
   86H :  0.32  291H :  0.32  537H :  0.32  629H :  0.31  329H :  0.31  696H :  0.30  399H :  0.30  133O :  0.30    6H :  0.30  176H :  0.30  525H :  0.30  624H :  0.29
  447H :  0.29  402H :  0.29  527H :  0.28  338H :  0.27  218H :  0.27  618H :  0.27  564H :  0.26  104H :  0.26    8H :  0.26  304O :  0.26  647H :  0.26  140H :  0.26
  663H :  0.25  297H :  0.25  570H :  0.24  429H :  0.24  155H :  0.24  216H :  0.24  477H :  0.24  453H :  0.24  438H :  0.23  392H :  0.23  288H :  0.23  395H :  0.22
  361O :  0.22  437H :  0.22  737H :  0.22  368H :  0.22  231H :  0.22  605H :  0.22  246H :  0.22  488H :  0.22  549H :  0.21  452H :  0.21  489H :  0.21   99H :  0.21
  179H :  0.21  420H :  0.21  693H :  0.21  110H :  0.21   74H :  0.20   63H :  0.20  120H :  0.20  315H :  0.19  365H :  0.19  726H :  0.19  705H :  0.18  627H :  0.18
  626H :  0.18  719H :  0.18  701H :  0.18  290H :  0.18  662H :  0.18   87H :  0.17  585H :  0.17  225H :  0.17    5H :  0.17  177H :  0.17  413H :  0.17  227H :  0.17
  531H :  0.17  504H :  0.17   50H :  0.16  137H :  0.16    9H :  0.16  185H :  0.15  153H :  0.15  108H :  0.15  332H :  0.15  456H :  0.15  222H :  0.15  476H :  0.14
  567H :  0.14  467H :  0.14  255H :  0.14  620H :  0.14  165H :  0.14  366H :  0.14   26H :  0.14  518H :  0.14  708H :  0.13  126H :  0.13  265O :  0.13   12H :  0.13
  396H :  0.13  555H :  0.13  321H :  0.13  201H :  0.13  192H :  0.13  633H :  0.13  590H :  0.12  534H :  0.12   35H :  0.12  584H :  0.12  144H :  0.12  486H :  0.12
  465H :  0.12  410H :  0.12  582H :  0.12   90H :  0.12  723H :  0.12  141H :  0.11   23H :  0.11  573H :  0.11  711H :  0.11  344H :  0.11  386H :  0.11    2H :  0.11
  333H :  0.11  423H :  0.11  158H :  0.11  239H :  0.11  260H :  0.11  621H :  0.11  393H :  0.11  146H :  0.11  249H :  0.10  116H :  0.10  206H :  0.10   17H :  0.10
  375H :  0.10  147H :  0.10  252H :  0.10   45H :  0.10   72H :  0.10  215H :  0.10  341H :  0.09  287H :  0.09  459H :  0.09  354H :  0.09   69H :  0.09  350H :  0.09
  183H :  0.09  248H :  0.09  717H :  0.09  279H :  0.09  380H :  0.09  269H :  0.09  261H :  0.09  659H :  0.09   83H :  0.09  689H :  0.08  716H :  0.08  554H :  0.08
  656H :  0.08  324H :  0.08  113H :  0.08  312H :  0.08   53H :  0.08  491H :  0.08  426H :  0.08  494H :  0.07   36H :  0.07   89H :  0.07    3H :  0.07
    5 LP   *******   0.00 -30.67149 -16.64960   7.51990  325O : 18.69   40O : 14.68  196O : 13.24  454O : 12.46  232O : 11.39   58O : 11.19  160O : 11.05  376O : 10.95  457O : 10.68  235O : 10.61  310O : 10.39   25O : 10.06
  679O :  9.83  502O :  9.79  745O :  9.46  319O :  9.39  577O :  9.05  118O :  9.05  301O :  8.90  733O :  8.71  367O :  8.67  385O :  8.60  556O :  8.53  559O :  8.43
  337O :  8.41  676O :  8.07   91O :  8.03  217O :  7.96  406O :  7.96  520O :  7.89  493O :  7.88  340O :  7.46  391O :  7.34  199O :  7.30  184O :  7.24  214O :  6.99
  628O :  6.69  499O :  6.52  670O :  6.44  382O :  6.33  190O :  6.30   64O :  6.24  706O :  6.22  148O :  6.10  664O :  6.10   55O :  6.04  658O :  6.00  622O :  5.98
  478O :  5.95  547O :  5.82  673O :  5.79  535O :  5.60  208O :  5.58  112O :  5.58   85O :  5.55  511O :  5.39  451O :  5.35   88O :  5.11  490O :  5.08  298O :  5.03
  328O :  4.97  643O :  4.95  271O :  4.92  121O :  4.90  742O :  4.79   79O :  4.76  646O :  4.71  640O :  4.69  655O :  4.68  400O :  4.68  283O :  4.64    1O :  4.58
  259O :  4.52  619O :  4.47  106O :  4.45  751O :  4.42  529O :  4.35  346O :  4.19    7O :  4.13  475O :  4.06   46O :  4.04  415O :  4.01  124O :  3.96  211O :  3.95
  175O :  3.91  262O :  3.90  334O :  3.88  139O :  3.87  448O :  3.83  442O :  3.59  544O :  3.55  712O :  3.52  181O :  3.48  463O :  3.45  550O :  3.42  481O :  3.38
  256O :  3.35   52O :  3.31  145O :  3.28  166O :  3.27  424O :  3.26  721O :  3.25  295O :  3.25  289O :  3.24  226O :  3.23   28O :  3.21  202O :  3.20  601O :  3.19
  538O :  3.12  598O :  3.02  616O :  3.01  703O :  3.01   61O :  2.99  223O :  2.96  364O :  2.94  514O :  2.86  634O :  2.84  280O :  2.81  241O :  2.77  724O :  2.75
  394O :  2.73  343O :  2.70  379O :  2.62  430O :  2.58  517O :  2.57  625O :  2.56    4O :  2.56  565O :  2.56  178O :  2.50  373O :  2.50  523O :  2.49  553O :  2.48
  661O :  2.47  397O :  2.46   67O :  2.43  580O :  2.43  103O :  2.41  754O :  2.37  187O :  2.37  571O :  2.35  136O :  2.34  253O :  2.29  595O :  2.29  100O :  2.26
  610O :  2.25  460O :  2.21  583O :  2.20  637O :  2.19  292O :  2.09  697O :  2.08  220O :  2.06  589O :  2.04  205O :  2.04  331O :  2.02  250O :  1.98  671H :  1.94
  691O :  1.94  115O :  1.93  748O :  1.92  508O :  1.82  436O :  1.80  268O :  1.80  277O :  1.79  427O :  1.77  718O :  1.76  163O :  1.74  244O :  1.71  157O :  1.68
  316O :  1.67  409O :  1.64  709O :  1.61  322O :  1.56  727O :  1.56   10O :  1.55  307O :  1.55  352O :  1.54  532O :  1.52  694O :  1.51  685O :  1.50  247O :  1.49
  439O :  1.47  445O :  1.47  541O :  1.46  649O :  1.46  421O :  1.44  631O :  1.44  487O :  1.42  739O :  1.42  349O :  1.41  127O :  1.40  286O :  1.40  109O :  1.39
  607O :  1.39   76O :  1.38  238O :  1.35  530H :  1.35  652O :  1.33   82O :  1.31  466O :  1.29   97O :  1.26  403O :  1.25  675H :  1.24  358O :  1.22  320H :  1.20
  169O :  1.19  484O :  1.17  526O :  1.16   27H :  1.16  602H :  1.15   49O :  1.12  172O :  1.11  355O :  1.09  667O :  1.09   41H :  1.06  586O :  1.05  191H :  1.05
  505O :  1.02  604O :  1.01  412O :  0.99  747H :  0.99  715O :  0.99  302H :  0.96  274O :  0.96  234H :  0.93  472O :  0.93  203H :  0.92   31O :  0.90  299H :  0.89
   94O :  0.88  378H :  0.86  318H :  0.84  682O :  0.83   19O :  0.82  613O :  0.82  736O :  0.81  117H :  0.81  681H :  0.81  122H :  0.80  545H :  0.80  311H :  0.79
  444H :  0.79  433O :  0.78   13O :  0.77  713H :  0.76  418O :  0.76  680H :  0.74   43O :  0.73  645H :  0.72  469O :  0.71  496O :  0.71  130O :  0.71  578H :  0.70
  641H :  0.69  229O :  0.69  154O :  0.69  657H :  0.66  443H :  0.65  568O :  0.65  387H :  0.64  455H :  0.63   37O :  0.63  228H :  0.63  281H :  0.62  300H :  0.62
  150H :  0.62   73O :  0.61  574O :  0.59  630H :  0.59  482H :  0.59  492H :  0.59  342H :  0.57  167H :  0.57  552H :  0.56  699H :  0.55  746H :  0.55  101H :  0.55
  730O :  0.54  636H :  0.53  285H :  0.53  131H :  0.52  348H :  0.51   22O :  0.51  562O :  0.51   84H :  0.51  388O :  0.51  151O :  0.50  592O :  0.50  500H :  0.50
   70O :  0.49  599H :  0.49  193O :  0.49  560H :  0.49  579H :  0.48  129H :  0.48   42H :  0.47  432H :  0.47  587H :  0.47  576H :  0.47  700O :  0.46  728H :  0.46
  435H :  0.46  557H :  0.46  688O :  0.46  596H :  0.43  263H :  0.42  473H :  0.42   16O :  0.42  323H :  0.41  408H :  0.41  521H :  0.41   32H :  0.41  623H :  0.41
  425H :  0.39  548H :  0.39  503H :  0.39   34O :  0.38  536H :  0.38  209H :  0.38  753H :  0.38  648H :  0.38  370O :  0.38  374H :  0.36   66H :  0.36  313O :  0.35
  142O :  0.35  740H :  0.35  464H :  0.35  309H :  0.34  704H :  0.34  327H :  0.34  639H :  0.34  362H :  0.33  284H :  0.32  743H :  0.31  198H :  0.31   86H :  0.31
  537H :  0.30  291H :  0.30  629H :  0.30  329H :  0.29  696H :  0.29  399H :  0.29  133O :  0.29    6H :  0.29  176H :  0.29  525H :  0.28  624H :  0.28  447H :  0.28
  402H :  0.27  527H :  0.27  338H :  0.26  218H :  0.26  618H :  0.25    8H :  0.25  564H :  0.25  104H :  0.25  304O :  0.25  647H :  0.25  140H :  0.25  663H :  0.24
  197H :  0.24  297H :  0.23  570H :  0.23  155H :  0.23  429H :  0.23  438H :  0.23  216H :  0.23  477H :  0.23  453H :  0.23  392H :  0.22  288H :  0.22  361O :  0.22
  395H :  0.21  437H :  0.21  737H :  0.21  368H :  0.21  231H :  0.21  605H :  0.21  246H :  0.21  488H :  0.21  452H :  0.20  489H :  0.20   99H :  0.20  549H :  0.20
  179H :  0.20  420H :  0.20  693H :  0.20  110H :  0.20   63H :  0.19   74H :  0.19  120H :  0.19  315H :  0.18  365H :  0.18  726H :  0.18  705H :  0.17  627H :  0.17
  626H :  0.17  719H :  0.17    9H :  0.17  701H :  0.17  662H :  0.17   87H :  0.17  585H :  0.17  290H :  0.17  225H :  0.17    5H :  0.16  177H :  0.16  227H :  0.16
  531H :  0.16  504H :  0.16   50H :  0.15  137H :  0.15  413H :  0.15  153H :  0.15  185H :  0.15  108H :  0.14  332H :  0.14  456H :  0.14  222H :  0.14  476H :  0.14
  255H :  0.14  567H :  0.13  467H :  0.13  620H :  0.13  165H :  0.13  366H :  0.13   26H :  0.13  518H :  0.13  126H :  0.13  708H :  0.13  265O :  0.12   12H :  0.12
  396H :  0.12  555H :  0.12  321H :  0.12  201H :  0.12  192H :  0.12  633H :  0.12  590H :  0.12  534H :  0.12   35H :  0.12  144H :  0.12  584H :  0.12  486H :  0.11
  465H :  0.11  410H :  0.11  582H :  0.11   90H :  0.11  723H :  0.11  141H :  0.11   23H :  0.11  573H :  0.11  711H :  0.11  344H :  0.11    2H :  0.11  333H :  0.10
  386H :  0.10  423H :  0.10  158H :  0.10  239H :  0.10  260H :  0.10  621H :  0.10  393H :  0.10  146H :  0.10  249H :  0.10  116H :  0.10  206H :  0.10   17H :  0.10
  375H :  0.10  147H :  0.09  252H :  0.09   45H :  0.09  215H :  0.09   72H :  0.09  341H :  0.09  287H :  0.09  459H :  0.09  354H :  0.09   69H :  0.09  350H :  0.09
  183H :  0.09  248H :  0.09  717H :  0.09  279H :  0.08  380H :  0.08  269H :  0.08  261H :  0.08   83H :  0.08  312H :  0.08  689H :  0.08  716H :  0.08  659H :  0.08
  554H :  0.08  656H :  0.08  324H :  0.08  113H :  0.07   53H :  0.07  491H :  0.07  426H :  0.07
    6 LP   *******   0.00 -13.30532  11.72614   3.58239  325O : 19.85   40O : 14.46  454O : 12.28  232O : 11.22   58O : 11.02  160O : 10.89  196O : 10.88  376O : 10.79  457O : 10.52  235O : 10.46  310O : 10.28   25O :  9.91
  679O :  9.68  502O :  9.64  745O :  9.32  319O :  9.25  577O :  8.92  118O :  8.91  301O :  8.77  556O :  8.71  733O :  8.58  367O :  8.54  385O :  8.47  559O :  8.31
  337O :  8.29  676O :  7.95   91O :  7.91  217O :  7.85  406O :  7.84  520O :  7.77  493O :  7.77  340O :  7.35  391O :  7.23  199O :  7.20  184O :  7.13  214O :  6.89
  628O :  6.59  499O :  6.42  670O :  6.33  382O :  6.24  190O :  6.21   64O :  6.15  706O :  6.12  148O :  6.01  664O :  6.01   55O :  5.95  658O :  5.91  622O :  5.89
  478O :  5.87  673O :  5.71  535O :  5.51  208O :  5.50  112O :  5.50   85O :  5.46  547O :  5.37  511O :  5.31  451O :  5.27   88O :  5.04  490O :  5.01  298O :  4.96
  328O :  4.89  643O :  4.87  271O :  4.85  121O :  4.83  742O :  4.72   79O :  4.69  646O :  4.64  640O :  4.62  655O :  4.62  400O :  4.61  283O :  4.57    1O :  4.51
  259O :  4.46  619O :  4.40  106O :  4.38  751O :  4.35  346O :  4.30  529O :  4.28    7O :  4.06  475O :  4.00   46O :  3.98  415O :  3.95  124O :  3.90  211O :  3.89
  175O :  3.86  262O :  3.84  334O :  3.82  139O :  3.81  448O :  3.77  442O :  3.54  544O :  3.50  712O :  3.47  181O :  3.43  481O :  3.43  463O :  3.40  550O :  3.37
  256O :  3.30   52O :  3.26  166O :  3.22  145O :  3.22  424O :  3.21  721O :  3.21  295O :  3.20  289O :  3.19  226O :  3.18   28O :  3.17  202O :  3.15  601O :  3.15
  538O :  3.07  598O :  2.98  616O :  2.97  703O :  2.97   61O :  2.95  223O :  2.91  364O :  2.89  514O :  2.82  280O :  2.77  634O :  2.76  241O :  2.72  724O :  2.71
  394O :  2.69  343O :  2.66  379O :  2.58  430O :  2.54  625O :  2.52  565O :  2.52    4O :  2.52  373O :  2.46  178O :  2.46  523O :  2.45  553O :  2.44  661O :  2.43
  397O :  2.42  517O :  2.41   67O :  2.40  580O :  2.39  103O :  2.38  754O :  2.34  187O :  2.33  571O :  2.32  136O :  2.30  253O :  2.25  595O :  2.25  100O :  2.22
  610O :  2.22  460O :  2.18  583O :  2.16  637O :  2.16  292O :  2.06  697O :  2.05  220O :  2.03  589O :  2.01  205O :  2.01  331O :  1.99  250O :  1.95  671H :  1.92
  691O :  1.91  115O :  1.90  748O :  1.89  508O :  1.79  316O :  1.79  268O :  1.77  277O :  1.77  427O :  1.74  718O :  1.73  163O :  1.72  436O :  1.72  244O :  1.68
  157O :  1.66  409O :  1.63  709O :  1.58  322O :  1.54  727O :  1.54   10O :  1.53  307O :  1.52  352O :  1.51  532O :  1.50  694O :  1.49  685O :  1.47  247O :  1.47
  439O :  1.45  445O :  1.45  541O :  1.44  649O :  1.44  421O :  1.42  631O :  1.41  487O :  1.40  739O :  1.39  349O :  1.39  127O :  1.38  286O :  1.38  109O :  1.37
  607O :  1.37   76O :  1.36  238O :  1.34  530H :  1.33  652O :  1.31   82O :  1.29  466O :  1.28   97O :  1.24  675H :  1.22  403O :  1.21  358O :  1.20  320H :  1.18
  169O :  1.18  484O :  1.15  526O :  1.14   27H :  1.14  602H :  1.13   49O :  1.11  172O :  1.09  667O :  1.08  355O :  1.07  318H :  1.05   41H :  1.04  586O :  1.04
  191H :  1.03  505O :  1.01  604O :  0.99  747H :  0.97  715O :  0.97  302H :  0.95  274O :  0.94  412O :  0.94  234H :  0.91  472O :  0.91  203H :  0.90   31O :  0.88
  299H :  0.88   94O :  0.87  378H :  0.85  682O :  0.82   19O :  0.81  613O :  0.81  736O :  0.80  117H :  0.80  681H :  0.80  122H :  0.79  545H :  0.79  311H :  0.79
  444H :  0.78  433O :  0.77   13O :  0.76  713H :  0.75  418O :  0.75  680H :  0.73   43O :  0.72  645H :  0.71  469O :  0.70  496O :  0.70  130O :  0.70  578H :  0.69
  641H :  0.68  229O :  0.68  154O :  0.68  657H :  0.65  443H :  0.64  568O :  0.64  387H :  0.63  455H :  0.62   37O :  0.62  228H :  0.62  281H :  0.62  300H :  0.61
  150H :  0.61   73O :  0.60  482H :  0.60  574O :  0.59  630H :  0.59  492H :  0.58  342H :  0.57  167H :  0.56  552H :  0.55  699H :  0.54  746H :  0.54  101H :  0.54
  730O :  0.53  285H :  0.52  348H :  0.52  636H :  0.52  131H :  0.52   22O :  0.50  562O :  0.50   84H :  0.50  388O :  0.50  151O :  0.49  592O :  0.49  500H :  0.49
   70O :  0.48  193O :  0.48  599H :  0.48  560H :  0.48  579H :  0.47  129H :  0.47   42H :  0.47  432H :  0.46  587H :  0.46  576H :  0.46  557H :  0.46  700O :  0.45
  728H :  0.45  435H :  0.45  688O :  0.45  596H :  0.43  263H :  0.41  473H :  0.41   16O :  0.41  323H :  0.41  408H :  0.41  521H :  0.40   32H :  0.40  623H :  0.40
  425H :  0.39  503H :  0.38  536H :  0.38   34O :  0.38  327H :  0.38  198H :  0.37  209H :  0.37  753H :  0.37  648H :  0.37  370O :  0.37  374H :  0.35   66H :  0.35
  142O :  0.35  740H :  0.34  313O :  0.34  464H :  0.34  309H :  0.34  704H :  0.34  639H :  0.34  548H :  0.33  362H :  0.33  284H :  0.32  743H :  0.31  197H :  0.31
   86H :  0.31  537H :  0.30  291H :  0.30  629H :  0.29  329H :  0.29  399H :  0.29  696H :  0.29  133O :  0.28    6H :  0.28  176H :  0.28  525H :  0.28  624H :  0.27
  447H :  0.27  402H :  0.27  527H :  0.27  338H :  0.26  218H :  0.26  618H :  0.25    8H :  0.25  104H :  0.25  564H :  0.25  304O :  0.24  647H :  0.24  140H :  0.24
  663H :  0.24  297H :  0.23  570H :  0.23  155H :  0.23  429H :  0.23  216H :  0.23  477H :  0.22  453H :  0.22  438H :  0.22  392H :  0.21  288H :  0.21  395H :  0.21
  361O :  0.21  437H :  0.21  737H :  0.21  368H :  0.21  231H :  0.21  605H :  0.21  246H :  0.21  488H :  0.21  452H :  0.20  489H :  0.20  549H :  0.20   99H :  0.20
  179H :  0.20  420H :  0.19  693H :  0.19  110H :  0.19   63H :  0.19   74H :  0.19  120H :  0.18  315H :  0.18  365H :  0.18  726H :  0.18  705H :  0.17  627H :  0.17
  626H :  0.17  719H :  0.17    9H :  0.17  701H :  0.17  662H :  0.17   87H :  0.16  585H :  0.16  290H :  0.16  225H :  0.16    5H :  0.16  177H :  0.16  413H :  0.16
  227H :  0.16  531H :  0.16  504H :  0.16   50H :  0.15  137H :  0.15  153H :  0.15  185H :  0.15  108H :  0.14  332H :  0.14  456H :  0.14  222H :  0.14  476H :  0.13
  255H :  0.13  567H :  0.13  467H :  0.13  620H :  0.13  165H :  0.13  366H :  0.13   26H :  0.13  410H :  0.13  126H :  0.12  708H :  0.12  265O :  0.12   12H :  0.12
  396H :  0.12  555H :  0.12  518H :  0.12  201H :  0.12  321H :  0.12  192H :  0.12  633H :  0.12  590H :  0.12  534H :  0.12   35H :  0.12  584H :  0.11  144H :  0.11
  486H :  0.11  465H :  0.11  582H :  0.11   90H :  0.11  723H :  0.11  141H :  0.11   23H :  0.11  573H :  0.11  711H :  0.11  344H :  0.10    2H :  0.10  333H :  0.10
  423H :  0.10  386H :  0.10  158H :  0.10  239H :  0.10  260H :  0.10  621H :  0.10  393H :  0.10  146H :  0.10  249H :  0.10  116H :  0.09  206H :  0.09   17H :  0.09
  375H :  0.09  147H :  0.09  252H :  0.09   45H :  0.09  215H :  0.09   72H :  0.09  341H :  0.09  287H :  0.09  459H :  0.09  354H :  0.09   69H :  0.09  350H :  0.09
  183H :  0.08  248H :  0.08  717H :  0.08  279H :  0.08  380H :  0.08  269H :  0.08  261H :  0.08   83H :  0.08  689H :  0.08  716H :  0.08  659H :  0.08  554H :  0.08
  656H :  0.07  324H :  0.07  113H :  0.07  312H :  0.07   53H :  0.07  491H :  0.07  426H :  0.07
    7 LP   *******   0.00  45.24539 -40.27168 -53.54431  325O : 16.88   40O : 13.27  745O : 12.14  454O : 11.26  232O : 10.29   58O : 10.11  160O :  9.98  196O :  9.98  376O :  9.90  457O :  9.65  235O :  9.59  310O :  9.43
   25O :  9.09  679O :  8.88  502O :  8.84  319O :  8.48  577O :  8.18  118O :  8.17  301O :  8.04  556O :  7.98  733O :  7.87  367O :  7.83  385O :  7.77  559O :  7.62
  337O :  7.60  676O :  7.29   91O :  7.26  217O :  7.20  406O :  7.19  520O :  7.13  493O :  7.12  340O :  6.74  391O :  6.63  199O :  6.60  184O :  6.54  214O :  6.31
  628O :  6.05  499O :  5.89  670O :  5.82  382O :  5.72  190O :  5.70   64O :  5.64  706O :  5.61  148O :  5.51  664O :  5.51   55O :  5.45  658O :  5.42  622O :  5.40
  478O :  5.38  547O :  5.26  673O :  5.23  535O :  5.05  208O :  5.05  112O :  5.04   85O :  5.01  511O :  4.87  451O :  4.83   88O :  4.62  490O :  4.59  298O :  4.55
  328O :  4.49  643O :  4.47  271O :  4.45  121O :  4.37  742O :  4.32   79O :  4.30  646O :  4.26  640O :  4.24  655O :  4.23  400O :  4.23  283O :  4.19    1O :  4.14
  259O :  4.09  619O :  4.04  106O :  4.02  751O :  3.99  346O :  3.94  529O :  3.92    7O :  3.73  475O :  3.67   46O :  3.66  415O :  3.62  124O :  3.58  211O :  3.57
  175O :  3.54  262O :  3.52  334O :  3.50  139O :  3.50  448O :  3.46  442O :  3.25  544O :  3.21  712O :  3.18  181O :  3.15  481O :  3.14  463O :  3.12  550O :  3.09
  256O :  3.03   52O :  2.99  145O :  2.96  166O :  2.95  424O :  2.94  721O :  2.94  295O :  2.93  289O :  2.93  226O :  2.92   28O :  2.90  202O :  2.89  601O :  2.89
  538O :  2.82  598O :  2.73  616O :  2.72  703O :  2.72   61O :  2.70  223O :  2.67  364O :  2.65  514O :  2.59  634O :  2.56  280O :  2.54  241O :  2.50  724O :  2.49
  394O :  2.47  343O :  2.44  379O :  2.36  517O :  2.33  430O :  2.33  625O :  2.31  565O :  2.31    4O :  2.31  373O :  2.26  178O :  2.26  523O :  2.24  553O :  2.24
  661O :  2.23  397O :  2.22   67O :  2.20  580O :  2.20  103O :  2.18  571O :  2.17  754O :  2.15  187O :  2.14  136O :  2.11  253O :  2.07  595O :  2.07  100O :  2.04
  610O :  2.03  460O :  2.00  583O :  1.98  637O :  1.98  292O :  1.89  697O :  1.88  220O :  1.87  589O :  1.84  205O :  1.84  331O :  1.83  250O :  1.79  671H :  1.76
  691O :  1.75  115O :  1.75  748O :  1.73  508O :  1.65  268O :  1.62  277O :  1.62  427O :  1.60  718O :  1.59  163O :  1.58  436O :  1.57  244O :  1.54  157O :  1.52
  316O :  1.51  409O :  1.48  709O :  1.45  727O :  1.41  322O :  1.41   10O :  1.40  307O :  1.40  352O :  1.39  532O :  1.38  694O :  1.37  685O :  1.35  247O :  1.35
  439O :  1.33  445O :  1.33  541O :  1.32  649O :  1.32  421O :  1.30  631O :  1.30  487O :  1.28  739O :  1.28  349O :  1.27  127O :  1.27  286O :  1.26  109O :  1.26
  607O :  1.25   76O :  1.25  238O :  1.22  530H :  1.22  652O :  1.21   82O :  1.18  466O :  1.17   97O :  1.14  403O :  1.13  675H :  1.12  358O :  1.10  320H :  1.08
  169O :  1.08  484O :  1.05  526O :  1.05   27H :  1.05  602H :  1.03   49O :  1.02  172O :  1.00  667O :  0.99  355O :  0.99   41H :  0.95  586O :  0.95  191H :  0.95
  505O :  0.92  604O :  0.91  715O :  0.89  302H :  0.87  274O :  0.87  412O :  0.86  234H :  0.84  472O :  0.84  203H :  0.83   31O :  0.81  299H :  0.81  747H :  0.80
   94O :  0.80  378H :  0.78  318H :  0.75  682O :  0.75   19O :  0.74  613O :  0.74  117H :  0.74  736O :  0.74  681H :  0.73  545H :  0.73  311H :  0.72  444H :  0.71
  433O :  0.70   13O :  0.69  713H :  0.69  418O :  0.68  680H :  0.67   43O :  0.66  645H :  0.65  122H :  0.65  469O :  0.64  496O :  0.64  130O :  0.64  578H :  0.63
  641H :  0.63  229O :  0.62  154O :  0.62  657H :  0.60  443H :  0.59  568O :  0.59  387H :  0.58  455H :  0.57  228H :  0.57  281H :  0.56  300H :  0.56   37O :  0.56
  150H :  0.56   73O :  0.55  482H :  0.55  574O :  0.54  630H :  0.54  492H :  0.53  342H :  0.52  167H :  0.52  552H :  0.51  699H :  0.50  101H :  0.49  730O :  0.49
  285H :  0.48  636H :  0.47  131H :  0.47  348H :  0.47   22O :  0.46  562O :  0.46   84H :  0.46  388O :  0.46  151O :  0.45  592O :  0.45  500H :  0.45   70O :  0.44
  193O :  0.44  599H :  0.44  560H :  0.44  579H :  0.43  129H :  0.43   42H :  0.43  432H :  0.43  746H :  0.42  587H :  0.42  576H :  0.42  557H :  0.42  728H :  0.42
  700O :  0.42  435H :  0.41  688O :  0.41  596H :  0.39  263H :  0.38  473H :  0.38   16O :  0.38  323H :  0.37  408H :  0.37  521H :  0.37   32H :  0.37  623H :  0.37
  425H :  0.36  503H :  0.35  548H :  0.35  536H :  0.35   34O :  0.35  198H :  0.34  209H :  0.34  753H :  0.34  648H :  0.34  370O :  0.34  374H :  0.32   66H :  0.32
  142O :  0.32  740H :  0.32  313O :  0.32  464H :  0.31  309H :  0.31  704H :  0.31  327H :  0.31  639H :  0.31  362H :  0.30  284H :  0.29  743H :  0.28  197H :  0.28
   86H :  0.28  537H :  0.27  291H :  0.27  629H :  0.27  329H :  0.27  696H :  0.26  399H :  0.26  133O :  0.26    6H :  0.26  176H :  0.26  525H :  0.26  624H :  0.25
  447H :  0.25  402H :  0.25  527H :  0.24  338H :  0.24  218H :  0.24  618H :  0.23  564H :  0.23    8H :  0.23  104H :  0.23  304O :  0.22  647H :  0.22  140H :  0.22
  663H :  0.22  297H :  0.21  570H :  0.21  155H :  0.21  429H :  0.21  216H :  0.21  477H :  0.21  453H :  0.20  438H :  0.20  392H :  0.20  288H :  0.20  395H :  0.19
  361O :  0.19  437H :  0.19  737H :  0.19  368H :  0.19  231H :  0.19  605H :  0.19  246H :  0.19  488H :  0.19  549H :  0.19  452H :  0.19  489H :  0.18   99H :  0.18
  179H :  0.18  420H :  0.18  693H :  0.18  110H :  0.18   63H :  0.17   74H :  0.17  120H :  0.17  315H :  0.17  365H :  0.16  726H :  0.16  705H :  0.16  627H :  0.16
  626H :  0.15  719H :  0.15    9H :  0.15  701H :  0.15  662H :  0.15   87H :  0.15  290H :  0.15  585H :  0.15  225H :  0.15    5H :  0.15  177H :  0.14  227H :  0.14
  413H :  0.14  531H :  0.14  504H :  0.14   50H :  0.14  137H :  0.14  153H :  0.14  185H :  0.13  108H :  0.13  332H :  0.13  456H :  0.13  222H :  0.13  476H :  0.12
  255H :  0.12  567H :  0.12  467H :  0.12  620H :  0.12  165H :  0.12  366H :  0.12   26H :  0.12  518H :  0.12  126H :  0.11  708H :  0.11  265O :  0.11   12H :  0.11
  396H :  0.11  555H :  0.11  321H :  0.11  201H :  0.11  192H :  0.11  633H :  0.11  590H :  0.11  534H :  0.11   35H :  0.11  584H :  0.10  144H :  0.10  465H :  0.10
  486H :  0.10  410H :  0.10  582H :  0.10   90H :  0.10  723H :  0.10  573H :  0.10  141H :  0.10   23H :  0.10  711H :  0.10  344H :  0.10    2H :  0.10  333H :  0.09
  423H :  0.09  386H :  0.09  158H :  0.09  239H :  0.09  260H :  0.09  621H :  0.09  393H :  0.09  146H :  0.09  249H :  0.09  116H :  0.09  206H :  0.09   17H :  0.09
  375H :  0.09  147H :  0.09  252H :  0.08   45H :  0.08  215H :  0.08   72H :  0.08  341H :  0.08  287H :  0.08  459H :  0.08  354H :  0.08   69H :  0.08  350H :  0.08
  183H :  0.08  248H :  0.08  717H :  0.08  279H :  0.08  261H :  0.08  380H :  0.08  269H :  0.08   83H :  0.07  689H :  0.07  716H :  0.07  659H :  0.07
    8 LP   *******   0.00   3.97945 -48.40050  23.19119  325O : 16.08  454O : 13.01   40O : 12.64  232O :  9.80   58O :  9.63  160O :  9.51  196O :  9.50  376O :  9.43  457O :  9.16  235O :  9.04  310O :  8.98   25O :  8.66
  679O :  8.46  502O :  8.43  745O :  8.14  319O :  8.08  577O :  7.79  118O :  7.79  301O :  7.66  556O :  7.61  733O :  7.50  367O :  7.46  385O :  7.40  559O :  7.26
  337O :  7.24  676O :  6.95   91O :  6.91  217O :  6.86  406O :  6.85  493O :  6.79  520O :  6.77  340O :  6.42  391O :  6.32  199O :  6.29  184O :  6.23  214O :  6.02
  628O :  5.76  499O :  5.60  670O :  5.54  382O :  5.45  190O :  5.42   64O :  5.37  706O :  5.35  148O :  5.25  664O :  5.25   55O :  5.19  658O :  5.17  622O :  5.15
  478O :  5.12  547O :  5.01  673O :  4.99  535O :  4.82  208O :  4.80  112O :  4.80   85O :  4.77  511O :  4.64  451O :  4.61   88O :  4.40  490O :  4.37  298O :  4.33
  328O :  4.28  643O :  4.26  271O :  4.24  121O :  4.22  742O :  4.12   79O :  4.10  646O :  4.06  640O :  4.04  655O :  4.03  400O :  4.03  283O :  4.00    1O :  3.94
  259O :  3.89  619O :  3.85  106O :  3.83  751O :  3.80  346O :  3.76  529O :  3.74    7O :  3.55  475O :  3.49   46O :  3.48  415O :  3.45  124O :  3.41  211O :  3.40
  175O :  3.37  262O :  3.36  334O :  3.34  139O :  3.33  448O :  3.30  442O :  3.09  544O :  3.05  712O :  3.03  181O :  3.00  481O :  2.99  463O :  2.97  550O :  2.94
  256O :  2.89   52O :  2.85  145O :  2.82  166O :  2.81  424O :  2.80  721O :  2.80  295O :  2.79  289O :  2.79  226O :  2.78   28O :  2.76  202O :  2.75  601O :  2.75
  538O :  2.68  598O :  2.60  616O :  2.59  703O :  2.59   61O :  2.57  223O :  2.54  364O :  2.53  514O :  2.46  634O :  2.44  280O :  2.42  241O :  2.38  724O :  2.37
  394O :  2.35  343O :  2.32  379O :  2.25  517O :  2.22  430O :  2.22  625O :  2.20  565O :  2.20    4O :  2.20  373O :  2.15  178O :  2.15  523O :  2.14  553O :  2.13
  661O :  2.12  397O :  2.11   67O :  2.09  580O :  2.09  103O :  2.08  754O :  2.04  187O :  2.04  571O :  2.02  136O :  2.01  253O :  1.97  595O :  1.97  610O :  1.96
  100O :  1.94  460O :  1.90  583O :  1.89  637O :  1.89  292O :  1.80  697O :  1.79  220O :  1.78  589O :  1.76  205O :  1.75  331O :  1.74  250O :  1.71  671H :  1.67
  691O :  1.67  115O :  1.66  748O :  1.65  508O :  1.57  268O :  1.55  277O :  1.54  427O :  1.52  718O :  1.51  436O :  1.50  163O :  1.50  244O :  1.46  157O :  1.45
  316O :  1.44  409O :  1.41  709O :  1.38  322O :  1.34  727O :  1.34   10O :  1.33  307O :  1.33  352O :  1.32  532O :  1.31  694O :  1.30  685O :  1.29  247O :  1.29
  439O :  1.27  445O :  1.26  541O :  1.26  649O :  1.26  421O :  1.24  631O :  1.24  487O :  1.22  739O :  1.22  349O :  1.21  127O :  1.21  286O :  1.20  109O :  1.20
  607O :  1.19   76O :  1.19  238O :  1.17  530H :  1.16  652O :  1.16   82O :  1.13  466O :  1.11   97O :  1.08  403O :  1.08  675H :  1.07  358O :  1.05  320H :  1.03
  169O :  1.03  484O :  1.00  526O :  1.00   27H :  1.00  602H :  0.99   49O :  0.97  172O :  0.96  667O :  0.94  355O :  0.94   41H :  0.91  586O :  0.91  191H :  0.90
  505O :  0.88  604O :  0.87  747H :  0.85  715O :  0.85  302H :  0.83  274O :  0.82  412O :  0.82  234H :  0.80  472O :  0.80  203H :  0.79   31O :  0.77  299H :  0.77
  378H :  0.74  318H :  0.72  682O :  0.72   19O :  0.71  613O :  0.71  117H :  0.70  736O :  0.70  681H :  0.70  122H :  0.69  545H :  0.69  311H :  0.69  444H :  0.68
  433O :  0.67   13O :  0.66  713H :  0.66  418O :  0.65   94O :  0.65  680H :  0.64   43O :  0.63  645H :  0.62  469O :  0.61  496O :  0.61  130O :  0.61  578H :  0.60
  641H :  0.60  229O :  0.59  154O :  0.59  657H :  0.57  443H :  0.56  568O :  0.56  387H :  0.55   37O :  0.54  228H :  0.54  281H :  0.54  300H :  0.54  150H :  0.53
   73O :  0.53  482H :  0.52  574O :  0.51  630H :  0.51  492H :  0.51  342H :  0.49  167H :  0.49  552H :  0.48  699H :  0.47  746H :  0.47  101H :  0.47  730O :  0.47
  285H :  0.46  455H :  0.45  636H :  0.45  131H :  0.45  348H :  0.45   22O :  0.44  562O :  0.44   84H :  0.44  388O :  0.44  151O :  0.43  592O :  0.43  500H :  0.43
   70O :  0.42  193O :  0.42  599H :  0.42  560H :  0.42  579H :  0.41  129H :  0.41   42H :  0.41  432H :  0.41  587H :  0.40  576H :  0.40  557H :  0.40  700O :  0.40
  728H :  0.40  435H :  0.39  688O :  0.39  596H :  0.37  263H :  0.36  473H :  0.36   16O :  0.36  323H :  0.36  408H :  0.35   32H :  0.35  623H :  0.35  521H :  0.34
  425H :  0.34  503H :  0.34  548H :  0.33   34O :  0.33  536H :  0.33  198H :  0.33  209H :  0.32  753H :  0.32  648H :  0.32  370O :  0.32  374H :  0.31   66H :  0.31
  142O :  0.30  740H :  0.30  313O :  0.30  464H :  0.30  309H :  0.30  704H :  0.29  327H :  0.29  639H :  0.29  362H :  0.29  284H :  0.28  743H :  0.27  197H :  0.27
   86H :  0.27  537H :  0.26  291H :  0.26  629H :  0.25  329H :  0.25  696H :  0.25  399H :  0.25  133O :  0.25    6H :  0.25  176H :  0.25  525H :  0.24  624H :  0.24
  447H :  0.24  402H :  0.24  527H :  0.23  338H :  0.23  218H :  0.22  618H :  0.22    8H :  0.22  564H :  0.22  104H :  0.22  304O :  0.21  647H :  0.21  140H :  0.21
  663H :  0.21  297H :  0.20  570H :  0.20  155H :  0.20  429H :  0.20  216H :  0.20  477H :  0.20  453H :  0.19  438H :  0.19  392H :  0.19  288H :  0.19  395H :  0.18
  361O :  0.18  437H :  0.18  737H :  0.18  368H :  0.18  231H :  0.18  605H :  0.18  246H :  0.18  488H :  0.18  549H :  0.18  452H :  0.18  489H :  0.17   99H :  0.17
  179H :  0.17  420H :  0.17  693H :  0.17  110H :  0.17   63H :  0.17   74H :  0.16  120H :  0.16  315H :  0.16  365H :  0.16  726H :  0.15  456H :  0.15  705H :  0.15
  627H :  0.15  626H :  0.15  719H :  0.15    9H :  0.15  701H :  0.15  662H :  0.14   87H :  0.14  585H :  0.14  290H :  0.14  225H :  0.14    5H :  0.14  177H :  0.14
  413H :  0.14  227H :  0.14  531H :  0.14  504H :  0.14   50H :  0.13  137H :  0.13  153H :  0.13  185H :  0.13  108H :  0.12  332H :  0.12  222H :  0.12  476H :  0.12
  255H :  0.12  567H :  0.12  467H :  0.12  620H :  0.11  165H :  0.11  366H :  0.11   26H :  0.11  518H :  0.11  126H :  0.11  708H :  0.11  265O :  0.11   12H :  0.11
  396H :  0.11  555H :  0.11  321H :  0.10  201H :  0.10  192H :  0.10  633H :  0.10  590H :  0.10  534H :  0.10   35H :  0.10  584H :  0.10  144H :  0.10  486H :  0.10
  465H :  0.10  410H :  0.10  582H :  0.10   90H :  0.10  723H :  0.10  141H :  0.09   23H :  0.09  573H :  0.09  711H :  0.09  344H :  0.09    2H :  0.09  333H :  0.09
  423H :  0.09  386H :  0.09  158H :  0.09  239H :  0.09  260H :  0.09  621H :  0.09  393H :  0.09  146H :  0.09  249H :  0.08  116H :  0.08  206H :  0.08   17H :  0.08
  375H :  0.08  147H :  0.08  252H :  0.08   45H :  0.08  215H :  0.08   72H :  0.08  341H :  0.08  287H :  0.08  354H :  0.08  459H :  0.08   69H :  0.08  350H :  0.07
  183H :  0.07  248H :  0.07  717H :  0.07  279H :  0.07  380H :  0.07  269H :  0.07  261H :  0.07   83H :  0.07
    9 LP   *******   0.00  28.88228 -11.97037  24.28674  325O : 15.81   40O : 12.44  232O : 11.83  454O : 10.54   58O :  9.47  196O :  9.34  160O :  9.34  376O :  9.27  457O :  9.04  235O :  8.98  310O :  8.83   25O :  8.52
  679O :  8.32  502O :  8.28  745O :  8.01  319O :  7.95  577O :  7.66  118O :  7.66  301O :  7.53  556O :  7.48  367O :  7.39  733O :  7.37  385O :  7.27  559O :  7.13
  337O :  7.05  676O :  6.83   91O :  6.80  406O :  6.74  217O :  6.74  520O :  6.67  493O :  6.67  340O :  6.32  391O :  6.21  199O :  6.18  184O :  6.12  214O :  5.91
  628O :  5.66  499O :  5.51  670O :  5.45  382O :  5.36  190O :  5.33   64O :  5.28  706O :  5.26  148O :  5.16  664O :  5.16   55O :  5.11  658O :  5.08  622O :  5.06
  478O :  5.04  547O :  4.93  673O :  4.90  535O :  4.73  208O :  4.72  112O :  4.72   85O :  4.69  511O :  4.56  451O :  4.53   88O :  4.32  490O :  4.30  298O :  4.27
  328O :  4.20  643O :  4.19  271O :  4.17  121O :  4.15  742O :  4.05   79O :  4.03  646O :  3.99  640O :  3.97  655O :  3.96  400O :  3.96  283O :  3.93    1O :  3.88
  259O :  3.83  619O :  3.78  106O :  3.76  751O :  3.73  346O :  3.69  529O :  3.68    7O :  3.49  475O :  3.43   46O :  3.42  415O :  3.39  124O :  3.35  211O :  3.34
  175O :  3.31  262O :  3.30  334O :  3.28  139O :  3.27  448O :  3.24  442O :  3.04  544O :  3.00  712O :  2.98  181O :  2.95  481O :  2.94  463O :  2.92  550O :  2.89
  256O :  2.84   52O :  2.80  145O :  2.77  166O :  2.77  424O :  2.76  721O :  2.75  295O :  2.75  289O :  2.74  226O :  2.73  202O :  2.70  601O :  2.70   28O :  2.70
  538O :  2.64  598O :  2.57  616O :  2.55  703O :  2.55   61O :  2.53  223O :  2.50  364O :  2.49  514O :  2.42  634O :  2.40  280O :  2.38  241O :  2.34  724O :  2.33
  394O :  2.31  343O :  2.28  379O :  2.21  517O :  2.18  430O :  2.18  625O :  2.17  565O :  2.17    4O :  2.16  178O :  2.11  373O :  2.11  523O :  2.10  553O :  2.10
  661O :  2.09  397O :  2.08  580O :  2.06   67O :  2.06  103O :  2.04  754O :  2.01  187O :  2.00  571O :  1.99  136O :  1.98  253O :  1.94  595O :  1.93  100O :  1.91
  610O :  1.91  460O :  1.87  583O :  1.86  637O :  1.85  292O :  1.76  697O :  1.76  220O :  1.75  589O :  1.73  205O :  1.72  331O :  1.71  250O :  1.68  671H :  1.65
  691O :  1.64  115O :  1.64  748O :  1.62  508O :  1.55  268O :  1.52  277O :  1.52  427O :  1.50  718O :  1.49  436O :  1.47  163O :  1.46  244O :  1.44  157O :  1.42
  316O :  1.42  409O :  1.39  709O :  1.36  694O :  1.35  322O :  1.32  727O :  1.32   10O :  1.31  307O :  1.31  352O :  1.30  532O :  1.29  685O :  1.27  247O :  1.27
  439O :  1.25  445O :  1.24  541O :  1.24  649O :  1.23  421O :  1.22  631O :  1.21  487O :  1.20  739O :  1.20  349O :  1.19  127O :  1.19  286O :  1.18  109O :  1.18
  607O :  1.17   76O :  1.17  238O :  1.15  530H :  1.14  652O :  1.13   82O :  1.11  466O :  1.10   97O :  1.06  403O :  1.06  675H :  1.05  358O :  1.03  320H :  1.02
  169O :  1.01  484O :  0.99  526O :  0.98   27H :  0.98  602H :  0.97   49O :  0.95  667O :  0.92  355O :  0.92   41H :  0.90  586O :  0.89  191H :  0.89  505O :  0.87
  604O :  0.85  747H :  0.84  172O :  0.83  715O :  0.83  302H :  0.81  274O :  0.81  412O :  0.81  472O :  0.78  203H :  0.77   31O :  0.76  299H :  0.75   94O :  0.75
  378H :  0.73  318H :  0.71  682O :  0.71  234H :  0.70   19O :  0.70  613O :  0.70  117H :  0.69  736O :  0.69  681H :  0.68  122H :  0.68  545H :  0.68  311H :  0.68
  444H :  0.67  433O :  0.66   13O :  0.65  713H :  0.65  418O :  0.64  680H :  0.63   43O :  0.62  645H :  0.61  469O :  0.60  496O :  0.60  130O :  0.60  578H :  0.59
  641H :  0.59  229O :  0.58  154O :  0.58  657H :  0.56  443H :  0.55  568O :  0.55  387H :  0.54  455H :  0.53   37O :  0.53  228H :  0.53  281H :  0.53  300H :  0.53
  150H :  0.52   73O :  0.52  482H :  0.51  574O :  0.50  630H :  0.50  492H :  0.50  342H :  0.49  167H :  0.48  552H :  0.48  699H :  0.46  746H :  0.46  101H :  0.46
  730O :  0.46  285H :  0.45  636H :  0.44  131H :  0.44  348H :  0.44   22O :  0.43  562O :  0.43   84H :  0.43  388O :  0.43  151O :  0.42  592O :  0.42  599H :  0.42
  500H :  0.42   70O :  0.42  193O :  0.41  560H :  0.41  579H :  0.40   42H :  0.40  129H :  0.40  432H :  0.40  587H :  0.40  576H :  0.39  557H :  0.39  700O :  0.39
  728H :  0.39  435H :  0.39  688O :  0.39  596H :  0.37  263H :  0.35  473H :  0.35   16O :  0.35  323H :  0.35  408H :  0.35  521H :  0.35   32H :  0.35  623H :  0.34
  425H :  0.33  503H :  0.33  548H :  0.33  536H :  0.33  198H :  0.32  209H :  0.32  753H :  0.32  648H :  0.32  370O :  0.32   34O :  0.31  374H :  0.30   66H :  0.30
  142O :  0.30  740H :  0.30  313O :  0.30  464H :  0.29  309H :  0.29  704H :  0.29  327H :  0.29  639H :  0.29  362H :  0.28  284H :  0.27  743H :  0.27  197H :  0.27
   86H :  0.26  537H :  0.26  291H :  0.26  629H :  0.25  329H :  0.25  696H :  0.25  399H :  0.24  133O :  0.24    6H :  0.24  176H :  0.24  525H :  0.24  624H :  0.24
  447H :  0.23  402H :  0.23  527H :  0.23  218H :  0.22  338H :  0.22  618H :  0.22  564H :  0.21    8H :  0.21  104H :  0.21  304O :  0.21  647H :  0.21  140H :  0.21
  663H :  0.21  297H :  0.20  155H :  0.20  570H :  0.20  429H :  0.20  216H :  0.19  477H :  0.19  453H :  0.19  438H :  0.19  392H :  0.18  288H :  0.18  368H :  0.18
  395H :  0.18  361O :  0.18  437H :  0.18  737H :  0.18  231H :  0.18  605H :  0.18  246H :  0.18  488H :  0.18  452H :  0.17  549H :  0.17  489H :  0.17   99H :  0.17
  179H :  0.17  420H :  0.17  693H :  0.17  110H :  0.17   63H :  0.16   74H :  0.16  120H :  0.16  315H :  0.16  365H :  0.15  726H :  0.15  705H :  0.15  627H :  0.15
  626H :  0.14  719H :  0.14    9H :  0.14  701H :  0.14  662H :  0.14   87H :  0.14  585H :  0.14  290H :  0.14  225H :  0.14    5H :  0.14  177H :  0.14  531H :  0.13
  413H :  0.13  227H :  0.13  504H :  0.13   50H :  0.13  137H :  0.13  153H :  0.13  185H :  0.12  108H :  0.12  332H :  0.12  456H :  0.12  476H :  0.11  222H :  0.11
  255H :  0.11  467H :  0.11  567H :  0.11  620H :  0.11  366H :  0.11   26H :  0.11  518H :  0.11  165H :  0.11  126H :  0.11  708H :  0.11  265O :  0.11   12H :  0.10
  396H :  0.10  555H :  0.10  321H :  0.10  201H :  0.10  633H :  0.10  590H :  0.10  192H :  0.10  534H :  0.10  584H :  0.10  144H :  0.10   35H :  0.10  486H :  0.10
  465H :  0.10  410H :  0.10  582H :  0.10   90H :  0.09  723H :  0.09  141H :  0.09   23H :  0.09  573H :  0.09  711H :  0.09  344H :  0.09    2H :  0.09  333H :  0.09
  386H :  0.09  423H :  0.09  158H :  0.09  239H :  0.09  260H :  0.09  621H :  0.09  393H :  0.09  146H :  0.09  249H :  0.08  116H :  0.08  206H :  0.08   17H :  0.08
  147H :  0.08  375H :  0.08  252H :  0.08  233H :  0.08   45H :  0.08  215H :  0.08   72H :  0.08  341H :  0.08  287H :  0.07  459H :  0.07  354H :  0.07   69H :  0.07
  350H :  0.07  183H :  0.07  248H :  0.07  717H :  0.07  279H :  0.07  380H :  0.07  269H :  0.07  261H :  0.07
   10 LP   *******   0.00   8.05277 -69.53343   4.88039  325O : 15.81   40O : 12.42  457O : 10.75  454O : 10.53  232O :  9.64   58O :  9.47  160O :  9.35  196O :  9.34  376O :  9.27  235O :  8.98  310O :  8.83   25O :  8.51
  679O :  8.32  502O :  8.28  745O :  8.00  319O :  7.95  577O :  7.66  118O :  7.65  301O :  7.53  556O :  7.48  733O :  7.37  367O :  7.33  385O :  7.27  559O :  7.13
  337O :  7.12  676O :  6.83   91O :  6.79  406O :  6.74  217O :  6.74  493O :  6.67  340O :  6.31  391O :  6.21  520O :  6.18  199O :  6.18  184O :  6.12  214O :  5.91
[...]
   369   1 h    0.887 --   367 o    0.845
   370   8 o    1.847 --   372 h    0.859   371 h    0.793
   371   1 h    0.871 --   370 o    0.793
   372   1 h    0.896 --   370 o    0.859
   373   8 o    1.859 --   374 h    0.859   375 h    0.810
   374   1 h    0.892 --   373 o    0.859
   375   1 h    0.884 --   373 o    0.810
   376   8 o    1.870 --   378 h    0.829   377 h    0.828
   377   1 h    0.876 --   376 o    0.828
   378   1 h    0.874 --   376 o    0.829
   379   8 o    1.871 --   381 h    0.830   380 h    0.807
   380   1 h    0.875 --   379 o    0.807
   381   1 h    0.884 --   379 o    0.830
   382   8 o    1.836 --   384 h    0.864   383 h    0.850
   383   1 h    0.889 --   382 o    0.850
   384   1 h    0.895 --   382 o    0.864
   385   8 o    1.832 --   387 h    0.825   386 h    0.800
   386   1 h    0.871 --   385 o    0.800
   387   1 h    0.888 --   385 o    0.825
   388   8 o    1.850 --   390 h    0.847   389 h    0.832
   389   1 h    0.883 --   388 o    0.832
   390   1 h    0.891 --   388 o    0.847
   391   8 o    1.862 --   393 h    0.865   392 h    0.859
   392   1 h    0.897 --   391 o    0.859
   393   1 h    0.896 --   391 o    0.865
   394   8 o    1.837 --   396 h    0.816   395 h    0.803
   395   1 h    0.878 --   394 o    0.803
   396   1 h    0.889 --   394 o    0.816
   397   8 o    1.849 --   398 h    0.875   399 h    0.822
   398   1 h    0.900 --   397 o    0.875
   399   1 h    0.886 --   397 o    0.822
   400   8 o    1.857 --   402 h    0.862   401 h    0.817
   401   1 h    0.882 --   400 o    0.817
   402   1 h    0.899 --   400 o    0.862
   403   8 o    1.852 --   404 h    0.818   405 h    0.803
   404   1 h    0.875 --   403 o    0.818
   405   1 h    0.884 --   403 o    0.803
   406   8 o    1.832 --   407 h    0.829   408 h    0.808
   407   1 h    0.885 --   406 o    0.829
   408   1 h    0.880 --   406 o    0.808
   409   8 o    1.835 --   410 h    0.887   411 h    0.826
   410   1 h    0.903 --   409 o    0.887
   411   1 h    0.890 --   409 o    0.826
   412   8 o    1.881 --   414 h    0.812   413 h    0.812
   413   1 h    0.891 --   412 o    0.812
   414   1 h    0.877 --   412 o    0.812
   415   8 o    1.840 --   416 h    0.841   417 h    0.781
   416   1 h    0.888 --   415 o    0.841
   417   1 h    0.868 --   415 o    0.781
   418   8 o    1.870 --   419 h    0.876   420 h    0.850
   419   1 h    0.896 --   418 o    0.876
   420   1 h    0.895 --   418 o    0.850
   421   8 o    1.866 --   422 h    0.842   423 h    0.834
   422   1 h    0.891 --   421 o    0.842
   423   1 h    0.894 --   421 o    0.834
   424   8 o    1.860 --   425 h    0.911   426 h    0.814
   425   1 h    0.916 --   424 o    0.911
   426   1 h    0.878 --   424 o    0.814
   427   8 o    1.894 --   429 h    0.869   428 h    0.864
   428   1 h    0.892 --   427 o    0.864
   429   1 h    0.891 --   427 o    0.869
   430   8 o    1.861 --   431 h    0.839   432 h    0.828
   431   1 h    0.890 --   430 o    0.839
   432   1 h    0.885 --   430 o    0.828
   433   8 o    1.862 --   434 h    0.827   435 h    0.819
   434   1 h    0.882 --   433 o    0.827
   435   1 h    0.886 --   433 o    0.819
   436   8 o    1.846 --   437 h    0.829   438 h    0.817
   437   1 h    0.890 --   436 o    0.829
   438   1 h    0.883 --   436 o    0.817
   439   8 o    1.867 --   441 h    0.828   440 h    0.813
   440   1 h    0.877 --   439 o    0.813
   441   1 h    0.889 --   439 o    0.828
   442   8 o    1.856 --   444 h    0.857   443 h    0.847
   443   1 h    0.890 --   442 o    0.847
   444   1 h    0.894 --   442 o    0.857
   445   8 o    1.857 --   447 h    0.904   446 h    0.816
   446   1 h    0.882 --   445 o    0.816
   447   1 h    0.912 --   445 o    0.904
   448   8 o    1.864 --   450 h    0.853   449 h    0.817
   449   1 h    0.882 --   448 o    0.817
   450   1 h    0.891 --   448 o    0.853
   451   8 o    1.854 --   452 h    0.898   453 h    0.797
   452   1 h    0.908 --   451 o    0.898
   453   1 h    0.873 --   451 o    0.797
   454   8 o    1.836 --   455 h    0.872   456 h    0.833
   455   1 h    0.900 --   454 o    0.872
   456   1 h    0.888 --   454 o    0.833
   457   8 o    1.852 --   459 h    0.871   458 h    0.818
   458   1 h    0.881 --   457 o    0.818
   459   1 h    0.898 --   457 o    0.871
   460   8 o    1.831 --   461 h    0.879   462 h    0.863
   461   1 h    0.899 --   460 o    0.879
   462   1 h    0.896 --   460 o    0.863
   463   8 o    1.861 --   464 h    0.852   465 h    0.808
   464   1 h    0.894 --   463 o    0.852
   465   1 h    0.886 --   463 o    0.808
   466   8 o    1.852 --   467 h    0.885   468 h    0.832
   467   1 h    0.901 --   466 o    0.885
   468   1 h    0.885 --   466 o    0.832
   469   8 o    1.857 --   471 h    0.856   470 h    0.839
   470   1 h    0.887 --   469 o    0.839
   471   1 h    0.894 --   469 o    0.856
   472   8 o    1.858 --   474 h    0.878   473 h    0.840
   473   1 h    0.891 --   472 o    0.840
   474   1 h    0.897 --   472 o    0.878
   475   8 o    1.852 --   477 h    0.869   476 h    0.800
   476   1 h    0.882 --   475 o    0.800
   477   1 h    0.901 --   475 o    0.869
   478   8 o    1.857 --   479 h    0.831   480 h    0.800
   479   1 h    0.886 --   478 o    0.831
   480   1 h    0.871 --   478 o    0.800
   481   8 o    1.799 --   483 h    0.836   482 h    0.824
   482   1 h    0.887 --   481 o    0.824
   483   1 h    0.889 --   481 o    0.836
   484   8 o    1.841 --   485 h    0.861   486 h    0.819
   485   1 h    0.897 --   484 o    0.861
   486   1 h    0.886 --   484 o    0.819
   487   8 o    1.795 --   489 h    0.876   488 h    0.835
   488   1 h    0.893 --   487 o    0.835
   489   1 h    0.901 --   487 o    0.876
   490   8 o    1.848 --   492 h    0.832   491 h    0.822
   491   1 h    0.878 --   490 o    0.822
   492   1 h    0.889 --   490 o    0.832
   493   8 o    1.897 --   494 h    0.827   495 h    0.812
   494   1 h    0.885 --   493 o    0.827
   495   1 h    0.878 --   493 o    0.812
   496   8 o    1.852 --   498 h    0.805   497 h    0.802
   497   1 h    0.879 --   496 o    0.802
   498   1 h    0.876 --   496 o    0.805
   499   8 o    1.855 --   501 h    0.872   500 h    0.819
   500   1 h    0.887 --   499 o    0.819
   501   1 h    0.900 --   499 o    0.872
   502   8 o    1.830 --   503 h    0.876   504 h    0.819
   503   1 h    0.900 --   502 o    0.876
   504   1 h    0.882 --   502 o    0.819
   505   8 o    1.878 --   506 h    0.814   507 h    0.786
   506   1 h    0.881 --   505 o    0.814
   507   1 h    0.878 --   505 o    0.786
   508   8 o    1.851 --   510 h    0.901   509 h    0.800
   509   1 h    0.876 --   508 o    0.800
   510   1 h    0.909 --   508 o    0.901
   511   8 o    1.868 --   512 h    0.841   513 h    0.819
   512   1 h    0.882 --   511 o    0.841
   513   1 h    0.882 --   511 o    0.819
   514   8 o    1.845 --   516 h    0.896   515 h    0.813
   515   1 h    0.884 --   514 o    0.813
   516   1 h    0.905 --   514 o    0.896
   517   8 o    1.848 --   518 h    0.831   519 h    0.793
   518   1 h    0.882 --   517 o    0.831
   519   1 h    0.870 --   517 o    0.793
   520   8 o    1.816 --   522 h    0.833   521 h    0.826
   521   1 h    0.893 --   520 o    0.826
   522   1 h    0.895 --   520 o    0.833
   523   8 o    1.836 --   524 h    0.895   525 h    0.814
   524   1 h    0.906 --   523 o    0.895
   525   1 h    0.886 --   523 o    0.814
   526   8 o    1.859 --   528 h    0.845   527 h    0.832
   527   1 h    0.884 --   526 o    0.832
   528   1 h    0.888 --   526 o    0.845
   529   8 o    1.858 --   530 h    0.832   531 h    0.823
   530   1 h    0.882 --   529 o    0.832
   531   1 h    0.890 --   529 o    0.823
   532   8 o    1.855 --   534 h    0.838   533 h    0.814
   533   1 h    0.880 --   532 o    0.814
   534   1 h    0.888 --   532 o    0.838
   535   8 o    1.882 --   536 h    0.822   537 h    0.820
   536   1 h    0.877 --   535 o    0.822
   537   1 h    0.889 --   535 o    0.820
   538   8 o    1.859 --   539 h    0.854   540 h    0.802
   539   1 h    0.890 --   538 o    0.854
   540   1 h    0.883 --   538 o    0.802
   541   8 o    1.841 --   543 h    0.916   542 h    0.754
   542   1 h    0.873 --   541 o    0.754   304 o    0.110
   543   1 h    0.920 --   541 o    0.916
   544   8 o    1.895 --   545 h    0.834   546 h    0.808
   545   1 h    0.887 --   544 o    0.834
   546   1 h    0.886 --   544 o    0.808
   547   8 o    1.835 --   548 h    0.841   549 h    0.806
   548   1 h    0.896 --   547 o    0.841
   549   1 h    0.872 --   547 o    0.806
   550   8 o    1.865 --   551 h    0.862   552 h    0.843
   551   1 h    0.889 --   550 o    0.862
   552   1 h    0.886 --   550 o    0.843
   553   8 o    1.831 --   555 h    0.905   554 h    0.840
   554   1 h    0.886 --   553 o    0.840
   555   1 h    0.913 --   553 o    0.905
   556   8 o    1.841 --   557 h    0.883   558 h    0.815
   557   1 h    0.903 --   556 o    0.883
   558   1 h    0.884 --   556 o    0.815
   559   8 o    1.863 --   560 h    0.857   561 h    0.854
   560   1 h    0.889 --   559 o    0.857
   561   1 h    0.895 --   559 o    0.854
   562   8 o    1.842 --   564 h    0.814   563 h    0.810
   563   1 h    0.890 --   562 o    0.810
   564   1 h    0.886 --   562 o    0.814
   565   8 o    1.850 --   566 h    0.837   567 h    0.797
   566   1 h    0.889 --   565 o    0.837
   567   1 h    0.880 --   565 o    0.797
   568   8 o    1.877 --   570 h    0.839   569 h    0.822
   569   1 h    0.886 --   568 o    0.822
   570   1 h    0.884 --   568 o    0.839
   571   8 o    1.853 --   573 h    0.861   572 h    0.785
   572   1 h    0.869 --   571 o    0.785
   573   1 h    0.897 --   571 o    0.861
   574   8 o    1.855 --   576 h    0.819   575 h    0.803
   575   1 h    0.883 --   574 o    0.803
   576   1 h    0.881 --   574 o    0.819
   577   8 o    1.865 --   579 h    0.858   578 h    0.803
   578   1 h    0.885 --   577 o    0.803
   579   1 h    0.892 --   577 o    0.858
   580   8 o    1.835 --   582 h    0.904   581 h    0.817
   581   1 h    0.875 --   580 o    0.817
   582   1 h    0.912 --   580 o    0.904
   583   8 o    1.842 --   584 h    0.843   585 h    0.802
   584   1 h    0.883 --   583 o    0.843
   585   1 h    0.872 --   583 o    0.802
   586   8 o    1.845 --   587 h    0.864   588 h    0.863
   587   1 h    0.896 --   586 o    0.864
   588   1 h    0.894 --   586 o    0.863
   589   8 o    1.840 --   590 h    0.872   591 h    0.820
   590   1 h    0.904 --   589 o    0.872
   591   1 h    0.881 --   589 o    0.820
   592   8 o    1.832 --   594 h    0.836   593 h    0.832
   593   1 h    0.893 --   592 o    0.832
   594   1 h    0.892 --   592 o    0.836
   595   8 o    1.822 --   596 h    0.846   597 h    0.814
   596   1 h    0.895 --   595 o    0.846
   597   1 h    0.887 --   595 o    0.814
   598   8 o    1.845 --   599 h    0.858   600 h    0.838
   599   1 h    0.890 --   598 o    0.858
   600   1 h    0.888 --   598 o    0.838
   601   8 o    1.854 --   603 h    0.835   602 h    0.820
   602   1 h    0.875 --   601 o    0.820
   603   1 h    0.894 --   601 o    0.835
   604   8 o    1.858 --   605 h    0.848   606 h    0.801
   605   1 h    0.896 --   604 o    0.848
   606   1 h    0.878 --   604 o    0.801
   607   8 o    1.843 --   609 h    0.888   608 h    0.855
   608   1 h    0.895 --   607 o    0.855
   609   1 h    0.899 --   607 o    0.888
   610   8 o    1.845 --   612 h    0.878   611 h    0.774
   611   1 h    0.867 --   610 o    0.774
   612   1 h    0.898 --   610 o    0.878
   613   8 o    1.832 --   614 h    0.881   615 h    0.841
   614   1 h    0.903 --   613 o    0.881
   615   1 h    0.887 --   613 o    0.841
   616   8 o    1.876 --   618 h    0.873   617 h    0.843
   617   1 h    0.888 --   616 o    0.843
   618   1 h    0.898 --   616 o    0.873
   619   8 o    1.853 --   620 h    0.821   621 h    0.802
   620   1 h    0.882 --   619 o    0.821
   621   1 h    0.871 --   619 o    0.802
   622   8 o    1.842 --   624 h    0.892   623 h    0.807
   623   1 h    0.879 --   622 o    0.807
   624   1 h    0.908 --   622 o    0.892
   625   8 o    1.889 --   626 h    0.797   627 h    0.794
   626   1 h    0.886 --   625 o    0.797
   627   1 h    0.884 --   625 o    0.794
   628   8 o    1.843 --   630 h    0.846   629 h    0.834
   629   1 h    0.879 --   628 o    0.834
   630   1 h    0.892 --   628 o    0.846
   631   8 o    1.847 --   633 h    0.805   632 h    0.802
   632   1 h    0.878 --   631 o    0.802
   633   1 h    0.878 --   631 o    0.805
   634   8 o    1.867 --   636 h    0.876   635 h    0.851
   635   1 h    0.895 --   634 o    0.851
   636   1 h    0.898 --   634 o    0.876
   637   8 o    1.843 --   638 h    0.869   639 h    0.847
   638   1 h    0.898 --   637 o    0.869
   639   1 h    0.887 --   637 o    0.847
   640   8 o    1.856 --   642 h    0.875   641 h    0.833
   641   1 h    0.891 --   640 o    0.833
   642   1 h    0.898 --   640 o    0.875
   643   8 o    1.855 --   645 h    0.835   644 h    0.799
   644   1 h    0.887 --   643 o    0.799
   645   1 h    0.883 --   643 o    0.835
   646   8 o    1.838 --   647 h    0.875   648 h    0.872
   647   1 h    0.896 --   646 o    0.875
   648   1 h    0.898 --   646 o    0.872
   649   8 o    1.862 --   651 h    0.833   650 h    0.791
   650   1 h    0.883 --   649 o    0.791
   651   1 h    0.888 --   649 o    0.833
   652   8 o    1.844 --   653 h    0.854   654 h    0.798
   653   1 h    0.890 --   652 o    0.854
   654   1 h    0.885 --   652 o    0.798
   655   8 o    1.852 --   656 h    0.828   657 h    0.808
   656   1 h    0.893 --   655 o    0.828
   657   1 h    0.886 --   655 o    0.808
   658   8 o    1.814 --   659 h    0.818   660 h    0.794
   659   1 h    0.879 --   658 o    0.818
   660   1 h    0.880 --   658 o    0.794
   661   8 o    1.864 --   662 h    0.891   663 h    0.832
   662   1 h    0.903 --   661 o    0.891
   663   1 h    0.887 --   661 o    0.832
   664   8 o    1.852 --   666 h    0.828   665 h    0.809
   665   1 h    0.881 --   664 o    0.809
   666   1 h    0.891 --   664 o    0.828
   667   8 o    1.848 --   669 h    0.900   668 h    0.842
   668   1 h    0.893 --   667 o    0.842
   669   1 h    0.907 --   667 o    0.900
   670   8 o    1.812 --   672 h    0.832   671 h    0.825
   671   1 h    0.888 --   670 o    0.825
   672   1 h    0.895 --   670 o    0.832
   673   8 o    1.847 --   675 h    0.855   674 h    0.848
   674   1 h    0.894 --   673 o    0.848
   675   1 h    0.892 --   673 o    0.855
   676   8 o    1.815 --   677 h    0.858   678 h    0.816
   677   1 h    0.898 --   676 o    0.858
   678   1 h    0.889 --   676 o    0.816
   679   8 o    1.858 --   680 h    0.819   681 h    0.802
   680   1 h    0.876 --   679 o    0.819
   681   1 h    0.880 --   679 o    0.802
   682   8 o    1.867 --   683 h    0.816   684 h    0.813
   683   1 h    0.888 --   682 o    0.816
   684   1 h    0.873 --   682 o    0.813
   685   8 o    1.851 --   686 h    0.810   687 h    0.789
   686   1 h    0.876 --   685 o    0.810
   687   1 h    0.873 --   685 o    0.789
   688   8 o    1.846 --   689 h    0.838   690 h    0.823
   689   1 h    0.887 --   688 o    0.838
   690   1 h    0.879 --   688 o    0.823
   691   8 o    1.845 --   692 h    0.861   693 h    0.849
   692   1 h    0.893 --   691 o    0.861
   693   1 h    0.898 --   691 o    0.849
   694   8 o    1.858 --   695 h    0.819   696 h    0.791
   695   1 h    0.885 --   694 o    0.819
   696   1 h    0.880 --   694 o    0.791
   697   8 o    1.868 --   699 h    0.865   698 h    0.806
   698   1 h    0.871 --   697 o    0.806
   699   1 h    0.895 --   697 o    0.865
   700   8 o    1.849 --   702 h    0.833   701 h    0.811
   701   1 h    0.883 --   700 o    0.811
   702   1 h    0.895 --   700 o    0.833
   703   8 o    1.835 --   705 h    0.836   704 h    0.810
   704   1 h    0.887 --   703 o    0.810
   705   1 h    0.892 --   703 o    0.836
   706   8 o    1.854 --   708 h    0.909   707 h    0.788
   707   1 h    0.874 --   706 o    0.788
   708   1 h    0.916 --   706 o    0.909
   709   8 o    1.866 --   710 h    0.851   711 h    0.845
   710   1 h    0.893 --   709 o    0.851
   711   1 h    0.893 --   709 o    0.845
   712   8 o    1.869 --   713 h    0.876   714 h    0.817
   713   1 h    0.896 --   712 o    0.876
   714   1 h    0.881 --   712 o    0.817
   715   8 o    1.802 --   717 h    0.840   716 h    0.823
   716   1 h    0.880 --   715 o    0.823
   717   1 h    0.888 --   715 o    0.840
   718   8 o    1.848 --   720 h    0.832   719 h    0.777
   719   1 h    0.867 --   718 o    0.777
   720   1 h    0.886 --   718 o    0.832
   721   8 o    1.854 --   722 h    0.864   723 h    0.835
   722   1 h    0.897 --   721 o    0.864
   723   1 h    0.882 --   721 o    0.835
   724   8 o    1.849 --   725 h    0.844   726 h    0.822
   725   1 h    0.895 --   724 o    0.844
   726   1 h    0.890 --   724 o    0.822
   727   8 o    1.869 --   728 h    0.859   729 h    0.802
   728   1 h    0.893 --   727 o    0.859
   729   1 h    0.884 --   727 o    0.802
   730   8 o    1.843 --   732 h    0.886   731 h    0.813
   731   1 h    0.885 --   730 o    0.813
   732   1 h    0.904 --   730 o    0.886
   733   8 o    1.859 --   734 h    0.862   735 h    0.845
   734   1 h    0.901 --   733 o    0.862
   735   1 h    0.892 --   733 o    0.845
   736   8 o    1.810 --   738 h    0.854   737 h    0.848
   737   1 h    0.892 --   736 o    0.848
   738   1 h    0.898 --   736 o    0.854
   739   8 o    1.852 --   740 h    0.859   741 h    0.821
   740   1 h    0.893 --   739 o    0.859
   741   1 h    0.879 --   739 o    0.821
   742   8 o    1.851 --   744 h    0.881   743 h    0.787
   743   1 h    0.876 --   742 o    0.787
   744   1 h    0.902 --   742 o    0.881
   745   8 o    1.845 --   747 h    0.889   746 h    0.835
   746   1 h    0.891 --   745 o    0.835
   747   1 h    0.898 --   745 o    0.889
   748   8 o    1.832 --   750 h    0.878   749 h    0.857
   749   1 h    0.894 --   748 o    0.857
   750   1 h    0.897 --   748 o    0.878
   751   8 o    1.834 --   753 h    0.884   752 h    0.850
   752   1 h    0.883 --   751 o    0.850
   753   1 h    0.891 --   751 o    0.884
   754   8 o    1.831 --   755 h    0.878   756 h    0.856
   755   1 h    0.893 --   754 o    0.878
   756   1 h    0.885 --   754 o    0.856
 ---------------------------------------------------------------------------

Topologies differ in total number of bonds
Writing topology from bond orders to xtbtopo.mol

molecular dipole:
                 x           y           z       tot (Debye)
 q only:        5.190      -0.878       1.862
   full:        7.918      -0.979       2.927      21.599
molecular quadrupole (traceless):
                xx          xy          yy          xz          yz          zz
 q only:      -13.368     108.174      33.868      29.732       9.518     -20.501
  q+dip:      -14.807     143.295      33.052      45.596      -4.321     -18.245
   full:      -13.031     143.290      31.528      44.466      -5.369     -18.497


           -------------------------------------------------
          | TOTAL ENERGY            -1283.349995157211 Eh   |
          | GRADIENT NORM               0.032933141072 Eh/α |
          | HOMO-LUMO GAP               7.896757026518 eV   |
           -------------------------------------------------

------------------------------------------------------------------------
 * finished run on 2022/11/24 at 09:29:09.213     
------------------------------------------------------------------------
 total:
 * wall-time:     0 d,  0 h,  0 min, 59.138 sec
 *  cpu-time:     0 d,  0 h,  1 min, 14.056 sec
 * ratio c/w:     1.252 speedup
 SCF:
 * wall-time:     0 d,  0 h,  0 min, 58.153 sec
 *  cpu-time:     0 d,  0 h,  1 min, 12.377 sec
 * ratio c/w:     1.245 speedup

